Title
44469
    1GLY      N    1   6.202   5.778   3.937  0.4189  0.2430  0.2549
    1GLY    HT1    2   6.107   5.738   3.920  1.0851 -1.9934  1.4002
    1GLY    HT2    3   6.239   5.823   3.851  0.9194 -1.1584 -0.2757
    1GLY    HT3    4   6.195   5.856   4.006  0.3459 -0.2785  0.8423
    1GLY     CA    5   6.294   5.664   3.977  0.8101  0.3230  0.1722
    1GLY    HA1    6   6.251   5.627   4.069 -1.7927  0.0043 -1.0758
    1GLY    HA2    7   6.395   5.700   3.984  1.0785 -0.1195 -1.1231
    1GLY      C    8   6.293   5.541   3.888 -0.0460  0.5393  0.0627
    1GLY      O    9   6.184   5.482   3.874  0.1307 -0.8982 -0.0361
    2PRO      N   10   6.400   5.482   3.830 -0.2547  0.2996 -0.4948
    2PRO     CD   11   6.531   5.552   3.818  0.2771  0.7386  0.4983
    2PRO    HD1   12   6.598   5.520   3.900  1.2694 -1.7093 -1.1315
    2PRO    HD2   13   6.514   5.662   3.809 -0.0906  0.5971 -0.9114
    2PRO     CA   14   6.384   5.398   3.709 -0.1972 -0.7173 -0.1074
    2PRO     HA   15   6.328   5.456   3.636 -2.0572 -0.6856  1.2720
    2PRO     CB   16   6.532   5.385   3.654 -0.4363  0.4841 -0.4734
    2PRO    HB1   17   6.531   5.365   3.545 -0.0588 -0.0352 -0.3832
    2PRO    HB2   18   6.582   5.305   3.712 -0.6857  0.8862  0.3175
    2PRO     CG   19   6.593   5.513   3.683 -0.5632  0.1617 -0.7417
    2PRO    HG1   20   6.704   5.514   3.684 -0.5421 -0.7671 -1.0186
    2PRO    HG2   21   6.558   5.585   3.607  0.0160  1.3732  0.0997
    2PRO      C   22   6.329   5.258   3.730  0.7811  0.0692 -0.0927
    2PRO      O   23   6.335   5.184   3.634  0.1096 -0.7416  0.1514
    3GLY      N   24   6.279   5.224   3.850  0.3586  0.2368 -0.0155
    3GLY     HN   25   6.280   5.287   3.927 -0.0076 -1.4012  1.3866
    3GLY     CA   26   6.216   5.099   3.869  0.3508  0.4701 -0.6117
    3GLY    HA1   27   6.284   5.048   3.935  2.1342  0.0580 -2.6701
    3GLY    HA2   28   6.202   5.041   3.779 -1.3762 -1.2994  0.7129
    3GLY      C   29   6.075   5.115   3.929 -0.5126  0.5644  0.3501
    3GLY      O   30   6.007   5.023   3.964  0.0969 -0.2709  0.6379
    4ASN      N   31   6.037   5.240   3.944 -0.2189  0.8471  0.6703
    4ASN     HN   32   6.091   5.322   3.929  1.2970  0.0018  1.2275
    4ASN     CA   33   5.925   5.278   4.024  0.2958  0.0636  0.0909
    4ASN     HA   34   5.897   5.188   4.077 -3.0964  0.4155 -0.8269
    4ASN     CB   35   5.962   5.402   4.109  0.5742  0.0783 -0.2956
    4ASN    HB1   36   5.867   5.449   4.143 -0.2983 -0.8239 -1.3925
    4ASN    HB2   37   6.011   5.478   4.046  0.5415  1.2854  1.0835
    4ASN     CG   38   6.052   5.363   4.232  0.4998 -0.2771 -0.1912
    4ASN    OD1   39   6.091   5.254   4.262  0.1923  0.1439  0.3297
    4ASN    ND2   40   6.080   5.470   4.312  0.4419  0.1335 -0.0386
    4ASN   HD21   41   6.144   5.461   4.388  0.1549 -0.2066  0.1686
    4ASN   HD22   42   6.045   5.558   4.281 -0.1929 -0.4782 -1.1162
    4ASN      C   43   5.806   5.316   3.936 -0.5791  0.1325  0.2063
    4ASN      O   44   5.831   5.380   3.831 -0.2188 -0.2091  0.2468
    5PRO      N   45   5.684   5.276   3.968  0.2620 -0.0905  0.4923
    5PRO     CD   46   5.660   5.184   4.075 -0.7445 -0.2058 -0.1313
    5PRO    HD1   47   5.684   5.237   4.170 -1.2216 -1.1885  0.5509
    5PRO    HD2   48   5.722   5.094   4.055 -0.2187  0.3685 -1.2040
    5PRO     CA   49   5.558   5.314   3.904  0.1081 -0.0553  0.6893
    5PRO     HA   50   5.550   5.278   3.803 -0.1571 -0.0048  0.6901
    5PRO     CB   51   5.446   5.258   3.994 -0.3763  0.3457 -0.0130
    5PRO    HB1   52   5.351   5.227   3.946  0.3262 -0.3506 -1.0021
    5PRO    HB2   53   5.416   5.323   4.079 -0.9758 -0.4733  0.4147
    5PRO     CG   54   5.517   5.136   4.059 -0.0677  0.5080  0.6241
    5PRO    HG1   55   5.465   5.109   4.154 -0.9292  3.5742  1.1370
    5PRO    HG2   56   5.530   5.050   3.990  1.3978  0.8827  0.4003
    5PRO      C   57   5.537   5.468   3.886  0.7009 -0.1454 -0.2258
    5PRO      O   58   5.592   5.549   3.962  0.6767  0.4163  0.0833
    6GLY      N   59   5.445   5.516   3.797 -0.2712  0.7528  0.0325
    6GLY     HN   60   5.396   5.453   3.737 -1.0131  0.1740  1.2205
    6GLY     CA   61   5.420   5.662   3.775  0.5622  0.1889 -0.3548
    6GLY    HA1   62   5.344   5.665   3.698 -1.8555 -0.7389  1.8428
    6GLY    HA2   63   5.513   5.712   3.755  0.3303  1.2336  1.0552
    6GLY      C   64   5.361   5.735   3.893 -1.0447  0.4573  0.0213
    6GLY      O   65   5.327   5.679   3.997 -0.5140  0.3988  0.7537
    7PRO      N   66   5.351   5.866   3.888  0.2621 -0.3723 -0.0029
    7PRO     CD   67   5.359   5.943   3.767  0.0703 -0.4040  0.1474
    7PRO    HD1   68   5.279   5.911   3.698 -0.2004 -0.3952  0.4529
    7PRO    HD2   69   5.460   5.940   3.720  0.8687  1.3134  1.6518
    7PRO     CA   70   5.326   5.952   4.007  0.9091 -0.0345  0.1395
    7PRO     HA   71   5.381   5.914   4.092 -2.0319  0.5809  2.4853
    7PRO     CB   72   5.370   6.097   3.957  0.0562  0.5394 -0.8163
    7PRO    HB1   73   5.479   6.107   3.974  0.3351  2.6852 -3.1920
    7PRO    HB2   74   5.318   6.185   4.001 -1.1838  0.2520 -1.6545
    7PRO     CG   75   5.336   6.087   3.812 -1.0792  0.3007 -0.5417
    7PRO    HG1   76   5.230   6.117   3.822 -0.6794  1.0804  1.8402
    7PRO    HG2   77   5.395   6.160   3.752 -0.0937  0.3434  0.4532
    7PRO      C   78   5.177   5.963   4.056  0.2356  0.0796 -0.5749
    7PRO      O   79   5.143   6.056   4.135 -0.1694 -0.4059  0.4936
    8GLY      N   80   5.088   5.865   4.021 -0.7642  0.5479 -0.2068
    8GLY     HN   81   5.121   5.793   3.960  1.9795  0.7813  0.8213
    8GLY     CA   82   4.948   5.857   4.065 -0.1143  0.2371  0.8198
    8GLY    HA1   83   4.941   5.879   4.171  0.2807 -0.4473  0.9903
    8GLY    HA2   84   4.904   5.764   4.034  0.0935  0.8773 -1.5600
    8GLY      C   85   4.856   5.958   3.996  0.4631  0.4332  0.1654
    8GLY      O   86   4.893   6.024   3.903  0.2744  0.3677  0.3270
    9ASN      N   87   4.731   5.968   4.044  0.5940  0.2092  0.2271
    9ASN     HN   88   4.718   5.920   4.130  0.8269  1.1981  0.8323
    9ASN     CA   89   4.629   6.057   3.994  0.1241  0.2467 -0.1342
    9ASN     HA   90   4.633   6.041   3.887  0.5938  1.7975 -0.3733
    9ASN     CB   91   4.489   6.015   4.051  0.0850  0.0797  0.3166
    9ASN    HB1   92   4.410   6.081   4.009  0.3577  0.2160  0.0208
    9ASN    HB2   93   4.495   6.036   4.160 -1.9913 -1.5685  0.8317
    9ASN     CG   94   4.463   5.869   4.019  0.7102  0.8230  0.5828
    9ASN    OD1   95   4.475   5.822   3.905 -0.1195  0.4555 -0.1862
    9ASN    ND2   96   4.407   5.795   4.116  0.0136  0.7057 -0.4651
    9ASN   HD21   97   4.375   5.702   4.098  1.2531 -0.2755  1.8762
    9ASN   HD22   98   4.401   5.846   4.202 -0.2812  1.5973 -1.0057
    9ASN      C   99   4.663   6.205   4.026  0.3985 -0.1952 -0.9834
    9ASN      O  100   4.721   6.231   4.135 -0.2060  0.0580 -0.5710
   10PRO      N  101   4.634   6.300   3.938  0.7900  0.5320 -0.1495
   10PRO     CD  102   4.634   6.272   3.801  0.0660 -0.3721  0.0735
   10PRO    HD1  103   4.564   6.189   3.779 -0.2888  0.2263 -1.1608
   10PRO    HD2  104   4.735   6.235   3.773  1.5309  2.0026  1.8614
   10PRO     CA  105   4.590   6.436   3.965 -0.2820 -0.1632 -0.1962
   10PRO     HA  106   4.681   6.493   3.979 -0.2298 -0.4689  0.7982
   10PRO     CB  107   4.510   6.466   3.834 -0.2253  0.3246 -0.0887
   10PRO    HB1  108   4.492   6.572   3.806  0.2376 -0.0086 -1.7372
   10PRO    HB2  109   4.413   6.410   3.836 -0.2797  0.4246  1.1980
   10PRO     CG  110   4.595   6.398   3.726 -0.4559 -0.4147  0.6606
   10PRO    HG1  111   4.542   6.366   3.634  1.7341 -2.1967 -0.0910
   10PRO    HG2  112   4.692   6.441   3.693  0.8043 -2.3257  1.6379
   10PRO      C  113   4.508   6.461   4.089  0.6748  0.7069 -0.2591
   10PRO      O  114   4.417   6.383   4.130  0.0099 -0.5009  0.1179
   11GLY      N  115   4.532   6.570   4.158 -0.6813  0.5424  0.3692
   11GLY     HN  116   4.615   6.618   4.130 -0.6222 -0.5382 -1.4878
   11GLY     CA  117   4.456   6.604   4.281  0.6843 -0.1286 -0.0677
   11GLY    HA1  118   4.506   6.685   4.331 -1.1507 -0.7292  3.0048
   11GLY    HA2  119   4.445   6.514   4.340 -2.6389 -1.0746 -1.8402
   11GLY      C  120   4.316   6.656   4.254  0.4531  0.0187  0.1274
   11GLY      O  121   4.278   6.681   4.139  0.2251 -0.2716 -0.1529
   12PRO      N  122   4.238   6.679   4.356  0.1840 -0.2065  0.0478
   12PRO     CD  123   4.274   6.655   4.496 -0.1004  0.4069 -0.3507
   12PRO    HD1  124   4.369   6.707   4.522 -0.5276  1.3701 -0.6795
   12PRO    HD2  125   4.286   6.546   4.511 -4.6481 -0.2324 -0.0955
   12PRO     CA  126   4.101   6.721   4.331 -0.6540 -0.3018 -0.4638
   12PRO     HA  127   4.064   6.654   4.254 -0.0165 -0.3604 -0.7321
   12PRO     CB  128   4.039   6.693   4.463 -0.6217 -0.3310  0.9093
   12PRO    HB1  129   4.005   6.589   4.481 -0.9004 -0.6485 -1.2039
   12PRO    HB2  130   3.952   6.760   4.487  0.9749  0.9293  3.6899
   12PRO     CG  131   4.154   6.715   4.570  0.4742 -0.7229  0.0273
   12PRO    HG1  132   4.167   6.824   4.585  0.4515 -0.5867 -0.8651
   12PRO    HG2  133   4.134   6.662   4.666 -0.5493 -3.3908 -1.5383
   12PRO      C  134   4.093   6.864   4.286 -0.2487 -0.0571 -0.6702
   12PRO      O  135   3.998   6.898   4.220  0.6098 -0.4338  0.9749
   13GLY      N  136   4.189   6.947   4.336  0.0429 -0.1861 -0.0479
   13GLY     HN  137   4.272   6.909   4.374  0.1025 -0.8150 -0.7746
   13GLY     CA  138   4.187   7.086   4.319  0.6369 -0.3368  0.0213
   13GLY    HA1  139   4.192   7.110   4.214  2.3242 -4.2706 -0.9834
   13GLY    HA2  140   4.269   7.132   4.372  0.3103  1.4884 -0.9720
   13GLY      C  141   4.062   7.155   4.389 -0.0193  0.0039  0.0560
   13GLY      O  142   4.013   7.099   4.488 -0.6352 -0.2947  0.6636
   14ASN      N  143   4.014   7.271   4.333  0.3012 -0.1151 -0.0060
   14ASN     HN  144   4.059   7.307   4.252 -1.5864 -0.0396 -1.0732
   14ASN     CA  145   3.877   7.325   4.359  0.5899  0.6387 -0.3062
   14ASN     HA  146   3.838   7.283   4.450  0.0178  2.4037  0.3108
   14ASN     CB  147   3.886   7.478   4.395  0.1076  0.5353 -0.1993
   14ASN    HB1  148   3.782   7.513   4.413  0.0510 -0.2226  1.0631
   14ASN    HB2  149   3.931   7.537   4.312 -0.5876  0.6591 -0.4964
   14ASN     CG  150   3.963   7.505   4.523 -0.3733 -0.8083 -0.2996
   14ASN    OD1  151   4.059   7.590   4.529 -0.2283 -0.1506 -0.3092
   14ASN    ND2  152   3.935   7.431   4.631  0.3131  0.0625 -0.9640
   14ASN   HD21  153   3.980   7.460   4.716  1.6430  0.6240 -1.8283
   14ASN   HD22  154   3.902   7.337   4.622 -0.2467  0.0024  1.0504
   14ASN      C  155   3.776   7.304   4.243  0.7050  0.5029  0.6997
   14ASN      O  156   3.791   7.365   4.138 -0.7586 -0.3951 -0.2840
   15PRO      N  157   3.682   7.210   4.248 -0.2024 -0.6113  0.1009
   15PRO     CD  158   3.699   7.093   4.329 -0.0985  0.3683 -0.0270
   15PRO    HD1  159   3.736   7.111   4.432  0.2187 -2.4413  0.4328
   15PRO    HD2  160   3.779   7.029   4.287 -0.4272 -0.5636  0.7428
   15PRO     CA  161   3.573   7.196   4.153 -0.4625  0.5846 -0.2769
   15PRO     HA  162   3.618   7.203   4.055  1.9780  0.1073  0.7302
   15PRO     CB  163   3.514   7.056   4.185 -0.8466 -0.3700  0.1145
   15PRO    HB1  164   3.559   6.984   4.114  0.0315 -0.0714  0.3527
   15PRO    HB2  165   3.403   7.057   4.180 -0.8782  0.5242  0.7883
   15PRO     CG  166   3.566   7.022   4.333  0.7540  0.3410  0.1111
   15PRO    HG1  167   3.496   7.060   4.410  1.0292  0.5909  0.2412
   15PRO    HG2  168   3.594   6.915   4.343  3.5763  0.9805  0.0121
   15PRO      C  169   3.479   7.314   4.171  0.4003  0.0095  0.3438
   15PRO    OT1  170   3.425   7.357   4.065  0.3476  0.2083  0.5236
   15PRO    OT2  171   3.449   7.354   4.283 -0.3144 -0.0736  0.1857
   16LIT    LIT  172   1.847   6.579   3.791  0.2184 -0.8669  0.1225
   17LIT    LIT  173   4.571   1.964   0.855 -0.9083  0.3377 -1.2965
   18LIT    LIT  174   6.210   3.890   6.585  0.1364  0.7871 -0.5606
   19LIT    LIT  175   1.003   5.996   4.486  0.0672 -0.5600  0.0490
   20LIT    LIT  176   4.251   1.944   4.885 -0.0862 -0.2987  0.3050
   21LIT    LIT  177   1.986   6.556   6.350 -0.7114  0.5279  0.0971
   22LIT    LIT  178   5.233   7.020   3.230 -0.2428 -0.0602  0.8203
   23LIT    LIT  179   3.827   1.481   5.597 -0.5986 -0.5986 -0.5760
   24LIT    LIT  180   3.906   5.908   0.882 -0.8377  0.2075 -0.0566
   25LIT    LIT  181   6.329   6.301   5.061  0.7141 -0.5198 -0.4824
   26LIT    LIT  182   4.113   6.533   3.110 -0.5989  0.1354  0.5268
   27LIT    LIT  183   0.952   1.070   2.006 -0.7165  0.1888 -0.4462
   28LIT    LIT  184   2.134   2.901   5.694  0.8867 -0.0372  0.3483
   29LIT    LIT  185   7.439   0.532   1.283  0.3401  0.0317  0.2120
   30LIT    LIT  186   6.488   2.368   5.925 -0.2487  0.1595 -0.5226
   31LIT    LIT  187   0.337   2.038   1.317  0.5678  0.1652  1.2906
   32LIT    LIT  188   4.821   1.481   1.717 -0.0395 -0.3427  0.5007
   33LIT    LIT  189   0.623   4.660   4.741  0.4780  1.5694  0.0131
   34LIT    LIT  190   8.152   1.535   1.918 -0.3786  0.2616 -0.3970
   35LIT    LIT  191   6.640   5.693   4.920  0.3247  0.2052 -1.1002
   36LIT    LIT  192   5.870   3.981   0.341  0.5361 -0.3004  0.0480
   37LIT    LIT  193   5.127   5.379   0.421 -0.1867 -0.4007  0.9895
   38LIT    LIT  194   2.067   1.061   3.149  1.1768 -0.1625 -0.3531
   39LIT    LIT  195   0.554   1.639   0.020  0.9247  0.2919  0.8890
   40LIT    LIT  196   5.690   0.583   6.460 -0.2876  0.7601 -0.5673
   41LIT    LIT  197   0.787   6.770   5.379  0.3233 -0.1078  0.2496
   42LIT    LIT  198   0.358   2.598   3.658  0.2085 -0.2115 -0.0704
   43LIT    LIT  199   2.681   7.638   4.395  0.7877 -0.0378 -0.4160
   44LIT    LIT  200   3.997   3.970   4.119  0.5333  0.0917 -0.7778
   45LIT    LIT  201   4.110   2.877   5.685  0.0025 -0.6572  0.3748
   46LIT    LIT  202   5.771   5.044   6.217 -1.0395 -0.2688 -0.3042
   47LIT    LIT  203   6.188   4.029   3.780  0.1538 -1.2458 -0.6743
   48LIT    LIT  204   0.489   7.058   6.376  0.0555 -1.0628  0.2422
   49LIT    LIT  205   0.885   3.345   2.837  0.5751 -0.1371  0.7162
   50LIT    LIT  206   2.111   4.974   0.743 -0.0966  0.4117 -0.8343
   51LIT    LIT  207   4.657   1.855   2.583  0.2812  0.6985  0.5576
   52LIT    LIT  208   4.772   3.086   1.314  0.5360  0.9131  0.3704
   53LIT    LIT  209   5.269   2.877   6.579 -0.2182  0.7944  0.0659
   54LIT    LIT  210   3.754   7.296   3.461  0.1712  0.0030 -0.6363
   55LIT    LIT  211   0.139   4.196   0.160  0.5285 -0.4693  0.6735
   56LIT    LIT  212   0.013   3.762   0.548  0.1885  0.5998  0.4623
   57LIT    LIT  213   8.264   4.331   3.838 -0.4957  0.3252 -1.1411
   58CLA    CLA  214   2.235   1.741   2.744 -0.0740 -0.1997 -0.1038
   59CLA    CLA  215   3.456   7.407   2.741  0.1573 -0.0505 -0.0066
   60CLA    CLA  216   0.398   1.095   3.492  0.1094 -0.3282  0.3399
   61CLA    CLA  217   4.896   5.282   4.460  0.3030  0.2401  0.0341
   62CLA    CLA  218   5.405   6.113   1.461 -0.1603  0.1191 -0.1583
   63CLA    CLA  219   7.533   7.816   3.106 -0.4269  0.2297  0.1833
   64CLA    CLA  220   1.631   5.332   4.137 -0.1166  0.4287 -0.0681
   65CLA    CLA  221   0.441   7.173   5.706  0.2136 -0.2194 -0.1790
   66CLA    CLA  222   5.706   3.019   5.726  0.3807 -0.3516 -0.3152
   67CLA    CLA  223   0.094   5.163   4.298  0.1562  0.2139  0.1646
   68CLA    CLA  224   0.594   6.243   4.629  0.4584 -0.1245 -0.0483
   69CLA    CLA  225   5.208   3.401   1.405 -0.2247 -0.6023  0.1351
   70CLA    CLA  226   2.526   0.445   6.595 -0.2455  0.2185 -0.0526
   71CLA    CLA  227   0.321   5.155   5.038  0.0862  0.0603 -0.1653
   72CLA    CLA  228   3.745   1.894   1.669 -0.1736  0.0100  0.1707
   73CLA    CLA  229   1.264   1.584   2.677  0.3315  0.5478  0.1426
   74CLA    CLA  230   4.054   3.056   5.804 -0.6099  0.0570  0.1399
   75CLA    CLA  231   2.976   3.181   5.843  0.0260 -0.2059 -0.0302
   76CLA    CLA  232   4.426   3.603   3.847  0.4631  0.3788  0.2221
   77CLA    CLA  233   5.742   4.625   4.135  0.1238 -0.3154 -0.3573
   78CLA    CLA  234   3.214   0.442   5.611 -0.4202  0.3158  0.7795
   79CLA    CLA  235   5.382   0.210   4.492  0.1486 -0.3451 -0.1832
   80CLA    CLA  236   0.625   6.013   2.387  0.1278 -0.4778 -0.2808
   81CLA    CLA  237   4.565   2.704   0.389 -0.2566 -0.2585 -0.5584
   82CLA    CLA  238   7.594   2.557   1.503 -0.3057  0.7204  0.1563
   83CLA    CLA  239   5.210   5.742   2.237 -0.4381 -0.1127  0.0400
   84CLA    CLA  240   2.426   6.459   1.367 -0.2736  0.2057 -0.2983
   85CLA    CLA  241   0.071   0.329   0.760 -0.1428 -0.4553  0.2225
   86CLA    CLA  242   6.866   0.668   3.947 -0.4737  0.0158 -0.0487
   87CLA    CLA  243   8.032   2.469   2.872 -0.0058 -0.4917  0.1293
   88CLA    CLA  244   4.548   5.354   4.042  0.2275  0.0787 -0.2188
   89CLA    CLA  245   7.457   4.525   2.795 -0.2105  0.1513  0.4066
   90CLA    CLA  246   0.734   7.761   6.072 -0.2290 -0.0762 -0.1737
   91CLA    CLA  247   0.575   7.716   0.938  0.0231  0.2313  0.2132
   92CLA    CLA  248   7.342   0.869   1.149  0.2234  0.0502 -0.1321
   93CLA    CLA  249   5.844   6.152   1.133  0.0280  0.5013  0.3306
   94CLA    CLA  250   1.303   5.282   2.735  0.0587 -0.0288  0.0775
   95CLA    CLA  251   0.465   2.549   6.303 -0.0750  0.2631 -0.4499
   96CLA    CLA  252   3.543   5.161   6.700 -0.1893  0.0746  0.1824
   97CLA    CLA  253   5.083   0.611   5.898 -0.1727  0.0027  0.0692
   98CLA    CLA  254   0.225   5.237   5.725 -0.3375  0.0464 -0.0166
   99CLA    CLA  255   7.467   3.888   0.129 -0.0127  0.0809 -0.2731
  100TIP3   OH2  256   5.163   1.245   4.970  0.3003 -0.1919  0.0208
  100TIP3    H1  257   5.192   1.203   5.052  0.1387 -0.9858 -0.3134
  100TIP3    H2  258   5.084   1.197   4.946  0.1506  0.2699 -0.4213
  101TIP3   OH2  259   5.886   3.066   1.651 -0.6139  0.1689 -0.0637
  101TIP3    H1  260   5.919   3.133   1.591  1.5680 -0.1564  0.6936
  101TIP3    H2  261   5.919   2.983   1.616  1.1384  0.0169  1.7688
  102TIP3   OH2  262   3.251   0.704   0.162 -0.2705  0.2738  0.8172
  102TIP3    H1  263   3.246   0.614   0.193 -1.5907 -0.4433 -1.2061
  102TIP3    H2  264   3.327   0.705   0.103 -1.3228 -0.0813 -0.6079
  103TIP3   OH2  265   2.274   4.598   6.565 -0.4702 -0.2779 -0.1628
  103TIP3    H1  266   2.332   4.530   6.600 -0.7322  0.2790  1.4327
  103TIP3    H2  267   2.229   4.634   6.642 -2.4327 -0.2119 -1.2585
  104TIP3   OH2  268   1.823   2.759   0.262 -0.0310 -0.4205  0.1013
  104TIP3    H1  269   1.753   2.714   0.309 -0.8030 -0.8224 -1.3654
  104TIP3    H2  270   1.869   2.808   0.329 -1.8414  0.0187  1.0875
  105TIP3   OH2  271   6.999   3.382   5.543 -0.4647 -0.5797  0.4565
  105TIP3    H1  272   7.083   3.422   5.564 -0.0949 -2.3543  2.7804
  105TIP3    H2  273   6.935   3.431   5.595 -0.7268 -0.1033 -0.2804
  106TIP3   OH2  274   3.727   4.746   0.977 -0.3910  0.6335  0.5849
  106TIP3    H1  275   3.690   4.814   1.033 -1.3505 -1.3082  2.4722
  106TIP3    H2  276   3.818   4.738   1.006  0.3193  2.3678 -0.9930
  107TIP3   OH2  277   3.828   1.585   0.195  0.2893  0.2738  0.2212
  107TIP3    H1  278   3.773   1.633   0.133 -0.5755  1.1093  1.5730
  107TIP3    H2  279   3.834   1.644   0.271  1.8049 -0.4565  0.6974
  108TIP3   OH2  280   5.712   2.598   2.734 -0.2388  0.3777  0.2311
  108TIP3    H1  281   5.711   2.517   2.784  0.9351  0.1866 -0.0128
  108TIP3    H2  282   5.709   2.570   2.642 -1.4510  0.6865  0.1635
  109TIP3   OH2  283   0.360   4.715   1.442 -0.6207 -0.0363 -0.2423
  109TIP3    H1  284   0.296   4.785   1.452  2.5265  3.2766 -1.3654
  109TIP3    H2  285   0.409   4.715   1.524  0.5634  0.4072 -0.9248
  110TIP3   OH2  286   2.510   0.253   1.817  0.3261  0.0989 -0.0443
  110TIP3    H1  287   2.469   0.168   1.797 -1.5771  0.4041  2.1379
  110TIP3    H2  288   2.500   0.304   1.737 -0.7807 -0.9281 -0.5917
  111TIP3   OH2  289   7.206   0.425   4.705  0.6052  0.1998  0.2394
  111TIP3    H1  290   7.181   0.499   4.759 -1.1412 -0.5331  0.4812
  111TIP3    H2  291   7.128   0.369   4.702  1.4190 -0.9336 -1.0928
  112TIP3   OH2  292   7.664   4.453   3.567 -0.2014 -0.6905  0.0995
  112TIP3    H1  293   7.741   4.502   3.539 -0.7720  0.3076  0.2365
  112TIP3    H2  294   7.614   4.438   3.486  0.3636 -1.7620 -0.0619
  113TIP3   OH2  295   7.818   1.684   3.060  0.2778 -1.1364 -0.7684
  113TIP3    H1  296   7.909   1.715   3.068  0.1889 -0.5987 -1.6591
  113TIP3    H2  297   7.820   1.595   3.095  0.9948 -0.8734 -0.1024
  114TIP3   OH2  298   6.818   5.686   0.720  0.4123 -0.1202 -0.1122
  114TIP3    H1  299   6.890   5.748   0.735 -0.0344  0.8967 -1.8796
  114TIP3    H2  300   6.848   5.604   0.759  1.1489  1.1005  2.0724
  115TIP3   OH2  301   3.875   5.455   1.062  0.1121 -0.0291 -0.1188
  115TIP3    H1  302   3.902   5.482   1.149  1.0475  0.2342 -0.4708
  115TIP3    H2  303   3.780   5.461   1.063  0.1305  0.2647  0.7850
  116TIP3   OH2  304   4.830   2.664   3.626  0.0553 -0.4481 -0.4221
  116TIP3    H1  305   4.866   2.748   3.652 -0.1056  0.2774 -2.3716
  116TIP3    H2  306   4.886   2.599   3.669 -0.7577  0.5718  2.3934
  117TIP3   OH2  307   6.196   4.836   4.322  0.2048 -0.0572  0.3500
  117TIP3    H1  308   6.179   4.862   4.413  0.1997 -0.7771  0.5601
  117TIP3    H2  309   6.110   4.840   4.280  0.1722  0.0772  0.4291
  118TIP3   OH2  310   7.672   0.970   2.696 -0.1226 -0.2761 -0.2608
  118TIP3    H1  311   7.638   0.964   2.785  0.2055 -1.0133 -0.1788
  118TIP3    H2  312   7.719   1.053   2.694  1.5390 -1.1517  0.8481
  119TIP3   OH2  313   2.090   2.637   6.333 -0.2182 -0.7043  0.4746
  119TIP3    H1  314   2.057   2.547   6.339 -2.5790  0.2151  2.7561
  119TIP3    H2  315   2.173   2.634   6.381 -0.5194 -1.5755  0.9811
  120TIP3   OH2  316   1.926   5.473   0.611 -0.2674  0.2618  0.5822
  120TIP3    H1  317   1.909   5.545   0.551  2.5171  0.1999 -0.4168
  120TIP3    H2  318   1.901   5.395   0.562  1.1122  0.2831 -0.2250
  121TIP3   OH2  319   1.890   5.143   1.092  0.2303  0.0385 -0.2361
  121TIP3    H1  320   1.941   5.109   1.165 -0.5572 -0.4311  0.1100
  121TIP3    H2  321   1.853   5.064   1.051  1.8717  0.1431 -2.0840
  122TIP3   OH2  322   4.742   6.824   6.530  0.3323  0.0071 -0.5031
  122TIP3    H1  323   4.658   6.801   6.569  0.6121  0.1904  0.2164
  122TIP3    H2  324   4.731   6.914   6.500  0.5882  0.3915  0.5190
  123TIP3   OH2  325   3.436   4.493   1.537  0.5328 -0.3763 -0.5653
  123TIP3    H1  326   3.345   4.471   1.518  1.2367 -2.2150 -2.1907
  123TIP3    H2  327   3.437   4.588   1.545 -1.4579 -0.2898 -0.8209
  124TIP3   OH2  328   4.604   7.312   1.205  0.3496 -0.0020  0.0152
  124TIP3    H1  329   4.640   7.227   1.229 -1.3684 -0.6695  0.3512
  124TIP3    H2  330   4.626   7.369   1.279  0.0856 -0.5881  0.5575
  125TIP3   OH2  331   6.114   0.531   1.402  0.4555 -0.0113 -0.0010
  125TIP3    H1  332   6.148   0.454   1.448 -1.5421 -0.0990  1.4811
  125TIP3    H2  333   6.088   0.591   1.473  0.6021  1.4072 -1.1090
  126TIP3   OH2  334   4.971   6.517   3.781 -0.6138 -0.5023  0.2283
  126TIP3    H1  335   4.967   6.451   3.712 -1.1962 -0.0704 -0.1570
  126TIP3    H2  336   4.925   6.593   3.745 -0.7450 -0.2001  1.0068
  127TIP3   OH2  337   7.132   5.745   2.162  0.3738 -0.6880  0.0996
  127TIP3    H1  338   7.054   5.738   2.216  0.4305 -0.1926  0.2531
  127TIP3    H2  339   7.185   5.669   2.186  0.2500 -0.6496  0.5031
  128TIP3   OH2  340   7.633   2.640   5.319  0.0383  0.3777  0.5539
  128TIP3    H1  341   7.713   2.587   5.321 -0.7921 -0.9089  1.1467
  128TIP3    H2  342   7.625   2.667   5.228 -0.5506 -2.2431 -0.2687
  129TIP3   OH2  343   4.341   6.103   1.608  0.6699  0.1516 -0.3197
  129TIP3    H1  344   4.354   6.107   1.513  0.1569 -1.7010 -0.4976
  129TIP3    H2  345   4.367   6.014   1.632  1.8891  0.9432  1.4729
  130TIP3   OH2  346   7.765   7.545   3.657 -0.4604 -0.0987 -0.1294
  130TIP3    H1  347   7.693   7.488   3.628 -2.1511  1.8385  0.0579
  130TIP3    H2  348   7.727   7.633   3.660  2.0678  1.1112 -0.5041
  131TIP3   OH2  349   0.273   2.691   3.510  0.6129  0.1898  0.4341
  131TIP3    H1  350   0.221   2.639   3.449  1.8050 -1.0412  0.4162
  131TIP3    H2  351   0.269   2.780   3.475 -2.0888  0.3376  0.8866
  132TIP3   OH2  352   7.517   3.441   2.992  0.0915 -0.6279  0.2576
  132TIP3    H1  353   7.495   3.358   3.036 -0.1438 -0.2598  0.8401
  132TIP3    H2  354   7.612   3.443   2.992  0.1357 -1.6157 -1.1214
  133TIP3   OH2  355   2.946   5.831   6.696  0.2304  0.0431 -0.0779
  133TIP3    H1  356   3.002   5.896   6.654  1.9903 -0.6792  1.0319
  133TIP3    H2  357   2.922   5.771   6.626  0.5294  0.5783 -0.6492
  134TIP3   OH2  358   3.620   5.677   6.335 -0.2568  0.0041 -0.1144
  134TIP3    H1  359   3.675   5.607   6.370  1.5219  1.2253 -0.3092
  134TIP3    H2  360   3.649   5.756   6.382 -1.3476  0.8120 -0.7507
  135TIP3   OH2  361   5.522   2.273   1.898  0.0630 -0.2963  0.2740
  135TIP3    H1  362   5.478   2.276   1.813 -0.9487 -0.8668  0.7509
  135TIP3    H2  363   5.476   2.338   1.951  0.2081 -0.4533  0.5939
  136TIP3   OH2  364   4.717   7.024   0.355 -0.0820  0.7006  0.0033
  136TIP3    H1  365   4.805   7.001   0.327 -0.2354 -2.3099  1.5827
  136TIP3    H2  366   4.722   7.118   0.374  2.5674  0.7665 -0.6280
  137TIP3   OH2  367   2.796   4.478   3.394 -0.5398  0.0871 -0.0882
  137TIP3    H1  368   2.835   4.426   3.464 -0.7464 -2.0551 -1.4666
  137TIP3    H2  369   2.705   4.490   3.421 -0.0782  1.2680  1.0452
  138TIP3   OH2  370   4.484   3.655   2.290  0.2335 -0.1255  0.5883
  138TIP3    H1  371   4.392   3.630   2.285  0.3983 -0.5547 -1.2785
  138TIP3    H2  372   4.485   3.747   2.264  0.4741 -0.6304 -1.3623
  139TIP3   OH2  373   8.026   2.345   4.280 -0.1430 -0.5765  0.5742
  139TIP3    H1  374   8.081   2.315   4.352  0.1970 -0.5886  0.3142
  139TIP3    H2  375   7.988   2.265   4.244 -0.1439 -0.5895  0.6037
  140TIP3   OH2  376   8.127   6.200   4.478  0.3323  0.2493  0.1897
  140TIP3    H1  377   8.146   6.183   4.386 -3.0342 -1.0666 -0.4092
  140TIP3    H2  378   8.119   6.295   4.484 -0.6400  0.2726 -1.1738
  141TIP3   OH2  379   6.661   1.327   4.963  0.3392 -0.0226  0.2813
  141TIP3    H1  380   6.685   1.388   4.894  1.2942 -0.6484  0.0437
  141TIP3    H2  381   6.655   1.242   4.919  2.8792 -0.7970  1.2418
  142TIP3   OH2  382   3.812   1.497   1.017  0.1307  0.1903 -0.1605
  142TIP3    H1  383   3.856   1.504   0.933 -0.1179 -2.1491 -0.5503
  142TIP3    H2  384   3.730   1.451   0.998 -0.9907  1.5567  1.0563
  143TIP3   OH2  385   3.021   4.357   5.359 -0.3285  0.1001 -0.2215
  143TIP3    H1  386   2.980   4.320   5.438  0.5600  0.3843  0.3859
  143TIP3    H2  387   3.064   4.283   5.317  0.3259  0.1824  0.2860
  144TIP3   OH2  388   6.284   7.636   5.869 -0.2015 -0.0403 -0.0636
  144TIP3    H1  389   6.247   7.565   5.921 -0.5652 -0.5376 -0.9818
  144TIP3    H2  390   6.293   7.708   5.931 -1.1924 -0.4226  0.5505
  145TIP3   OH2  391   6.019   2.150   3.607  0.2166  0.2940 -0.4800
  145TIP3    H1  392   6.028   2.081   3.673  0.4752  0.8513  0.0682
  145TIP3    H2  393   5.926   2.174   3.611  0.0185 -0.3268 -0.9962
  146TIP3   OH2  394   2.773   4.599   2.030 -0.1807 -0.0950 -0.3810
  146TIP3    H1  395   2.787   4.658   2.103 -0.8255 -0.7626  0.3021
  146TIP3    H2  396   2.689   4.556   2.049 -0.5708  0.0116 -1.7127
  147TIP3   OH2  397   7.617   5.493   6.802  0.3521  0.5126  0.4673
  147TIP3    H1  398   7.679   5.429   6.769 -0.6496 -0.6791  0.7923
  147TIP3    H2  399   7.552   5.503   6.732 -0.7395 -0.5905  1.2773
  148TIP3   OH2  400   1.640   7.680   3.659  0.2117 -0.1071  0.1952
  148TIP3    H1  401   1.659   7.729   3.579  0.1154  1.3597  1.0239
  148TIP3    H2  402   1.683   7.730   3.728  0.4565 -1.4496  1.0556
  149TIP3   OH2  403   3.039   2.040   4.884  0.5724 -0.2664 -0.5668
  149TIP3    H1  404   3.128   2.072   4.899 -0.2121  2.0283 -0.4343
  149TIP3    H2  405   2.987   2.119   4.871 -1.5262 -1.5382 -0.3273
  150TIP3   OH2  406   0.150   6.926   1.562 -0.3219  0.3522 -0.4688
  150TIP3    H1  407   0.182   6.841   1.591  0.4602  0.6684 -0.3706
  150TIP3    H2  408   0.059   6.928   1.590 -0.5311 -0.7020 -1.0278
  151TIP3   OH2  409   2.970   7.400   2.697 -0.0805  0.2409 -0.1639
  151TIP3    H1  410   2.887   7.414   2.742 -0.2191  2.0479 -0.9150
  151TIP3    H2  411   3.031   7.460   2.740  0.5498 -0.2135 -0.4046
  152TIP3   OH2  412   4.498   1.403   1.352 -0.4112  0.4593  0.3563
  152TIP3    H1  413   4.577   1.360   1.385 -0.5807  1.0158  1.5385
  152TIP3    H2  414   4.527   1.450   1.274  0.0830 -0.5709 -0.1071
  153TIP3   OH2  415   2.948   7.470   5.257  1.1366 -0.1421 -0.0918
  153TIP3    H1  416   2.992   7.527   5.320  0.4144 -0.9245  1.1652
  153TIP3    H2  417   2.857   7.498   5.260  0.7402 -1.4533  0.6804
  154TIP3   OH2  418   5.656   7.212   4.374 -0.3766 -0.0935 -0.0932
  154TIP3    H1  419   5.725   7.198   4.308  0.8340 -1.4308  1.3868
  154TIP3    H2  420   5.604   7.132   4.371 -1.7645  0.7755 -0.9697
  155TIP3   OH2  421   0.218   2.361   1.903  0.5482  0.6473  0.1314
  155TIP3    H1  422   0.198   2.428   1.968 -2.2011  0.3525 -0.3138
  155TIP3    H2  423   0.151   2.372   1.836 -0.4881 -2.9211  0.3666
  156TIP3   OH2  424   7.828   3.172   2.401 -0.1412  0.4230  0.0620
  156TIP3    H1  425   7.812   3.207   2.313  0.2049 -0.2003 -0.2608
  156TIP3    H2  426   7.874   3.242   2.447  1.3249  0.1094 -0.8509
  157TIP3   OH2  427   5.585   1.110   2.689  0.2758  0.0775 -0.2769
  157TIP3    H1  428   5.613   1.064   2.768 -2.3395 -0.6255  0.3350
  157TIP3    H2  429   5.563   1.198   2.720 -0.8891 -0.2420 -0.1573
  158TIP3   OH2  430   7.681   0.699   4.409 -0.1326  0.2172  0.3902
  158TIP3    H1  431   7.661   0.786   4.442  0.7069  1.4694 -2.1541
  158TIP3    H2  432   7.598   0.667   4.374 -0.1575  0.5656  0.1278
  159TIP3   OH2  433   2.033   1.029   6.074 -0.2062  0.3299  0.3621
  159TIP3    H1  434   1.995   0.941   6.066  1.6934 -0.4532 -0.7561
  159TIP3    H2  435   2.059   1.035   6.166  0.7457 -0.7959  0.1864
  160TIP3   OH2  436   1.288   0.187   6.092 -0.2408  0.0092 -0.3516
  160TIP3    H1  437   1.256   0.276   6.080  2.1175  1.2465  1.6448
  160TIP3    H2  438   1.339   0.169   6.013  0.8281  1.2447  0.0105
  161TIP3   OH2  439   5.066   4.778   3.761  0.3635 -0.4461  0.2403
  161TIP3    H1  440   5.146   4.737   3.728  0.6698  1.3675 -1.4569
  161TIP3    H2  441   5.090   4.814   3.846  1.1376 -0.5739  0.0811
  162TIP3   OH2  442   1.395   7.186   4.710 -0.2648  0.0829 -0.3230
  162TIP3    H1  443   1.344   7.113   4.674 -0.4904 -1.1243  2.2197
  162TIP3    H2  444   1.334   7.260   4.712 -0.3702  0.0703 -1.8869
  163TIP3   OH2  445   7.156   7.463   5.266 -0.5652  0.4081 -0.3155
  163TIP3    H1  446   7.187   7.379   5.300  0.5195  0.7579 -0.4057
  163TIP3    H2  447   7.062   7.463   5.283 -0.3713 -0.2845  0.8448
  164TIP3   OH2  448   7.880   4.736   0.817  0.1838 -0.1007  0.1530
  164TIP3    H1  449   7.817   4.739   0.745 -0.3534  0.8409  0.6444
  164TIP3    H2  450   7.880   4.825   0.853 -0.5012 -0.8435  2.1039
  165TIP3   OH2  451   4.195   2.237   6.231  0.2176 -0.2425 -0.3498
  165TIP3    H1  452   4.239   2.215   6.313 -0.0282 -1.1652 -0.4553
  165TIP3    H2  453   4.115   2.186   6.233 -0.7508  1.2265 -0.2784
  166TIP3   OH2  454   6.442   3.247   3.480  0.1891 -0.3120  0.4825
  166TIP3    H1  455   6.363   3.289   3.512  1.2661  1.1719  1.3249
  166TIP3    H2  456   6.490   3.222   3.559  1.2247  0.1389  0.0156
  167TIP3   OH2  457   5.099   4.592   0.385 -0.1798 -0.1515  0.2322
  167TIP3    H1  458   5.116   4.502   0.359 -1.2746 -1.0847  2.4953
  167TIP3    H2  459   5.185   4.635   0.384  0.4345 -1.3690 -0.3137
  168TIP3   OH2  460   6.686   3.887   1.874  0.1033 -0.2653 -0.1006
  168TIP3    H1  461   6.644   3.932   1.948  0.8243  0.1945  0.0376
  168TIP3    H2  462   6.616   3.833   1.836 -0.7071  0.7249 -0.0713
  169TIP3   OH2  463   5.075   5.513   1.051  0.4075 -0.2593 -0.4337
  169TIP3    H1  464   5.016   5.575   1.093  0.7582 -0.3923  0.2586
  169TIP3    H2  465   5.073   5.538   0.958 -0.7189 -0.2586 -0.4243
  170TIP3   OH2  466   0.311   7.060   6.280  0.0444 -0.2336  0.1277
  170TIP3    H1  467   0.292   7.080   6.188  0.5652  0.1677  0.1010
  170TIP3    H2  468   0.257   7.122   6.329 -1.0029 -1.1143  0.1254
  171TIP3   OH2  469   2.301   2.457   2.650 -0.3091 -0.8998 -0.2790
  171TIP3    H1  470   2.349   2.437   2.570 -1.4059 -0.0170 -1.1852
  171TIP3    H2  471   2.341   2.537   2.683 -0.5910 -0.6208 -0.5935
  172TIP3   OH2  472   3.193   2.946   5.953 -0.1593  0.3366 -0.1367
  172TIP3    H1  473   3.138   3.002   5.898 -0.4399 -0.4186 -0.6603
  172TIP3    H2  474   3.261   2.913   5.894  0.5867  0.8980  0.3979
  173TIP3   OH2  475   6.602   3.523   3.507 -0.7461  0.1169  0.1474
  173TIP3    H1  476   6.677   3.475   3.541 -0.4198 -1.2144 -2.2876
  173TIP3    H2  477   6.527   3.465   3.523 -0.3918 -1.2383 -2.5224
  174TIP3   OH2  478   7.085   6.103   3.676 -0.5273 -0.3445  0.0715
  174TIP3    H1  479   7.016   6.064   3.622 -0.3460 -2.4167  1.2073
  174TIP3    H2  480   7.138   6.029   3.705  1.6020  1.0859  0.0747
  175TIP3   OH2  481   2.902   1.575   3.009  0.9004 -0.0862  0.5156
  175TIP3    H1  482   2.962   1.559   3.082 -0.5741  0.7448  1.9714
  175TIP3    H2  483   2.931   1.660   2.973  1.0778 -0.0629  0.7098
  176TIP3   OH2  484   1.859   2.287   5.473 -0.4613 -0.5036  0.5238
  176TIP3    H1  485   1.879   2.231   5.549 -0.5882 -2.5194 -0.8387
  176TIP3    H2  486   1.766   2.305   5.480 -0.7391 -1.7374  0.2189
  177TIP3   OH2  487   4.155   0.387   6.260 -0.0705  0.1871 -0.1588
  177TIP3    H1  488   4.216   0.329   6.305 -0.5769 -0.2018  0.0374
  177TIP3    H2  489   4.123   0.447   6.328  0.3704  0.6318 -0.3380
  178TIP3   OH2  490   8.019   5.099   3.482 -0.6019  0.8029  0.1320
  178TIP3    H1  491   8.059   5.115   3.396  0.9078  0.4879  0.7334
  178TIP3    H2  492   8.062   5.020   3.513  0.8439  2.3075  2.2622
  179TIP3   OH2  493   3.880   4.795   4.527  0.5894  0.4944 -0.5210
  179TIP3    H1  494   3.835   4.713   4.545  1.0719  0.0615 -1.2155
  179TIP3    H2  495   3.812   4.855   4.498 -0.1219  1.0301  2.0092
  180TIP3   OH2  496   0.952   3.586   0.494 -0.2041 -0.2172 -0.6821
  180TIP3    H1  497   1.003   3.605   0.416  0.3675  0.0226 -0.2599
  180TIP3    H2  498   0.875   3.539   0.462 -0.0583  0.0210 -1.3999
  181TIP3   OH2  499   6.016   0.664   4.130  0.4650 -0.3101  0.5043
  181TIP3    H1  500   5.989   0.740   4.181 -0.9621 -1.1066  0.9844
  181TIP3    H2  501   6.065   0.610   4.191  1.9489  0.4442  0.0214
  182TIP3   OH2  502   1.590   5.443   2.075 -0.1617  0.2008 -0.3124
  182TIP3    H1  503   1.643   5.369   2.046  0.0116  0.1907  0.0303
  182TIP3    H2  504   1.528   5.406   2.137  0.4221  0.4643  0.4465
  183TIP3   OH2  505   5.585   0.071   3.790  1.0463  0.0416 -0.0945
  183TIP3    H1  506   5.593   0.050   3.883  2.2896  0.9516  0.0200
  183TIP3    H2  507   5.521   0.143   3.787  0.2980 -0.6051 -0.0523
  184TIP3   OH2  508   5.172   5.945   1.985  0.4614  0.2207  0.5780
  184TIP3    H1  509   5.189   6.032   2.023  1.0489  0.5190 -0.3286
  184TIP3    H2  510   5.172   5.886   2.061 -1.8129  1.2155  1.4589
  185TIP3   OH2  511   8.234   0.858   1.088 -0.2643  0.2411  0.0565
  185TIP3    H1  512   8.321   0.885   1.120 -0.2585  1.7429 -1.1333
  185TIP3    H2  513   8.240   0.866   0.993 -0.9230 -2.1680 -0.2461
  186TIP3   OH2  514   2.331   5.487   1.355  0.1727 -0.6234 -0.0075
  186TIP3    H1  515   2.373   5.564   1.394 -0.4140 -0.0885 -0.4167
  186TIP3    H2  516   2.386   5.414   1.383  1.7989  0.1155 -1.0582
  187TIP3   OH2  517   6.517   0.132   4.886 -0.3704  0.5799 -0.0808
  187TIP3    H1  518   6.468   0.214   4.882 -0.1500  0.8360  1.8665
  187TIP3    H2  519   6.604   0.157   4.916 -0.1005 -0.3043 -0.0859
  188TIP3   OH2  520   6.627   6.360   3.219 -0.2948  0.1920  0.2419
  188TIP3    H1  521   6.667   6.441   3.250  0.1349  0.3681 -0.7491
  188TIP3    H2  522   6.620   6.371   3.124 -0.0564 -1.0095  0.0720
  189TIP3   OH2  523   4.133   5.389   3.061 -0.0079  0.0179  0.0465
  189TIP3    H1  524   4.218   5.344   3.059 -0.2731 -0.5812  1.2013
  189TIP3    H2  525   4.142   5.459   2.997  1.4929  0.1993  0.4043
  190TIP3   OH2  526   2.999   2.657   4.628 -0.3405  0.6865 -0.1454
  190TIP3    H1  527   2.963   2.578   4.587 -1.4405 -0.1528  2.2367
  190TIP3    H2  528   2.957   2.729   4.583 -3.4680 -0.2404  1.0641
  191TIP3   OH2  529   2.527   5.786   2.680 -0.3151 -0.0799 -0.0829
  191TIP3    H1  530   2.548   5.813   2.590  0.4000  0.2587  0.1824
  191TIP3    H2  531   2.603   5.810   2.731  0.0127 -1.8288  0.3247
  192TIP3   OH2  532   1.411   4.080   0.898 -0.0474  0.4612 -0.0519
  192TIP3    H1  533   1.332   4.055   0.852  0.6091 -0.7933 -0.5351
  192TIP3    H2  534   1.381   4.134   0.971 -1.3316  0.0382 -0.2552
  193TIP3   OH2  535   5.574   4.357   0.076 -0.4755 -0.0150  0.2504
  193TIP3    H1  536   5.518   4.382   0.003 -1.8568 -1.5471  0.7175
  193TIP3    H2  537   5.617   4.276   0.047 -2.4557 -1.7160  1.6905
  194TIP3   OH2  538   1.711   0.955   6.470 -0.3196 -0.2197 -0.6525
  194TIP3    H1  539   1.746   0.866   6.460 -1.1924 -0.4848 -1.5358
  194TIP3    H2  540   1.756   0.990   6.547 -0.8920 -1.8888  0.4881
  195TIP3   OH2  541   3.373   4.485   0.918  0.1304 -0.3119 -0.1235
  195TIP3    H1  542   3.391   4.545   0.845 -0.3273  0.2085  0.1846
  195TIP3    H2  543   3.290   4.443   0.894  0.2179 -0.4855 -0.1211
  196TIP3   OH2  544   8.277   6.571   3.212 -0.4486 -0.5046 -0.1462
  196TIP3    H1  545   8.262   6.660   3.182 -2.0241  0.1148  2.2371
  196TIP3    H2  546   8.191   6.541   3.243  0.0650 -2.8098 -0.7373
  197TIP3   OH2  547   6.459   3.438   3.862  0.0560  0.5729  0.5626
  197TIP3    H1  548   6.484   3.453   3.953 -0.4866 -0.7186  0.9471
  197TIP3    H2  549   6.431   3.524   3.831 -0.3990  0.9076  1.8224
  198TIP3   OH2  550   7.303   6.677   3.641  0.3084 -0.2532 -0.7017
  198TIP3    H1  551   7.266   6.622   3.571  0.7937 -1.0287 -0.3625
  198TIP3    H2  552   7.336   6.614   3.705 -0.0841  0.4473  0.2061
  199TIP3   OH2  553   6.971   1.547   4.253 -0.6062 -0.0934  0.1873
  199TIP3    H1  554   7.054   1.592   4.239  0.0747 -1.3194  0.1089
  199TIP3    H2  555   6.908   1.617   4.269  0.1370  0.9500 -1.2334
  200TIP3   OH2  556   5.889   7.265   4.810 -0.0627 -0.2721  0.0041
  200TIP3    H1  557   5.812   7.209   4.796 -1.1961  0.9727  0.9764
  200TIP3    H2  558   5.899   7.313   4.728  0.4884 -1.3755 -0.5842
  201TIP3   OH2  559   5.830   3.054   5.255  0.1052  0.1289 -0.5107
  201TIP3    H1  560   5.884   3.066   5.333 -0.3056 -0.5840 -0.1071
  201TIP3    H2  561   5.891   3.017   5.190  0.3184  0.2017 -0.3552
  202TIP3   OH2  562   4.280   4.510   1.286 -0.0700  0.0328  0.4259
  202TIP3    H1  563   4.267   4.517   1.192  1.9386 -0.9164  0.0224
  202TIP3    H2  564   4.259   4.597   1.320 -0.7772  0.3981 -0.8993
  203TIP3   OH2  565   4.727   2.951   6.628  0.1482 -0.9308  0.1734
  203TIP3    H1  566   4.815   2.990   6.628  0.8123 -2.3001  1.5762
  203TIP3    H2  567   4.671   3.018   6.667  0.7642 -0.4365  0.2307
  204TIP3   OH2  568   6.731   0.563   0.894  0.3059  0.0720 -0.3678
  204TIP3    H1  569   6.641   0.592   0.882  0.5685  0.9781 -0.2492
  204TIP3    H2  570   6.724   0.473   0.925 -0.6258  0.6468  1.2368
  205TIP3   OH2  571   5.913   3.842   5.310 -0.0604  0.4272  0.4925
  205TIP3    H1  572   5.954   3.791   5.240 -0.1421  0.3236  0.5203
  205TIP3    H2  573   5.826   3.863   5.277  0.0742  0.7892  0.3657
  206TIP3   OH2  574   6.392   7.150   2.712 -0.6910 -0.2142  0.1855
  206TIP3    H1  575   6.350   7.135   2.627  1.0919 -1.0307 -0.5962
  206TIP3    H2  576   6.325   7.126   2.776 -1.7495 -0.4999 -0.9739
  207TIP3   OH2  577   0.286   4.276   5.541  0.2889 -0.1701  0.4617
  207TIP3    H1  578   0.356   4.233   5.590 -2.6293 -3.5368  2.1952
  207TIP3    H2  579   0.236   4.324   5.608  1.0379  2.5907 -0.8039
  208TIP3   OH2  580   3.813   3.120   0.924 -0.0854 -0.1163  0.0865
  208TIP3    H1  581   3.733   3.173   0.917  1.9111  3.3237  0.8792
  208TIP3    H2  582   3.847   3.116   0.835  0.4701  1.3360  0.1944
  209TIP3   OH2  583   0.828   1.477   4.062  0.7092 -0.1068 -0.0591
  209TIP3    H1  584   0.883   1.534   4.115  1.5984 -0.2311 -0.8251
  209TIP3    H2  585   0.848   1.388   4.092 -0.6725 -0.0497  1.1316
  210TIP3   OH2  586   4.448   6.782   5.423  0.1623  0.4448 -0.2658
  210TIP3    H1  587   4.398   6.864   5.427 -1.5294 -0.5885  1.1124
  210TIP3    H2  588   4.482   6.779   5.333 -0.8792  1.9922 -0.7506
  211TIP3   OH2  589   7.307   2.469   0.885  0.0824  0.2406 -0.2480
  211TIP3    H1  590   7.378   2.448   0.945  0.3634 -0.2400 -0.7401
  211TIP3    H2  591   7.302   2.564   0.885  1.0187  0.2986 -0.5441
  212TIP3   OH2  592   2.304   6.452   3.311 -0.7798 -0.2852  0.2462
  212TIP3    H1  593   2.223   6.494   3.283 -0.2437  0.7031  0.0895
  212TIP3    H2  594   2.329   6.395   3.239 -0.7497  0.2813 -0.1960
  213TIP3   OH2  595   7.697   4.800   6.033  0.1344  0.7921  0.3283
  213TIP3    H1  596   7.689   4.895   6.019 -0.7979  0.6355 -0.2647
  213TIP3    H2  597   7.791   4.784   6.031  0.2958  1.6750  0.2020
  214TIP3   OH2  598   0.925   0.119   1.134  0.7914 -0.1148  0.0666
  214TIP3    H1  599   0.943   0.199   1.183  2.1992 -0.9409  0.9439
  214TIP3    H2  600   0.853   0.143   1.075 -1.3668  0.7755  2.8480
  215TIP3   OH2  601   4.597   3.072   2.006 -0.2296  0.0341 -0.4938
  215TIP3    H1  602   4.543   3.024   1.942  1.2979 -0.4221 -1.5118
  215TIP3    H2  603   4.534   3.121   2.059 -1.7362 -1.6333 -0.6398
  216TIP3   OH2  604   6.296   6.499   3.781 -0.0250  0.0775  0.1310
  216TIP3    H1  605   6.235   6.499   3.855 -0.2424  1.1100 -0.0428
  216TIP3    H2  606   6.260   6.433   3.721 -1.4369  1.1964 -0.3171
  217TIP3   OH2  607   6.016   6.390   1.594 -0.1100 -0.5319  0.4091
  217TIP3    H1  608   5.978   6.373   1.508  0.6958 -0.9493  0.1276
  217TIP3    H2  609   6.048   6.305   1.624  1.6417 -0.0209  0.1163
  218TIP3   OH2  610   4.765   1.224   2.061 -0.6130 -0.3134  0.1487
  218TIP3    H1  611   4.789   1.180   2.143  0.1298 -0.7985 -0.3185
  218TIP3    H2  612   4.669   1.223   2.060 -0.6586  0.3539  1.3595
  219TIP3   OH2  613   4.420   1.728   5.179 -0.1571  0.1569 -0.0446
  219TIP3    H1  614   4.332   1.731   5.141 -0.3620  1.9210  0.4781
  219TIP3    H2  615   4.408   1.757   5.269  0.8532 -0.3966  0.2798
  220TIP3   OH2  616   2.819   5.825   0.861  0.4047 -0.3191 -0.0783
  220TIP3    H1  617   2.795   5.917   0.856 -3.2699 -1.0837  0.7682
  220TIP3    H2  618   2.807   5.793   0.772  2.2582  0.0531 -0.5074
  221TIP3   OH2  619   3.638   1.218   4.301 -0.2896  0.3422 -0.0279
  221TIP3    H1  620   3.602   1.281   4.238  0.1339  0.3687 -0.2435
  221TIP3    H2  621   3.704   1.170   4.252 -0.4175 -0.0838  0.2156
  222TIP3   OH2  622   3.228   3.427   1.035 -0.0661  0.1442 -0.4692
  222TIP3    H1  623   3.216   3.408   0.942 -1.1691 -0.0322 -0.2975
  222TIP3    H2  624   3.176   3.506   1.051 -0.7632 -0.4403  0.2247
  223TIP3   OH2  625   4.708   0.808   5.626  0.4994  0.0460 -0.3073
  223TIP3    H1  626   4.787   0.796   5.678 -0.0154 -1.2732  0.1993
  223TIP3    H2  627   4.637   0.812   5.691  0.1556  1.5527 -0.7242
  224TIP3   OH2  628   3.408   3.696   4.011 -0.3612  0.0626 -0.1600
  224TIP3    H1  629   3.380   3.730   4.096 -0.1836 -0.9724  0.3237
  224TIP3    H2  630   3.469   3.761   3.978  0.7825 -0.2666  1.2151
  225TIP3   OH2  631   1.418   0.833   1.600 -0.5110  0.0653 -0.2457
  225TIP3    H1  632   1.448   0.797   1.684 -1.5080 -2.3603 -0.8470
  225TIP3    H2  633   1.331   0.868   1.619 -0.1666  0.7950  0.0138
  226TIP3   OH2  634   6.243   5.152   6.497  0.2879 -0.3796 -0.0195
  226TIP3    H1  635   6.238   5.125   6.589  0.7650  1.1983  0.5073
  226TIP3    H2  636   6.318   5.105   6.462  0.6788 -0.2848  0.6704
  227TIP3   OH2  637   4.140   1.592   2.832 -0.5917  0.1469 -0.5543
  227TIP3    H1  638   4.053   1.612   2.797 -0.7917 -0.1412 -0.2261
  227TIP3    H2  639   4.126   1.574   2.924 -0.0582  0.9177 -0.3129
  228TIP3   OH2  640   8.207   3.227   3.750  0.5049 -0.1096  0.0545
  228TIP3    H1  641   8.137   3.274   3.704  1.9075  0.3795 -1.6591
  228TIP3    H2  642   8.196   3.135   3.723  0.2308 -0.1238  0.2037
  229TIP3   OH2  643   6.499   2.924   4.012  0.2885  0.4522  0.1143
  229TIP3    H1  644   6.483   2.863   3.940  2.3072  0.0739 -0.0785
  229TIP3    H2  645   6.448   2.888   4.085 -0.4978 -0.0714 -0.6637
  230TIP3   OH2  646   3.788   3.508   4.676  0.1087  0.0395 -0.1081
  230TIP3    H1  647   3.766   3.586   4.727  0.5508 -0.0904  0.2980
  230TIP3    H2  648   3.875   3.484   4.708  0.1908 -0.3149 -0.6052
  231TIP3   OH2  649   6.708   0.114   3.651  0.5681 -0.3804 -0.2524
  231TIP3    H1  650   6.766   0.055   3.698  0.9736 -0.2894 -0.6247
  231TIP3    H2  651   6.766   0.181   3.615  0.1852 -0.0769 -0.3167
  232TIP3   OH2  652   5.720   6.891   6.500 -0.2323 -0.4543 -0.1323
  232TIP3    H1  653   5.767   6.887   6.584 -0.5326  1.9933  0.2191
  232TIP3    H2  654   5.636   6.847   6.518  0.3376 -1.3922  0.3510
  233TIP3   OH2  655   4.154   3.935   5.472  0.2266 -0.4657  0.1421
  233TIP3    H1  656   4.148   3.855   5.523 -0.4616 -0.9333 -0.6507
  233TIP3    H2  657   4.214   3.913   5.400  2.3669  0.6204  1.4870
  234TIP3   OH2  658   3.726   3.656   3.456 -0.0147 -0.8603  0.5442
  234TIP3    H1  659   3.719   3.738   3.506 -0.7710 -0.9818  0.6477
  234TIP3    H2  660   3.781   3.600   3.510  2.1182  0.2197 -0.4011
  235TIP3   OH2  661   6.537   3.566   4.658 -0.0341 -0.6730 -0.4080
  235TIP3    H1  662   6.616   3.514   4.647 -0.1603 -1.1141  0.6682
  235TIP3    H2  663   6.569   3.655   4.677  0.1901 -0.6722 -0.7768
  236TIP3   OH2  664   5.867   7.043   3.876  0.0414  0.1965 -0.0538
  236TIP3    H1  665   5.772   7.032   3.879  0.1526 -0.7865  2.6240
  236TIP3    H2  666   5.880   7.119   3.820 -2.3697  0.7573  0.0202
  237TIP3   OH2  667   3.192   0.129   3.942 -0.0401 -0.0071  0.2087
  237TIP3    H1  668   3.267   0.085   3.902 -0.1260  1.0243 -1.1543
  237TIP3    H2  669   3.145   0.059   3.989  0.7890 -1.0008 -0.4108
  238TIP3   OH2  670   7.539   7.234   1.800 -0.5276  0.2528 -0.7580
  238TIP3    H1  671   7.570   7.325   1.796  1.9763 -0.5340 -1.5461
  238TIP3    H2  672   7.619   7.182   1.796 -1.8419 -2.0117  0.4808
  239TIP3   OH2  673   2.684   3.024   4.762 -0.1379  0.1826 -0.0782
  239TIP3    H1  674   2.627   3.066   4.698 -0.6476 -1.3532 -0.6763
  239TIP3    H2  675   2.767   3.011   4.715  0.3286  1.2911  0.3968
  240TIP3   OH2  676   0.495   4.326   2.933  0.7078  0.0236  0.0616
  240TIP3    H1  677   0.577   4.356   2.895  0.5358 -0.9288 -1.1069
  240TIP3    H2  678   0.481   4.239   2.895 -1.0657  0.3555 -0.1243
  241TIP3   OH2  679   1.080   7.181   6.704 -0.6349 -0.2124 -0.0892
  241TIP3    H1  680   1.100   7.219   6.619 -0.5828  1.1480  0.5014
  241TIP3    H2  681   1.163   7.184   6.752 -0.9211  0.1381  0.4007
  242TIP3   OH2  682   4.885   0.258   2.156  0.4930  0.2719 -0.1232
  242TIP3    H1  683   4.939   0.252   2.235  1.1241  0.0014 -0.5678
  242TIP3    H2  684   4.795   0.260   2.189  0.7841  3.9528  0.8184
  243TIP3   OH2  685   7.877   7.110   6.739 -0.5432 -0.1039 -0.3100
  243TIP3    H1  686   7.793   7.156   6.745 -0.1044  0.8331 -1.0443
  243TIP3    H2  687   7.857   7.021   6.766 -1.7440  0.1382 -0.3133
  244TIP3   OH2  688   2.272   3.859   1.834 -0.5117 -0.8122  0.4234
  244TIP3    H1  689   2.340   3.791   1.832  0.4737  0.1169  0.9895
  244TIP3    H2  690   2.262   3.886   1.743  3.1156  2.0509  0.6313
  245TIP3   OH2  691   0.911   5.043   2.825 -0.1191 -0.4827 -0.4624
  245TIP3    H1  692   0.941   5.039   2.734  0.9425 -0.2190 -0.1442
  245TIP3    H2  693   0.947   4.964   2.866 -0.5751 -0.5918 -0.2641
  246TIP3   OH2  694   3.669   3.843   6.566  0.0309  0.8797  0.0306
  246TIP3    H1  695   3.709   3.870   6.483  1.9397  0.7614  0.8721
  246TIP3    H2  696   3.656   3.749   6.557  1.4464  0.6440  0.3350
  247TIP3   OH2  697   7.611   0.384   5.158  0.0479 -0.6852  0.1682
  247TIP3    H1  698   7.577   0.441   5.227  0.0490  1.5407 -1.5508
  247TIP3    H2  699   7.706   0.382   5.173 -0.0036 -0.6511  0.5119
  248TIP3   OH2  700   1.348   5.714   6.622 -0.3955 -0.2206  0.4550
  248TIP3    H1  701   1.404   5.665   6.561  0.6008  1.1422  0.2306
  248TIP3    H2  702   1.259   5.695   6.592 -0.0172 -1.3083 -0.0566
  249TIP3   OH2  703   6.392   5.220   0.684 -0.7379  0.4019 -0.7422
  249TIP3    H1  704   6.418   5.245   0.773  2.0896 -0.6552 -1.1668
  249TIP3    H2  705   6.301   5.190   0.693 -0.2367 -0.5788  2.0153
  250TIP3   OH2  706   2.766   4.124   0.151  0.1169  0.2080 -0.8916
  250TIP3    H1  707   2.694   4.071   0.186  1.4421 -1.4603 -0.6134
  250TIP3    H2  708   2.722   4.188   0.094 -1.8175  1.1051  1.4362
  251TIP3   OH2  709   4.063   1.683   2.081 -0.0151 -0.2094 -0.0164
  251TIP3    H1  710   4.148   1.717   2.052  0.1731 -1.2731 -0.7834
  251TIP3    H2  711   4.084   1.620   2.150 -0.2163 -0.1490  0.1011
  252TIP3   OH2  712   2.729   6.120   4.613  0.5104 -0.2107  0.1193
  252TIP3    H1  713   2.753   6.181   4.544 -0.8835  0.6151  0.3257
  252TIP3    H2  714   2.633   6.122   4.615  0.4889 -1.0776  1.3168
  253TIP3   OH2  715   1.054   3.165   2.630 -0.1800  0.4232  0.0271
  253TIP3    H1  716   0.990   3.094   2.634  0.1066  0.1271 -0.5497
  253TIP3    H2  717   1.121   3.141   2.694 -1.5408  1.6546  2.0123
  254TIP3   OH2  718   0.534   5.329   5.193  0.4255  0.2649 -0.4178
  254TIP3    H1  719   0.480   5.262   5.151  0.0062  0.2404  0.1468
  254TIP3    H2  720   0.492   5.412   5.168 -0.3753  0.2136  0.6767
  255TIP3   OH2  721   5.384   4.321   6.432 -0.0635 -0.2422  0.3447
  255TIP3    H1  722   5.334   4.256   6.383 -1.2375 -0.9352  2.3746
  255TIP3    H2  723   5.318   4.372   6.479  1.0265 -0.0875  1.7654
  256TIP3   OH2  724   2.895   3.864   6.523  0.4840  0.0322  0.1122
  256TIP3    H1  725   2.982   3.881   6.559  1.4254 -1.1019 -1.4827
  256TIP3    H2  726   2.853   3.951   6.519  1.6633  0.6412  0.5960
  257TIP3   OH2  727   1.088   1.837   2.625  0.3920 -0.1734 -0.0275
  257TIP3    H1  728   1.144   1.763   2.649  0.1444  0.0248  1.1852
  257TIP3    H2  729   1.111   1.906   2.687  0.0035  0.4852 -0.6074
  258TIP3   OH2  730   1.353   4.461   3.965 -0.0824  0.1587  0.4487
  258TIP3    H1  731   1.402   4.379   3.967  1.1499  0.7657 -1.6133
  258TIP3    H2  732   1.414   4.526   4.001  0.5625  0.8479 -1.7453
  259TIP3   OH2  733   4.975   3.852   0.309  0.2712 -0.0737 -0.5355
  259TIP3    H1  734   4.996   3.921   0.372  2.5567  0.6497 -1.9868
  259TIP3    H2  735   4.990   3.771   0.356  1.2042  0.4473  0.0950
  260TIP3   OH2  736   3.533   6.800   3.194  0.2589  0.1668  0.6727
  260TIP3    H1  737   3.556   6.795   3.101  0.9058  0.9248  0.7801
  260TIP3    H2  738   3.452   6.851   3.196 -1.0765 -1.8341  0.3544
  261TIP3   OH2  739   2.603   4.780   2.468  0.8658  0.0344 -0.0923
  261TIP3    H1  740   2.534   4.769   2.534  0.8732 -0.3001 -0.1350
  261TIP3    H2  741   2.588   4.708   2.406  0.8424  0.3619 -0.4701
  262TIP3   OH2  742   5.517   3.066   4.082 -0.1533  0.5405 -0.4661
  262TIP3    H1  743   5.450   3.094   4.145  1.3732 -0.8334  1.9190
  262TIP3    H2  744   5.596   3.112   4.108  0.4134  0.3586 -1.7776
  263TIP3   OH2  745   0.540   5.919   5.506 -0.4912  0.6594 -0.6916
  263TIP3    H1  746   0.525   5.833   5.465  0.0630 -0.3422  1.0860
  263TIP3    H2  747   0.461   5.934   5.559  0.8628 -0.5015  1.8082
  264TIP3   OH2  748   3.637   2.672   3.896 -0.1899  0.7574  0.3872
  264TIP3    H1  749   3.586   2.624   3.831  2.8291 -1.0762 -0.8666
  264TIP3    H2  750   3.588   2.662   3.977 -2.0838 -0.3760 -0.8242
  265TIP3   OH2  751   7.834   4.473   0.925  0.4510 -0.3369 -0.0429
  265TIP3    H1  752   7.738   4.479   0.917  0.5355 -1.4600 -2.9142
  265TIP3    H2  753   7.864   4.563   0.920 -0.4134 -0.0448 -0.1905
  266TIP3   OH2  754   5.023   7.553   5.485 -0.1731  0.3883 -0.2188
  266TIP3    H1  755   4.992   7.537   5.396  0.2656 -0.1227 -0.2827
  266TIP3    H2  756   4.964   7.502   5.540  0.2674 -0.2200 -0.3059
  267TIP3   OH2  757   7.405   5.103   2.728  0.4292  0.0693 -0.2763
  267TIP3    H1  758   7.387   5.083   2.820  2.6140 -3.0220 -0.3587
  267TIP3    H2  759   7.500   5.098   2.720  0.2752 -0.1172 -2.7578
  268TIP3   OH2  760   5.379   6.867   1.445  0.6038 -0.4841 -0.4937
  268TIP3    H1  761   5.430   6.948   1.456 -0.8610  0.6037 -1.3619
  268TIP3    H2  762   5.443   6.802   1.415  1.5418  0.7859 -1.3410
  269TIP3   OH2  763   1.817   2.256   3.334  0.8351  0.1027 -0.1120
  269TIP3    H1  764   1.855   2.212   3.258 -0.9650 -2.3230  0.2810
  269TIP3    H2  765   1.722   2.256   3.317  0.3060 -1.1203  2.3739
  270TIP3   OH2  766   7.092   3.361   4.709 -0.4212 -0.3575 -0.0446
  270TIP3    H1  767   7.162   3.383   4.648  2.0099 -1.7091  2.0201
  270TIP3    H2  768   7.062   3.274   4.681 -2.4120  0.7829 -1.7646
  271TIP3   OH2  769   2.780   0.549   2.067 -0.5896 -0.8461  0.5758
  271TIP3    H1  770   2.758   0.616   2.002 -0.4707 -0.3427  1.0468
  271TIP3    H2  771   2.869   0.522   2.045 -0.2469 -0.0961  1.0082
  272TIP3   OH2  772   3.354   7.574   6.644 -0.1460 -0.2230 -0.0741
  272TIP3    H1  773   3.331   7.526   6.564 -1.7605 -0.7427  0.6495
  272TIP3    H2  774   3.382   7.505   6.705  1.3369  0.1965 -0.2379
  273TIP3   OH2  775   4.120   7.561   0.905 -0.4105 -0.3534  0.2968
  273TIP3    H1  776   4.172   7.488   0.872  0.6458  0.5596 -0.1107
  273TIP3    H2  777   4.126   7.628   0.837  2.2325  1.7839  2.4138
  274TIP3   OH2  778   5.339   4.080   3.548  0.0489  0.2949 -0.1739
  274TIP3    H1  779   5.267   4.138   3.570  0.5151 -0.0682  2.7074
  274TIP3    H2  780   5.415   4.137   3.542 -0.0601  0.3807 -0.8046
  275TIP3   OH2  781   7.916   7.657   4.737 -0.4221  0.0401  0.6238
  275TIP3    H1  782   7.868   7.624   4.813 -0.5204  0.2371  0.6486
  275TIP3    H2  783   7.991   7.704   4.774  1.3845 -2.5766  0.5596
  276TIP3   OH2  784   5.474   6.532   6.338  0.9055  0.1301  0.5315
  276TIP3    H1  785   5.427   6.584   6.274 -1.2945 -0.9886  1.1498
  276TIP3    H2  786   5.438   6.444   6.328  2.1209 -0.5445  1.7896
  277TIP3   OH2  787   4.665   3.694   2.495  0.2828 -0.5406  0.1226
  277TIP3    H1  788   4.598   3.675   2.429 -0.0173  1.5392 -0.2667
  277TIP3    H2  789   4.664   3.790   2.502  2.6997 -0.4911  0.6469
  278TIP3   OH2  790   6.256   7.287   2.194 -0.1405  0.0090  0.6473
  278TIP3    H1  791   6.213   7.212   2.154 -0.5528  0.6403 -0.1345
  278TIP3    H2  792   6.323   7.313   2.131 -0.3663  0.6224  0.6517
  279TIP3   OH2  793   4.123   0.398   0.650 -0.0102  0.1942  0.2970
  279TIP3    H1  794   4.042   0.348   0.665  0.3546 -0.2762  0.7024
  279TIP3    H2  795   4.135   0.450   0.730  1.2248 -1.3334  1.1433
  280TIP3   OH2  796   4.580   1.453   3.656  0.2372  0.1344 -0.3658
  280TIP3    H1  797   4.613   1.540   3.630 -0.5451  1.1414  1.7541
  280TIP3    H2  798   4.649   1.417   3.711 -1.4406  1.7904  3.1813
  281TIP3   OH2  799   0.885   3.881   0.386  0.1496 -0.2094  0.1505
  281TIP3    H1  800   0.848   3.838   0.463  1.2012 -3.5317 -1.0159
  281TIP3    H2  801   0.971   3.839   0.374  0.3359  0.7198 -2.3623
  282TIP3   OH2  802   1.395   2.765   4.785  0.1735 -0.7672 -0.4573
  282TIP3    H1  803   1.442   2.772   4.868 -1.8329  0.5925  0.6708
  282TIP3    H2  804   1.388   2.670   4.769 -0.4219 -1.1153  1.5832
  283TIP3   OH2  805   6.431   0.077   5.919  0.0336  0.0395 -0.1294
  283TIP3    H1  806   6.442   0.088   6.014 -0.2074  1.4079 -0.2391
  283TIP3    H2  807   6.373   0.148   5.894 -1.6875 -1.5892 -0.9906
  284TIP3   OH2  808   2.042   5.473   1.022 -0.3565  0.2595 -0.3208
  284TIP3    H1  809   1.947   5.461   1.016 -0.5314  2.1844 -2.1006
  284TIP3    H2  810   2.055   5.516   1.107 -1.0543  0.0562 -0.1008
  285TIP3   OH2  811   6.953   2.761   5.491 -0.4889 -0.6108 -0.1029
  285TIP3    H1  812   7.002   2.825   5.438 -1.9448  1.4968  0.9378
  285TIP3    H2  813   7.015   2.690   5.506  1.3078  0.6351 -1.1566
  286TIP3   OH2  814   7.924   2.314   3.498  0.4108 -0.0278  0.4354
  286TIP3    H1  815   7.898   2.223   3.494  1.4220 -0.2791 -1.3240
  286TIP3    H2  816   7.973   2.321   3.581 -0.7578 -0.7317  1.2165
  287TIP3   OH2  817   3.596   6.778   6.652  0.3791  0.0907 -0.2417
  287TIP3    H1  818   3.514   6.729   6.644  0.6628 -0.5834  0.7006
  287TIP3    H2  819   3.642   6.762   6.570 -1.2253  2.0583 -1.6139
  288TIP3   OH2  820   5.597   3.178   5.127  0.3833  0.3009  0.1213
  288TIP3    H1  821   5.565   3.142   5.044  0.4941 -0.0787  0.2387
  288TIP3    H2  822   5.649   3.107   5.166 -0.1119  0.2792  0.7692
  289TIP3   OH2  823   3.423   4.959   3.737  0.5557 -0.2564 -0.2717
  289TIP3    H1  824   3.416   5.048   3.702  1.4215 -0.3450 -0.6978
  289TIP3    H2  825   3.355   4.910   3.692 -1.2643  0.6049  1.3926
  290TIP3   OH2  826   7.540   3.843   0.709 -0.3922 -0.4252  0.1131
  290TIP3    H1  827   7.499   3.907   0.650  0.5514  0.3390  0.2562
  290TIP3    H2  828   7.484   3.766   0.703 -0.9841  0.0543 -0.8674
  291TIP3   OH2  829   6.909   6.834   4.363 -0.6014  0.5126 -0.0762
  291TIP3    H1  830   6.911   6.823   4.268  0.3557 -2.1840  0.1606
  291TIP3    H2  831   6.991   6.795   4.393 -1.6495 -0.2818  1.9613
  292TIP3   OH2  832   3.534   2.811   5.983  0.3562 -0.2031 -0.0886
  292TIP3    H1  833   3.488   2.868   6.044  0.3581 -0.7021  0.3837
  292TIP3    H2  834   3.614   2.785   6.030  0.8713  0.2428 -0.7013
  293TIP3   OH2  835   0.507   2.013   2.022  0.1920 -0.1665 -0.0024
  293TIP3    H1  836   0.484   1.927   2.057  1.8453 -1.1343 -1.1569
  293TIP3    H2  837   0.575   2.045   2.081 -0.2429  0.2458  0.2780
  294TIP3   OH2  838   2.667   7.375   0.076 -0.2745  1.1566  0.5820
  294TIP3    H1  839   2.732   7.351   0.142 -0.7086  0.4729  0.7654
  294TIP3    H2  840   2.692   7.325  -0.001 -0.3675  1.1776  0.5382
  295TIP3   OH2  841   2.476   2.381   4.134  0.0088 -0.2107  0.0287
  295TIP3    H1  842   2.557   2.361   4.182 -0.4309  0.1614  0.9468
  295TIP3    H2  843   2.420   2.306   4.149 -0.3815  0.1994  0.6747
  296TIP3   OH2  844   4.112   3.353   4.113  0.4845 -0.3134  0.1678
  296TIP3    H1  845   4.040   3.293   4.134 -0.6584  1.2986  1.0756
  296TIP3    H2  846   4.154   3.370   4.197 -0.2655  1.4263  0.2361
  297TIP3   OH2  847   2.855   0.862   4.629  0.0217  0.0659 -0.2037
  297TIP3    H1  848   2.901   0.819   4.701  0.6748 -1.4783 -1.4937
  297TIP3    H2  849   2.768   0.822   4.629  0.4214 -0.8208 -1.0118
  298TIP3   OH2  850   2.799   5.037   6.045 -0.1337  0.2798 -0.0485
  298TIP3    H1  851   2.870   5.005   5.989  0.5274  2.3089 -0.4389
  298TIP3    H2  852   2.720   4.996   6.009  0.4829  0.2503 -1.4260
  299TIP3   OH2  853   5.649   6.602   0.809 -0.0038  0.2773  0.1085
  299TIP3    H1  854   5.570   6.600   0.755  0.9072  0.2893 -1.2778
  299TIP3    H2  855   5.617   6.609   0.898 -1.5561  2.5843 -0.5435
  300TIP3   OH2  856   7.532   1.695   0.720  0.3005  0.7553  0.5412
  300TIP3    H1  857   7.603   1.755   0.741  1.0118 -0.3504  1.4642
  300TIP3    H2  858   7.574   1.609   0.717 -0.9921  0.0765  1.1365
  301TIP3   OH2  859   2.648   7.576   5.493  0.2618 -0.1814  0.2853
  301TIP3    H1  860   2.597   7.656   5.509  1.5189  0.2946  2.2636
  301TIP3    H2  861   2.657   7.572   5.397  0.7730  2.4804  0.1432
  302TIP3   OH2  862   6.196   1.824   6.620  0.3738 -0.8380 -0.0958
  302TIP3    H1  863   6.230   1.883   6.553 -1.0873  0.8485  0.5583
  302TIP3    H2  864   6.223   1.864   6.703  1.4843 -2.4699  0.3673
  303TIP3   OH2  865   1.696   7.459   3.127  0.2780 -0.4995 -0.3001
  303TIP3    H1  866   1.738   7.475   3.042 -0.1105 -1.7350 -0.7535
  303TIP3    H2  867   1.733   7.525   3.185  0.4829  0.4275 -1.4512
  304TIP3   OH2  868   5.546   2.958   6.516 -0.1932  0.0314  0.0681
  304TIP3    H1  869   5.613   2.894   6.491  1.1224  1.4115 -0.1053
  304TIP3    H2  870   5.487   2.963   6.440  0.4018 -0.0973 -0.4060
  305TIP3   OH2  871   7.794   2.602   0.183  0.0083 -0.0351  0.2093
  305TIP3    H1  872   7.709   2.640   0.206 -0.0308 -0.2364  0.4049
  305TIP3    H2  873   7.784   2.575   0.092  1.1500  3.5528 -1.1504
  306TIP3   OH2  874   1.626   0.378   5.839 -0.0455  0.2086  0.4983
  306TIP3    H1  875   1.557   0.410   5.781  0.7006 -0.2167 -0.6516
  306TIP3    H2  876   1.691   0.340   5.781  0.7238 -0.2569  1.6240
  307TIP3   OH2  877   4.489   2.056   6.434 -0.2110 -0.6266 -0.0117
  307TIP3    H1  878   4.447   2.074   6.517 -1.0399  3.1582 -1.0990
  307TIP3    H2  879   4.418   2.033   6.374 -0.8229  3.7692 -1.3246
  308TIP3   OH2  880   7.109   2.020   2.242 -0.2416 -0.4774 -0.9858
  308TIP3    H1  881   7.114   2.076   2.320  0.3915 -1.8341 -0.0050
  308TIP3    H2  882   7.078   2.078   2.173  0.4187  1.0836 -0.0291
  309TIP3   OH2  883   5.241   6.964   5.104  0.3445  0.2142  0.2254
  309TIP3    H1  884   5.228   7.045   5.055 -0.8572  0.4223  0.8511
  309TIP3    H2  885   5.181   6.970   5.178  2.5000  0.1568  2.1016
  310TIP3   OH2  886   3.293   4.085   3.847 -0.5230 -0.2888 -0.6792
  310TIP3    H1  887   3.220   4.026   3.826 -0.6096 -0.4266 -0.0111
  310TIP3    H2  888   3.370   4.029   3.843 -0.1413  0.2968 -3.5533
  311TIP3   OH2  889   0.946   0.127   2.934 -0.7627  0.1292  0.1147
  311TIP3    H1  890   0.949   0.155   2.843 -1.2666 -0.0352  0.0464
  311TIP3    H2  891   0.896   0.046   2.933 -2.1632  0.9509  0.7487
  312TIP3   OH2  892   4.341   0.353   3.920  0.2612 -0.5370  0.5165
  312TIP3    H1  893   4.342   0.447   3.905 -2.3763 -0.3253  1.2090
  312TIP3    H2  894   4.366   0.315   3.835 -1.0513  0.7804 -0.5246
  313TIP3   OH2  895   7.346   0.723   6.623 -0.1905 -0.5602 -0.3512
  313TIP3    H1  896   7.427   0.746   6.669 -1.0495  1.4655  0.2422
  313TIP3    H2  897   7.362   0.749   6.533 -0.5324  0.8040 -0.0285
  314TIP3   OH2  898   7.264   0.025   5.809  0.0028 -0.2030 -0.5001
  314TIP3    H1  899   7.244  -0.007   5.721 -1.3810  1.5969 -0.9100
  314TIP3    H2  900   7.200  -0.018   5.865 -0.3370  0.0493 -0.6862
  315TIP3   OH2  901   5.382   7.007   3.363  0.2956 -0.1021 -0.3353
  315TIP3    H1  902   5.418   6.998   3.452  0.2061  2.1441 -0.0065
  315TIP3    H2  903   5.451   6.975   3.306 -0.0930 -2.7200  0.5342
  316TIP3   OH2  904   3.739   7.036   5.922  0.0302 -0.9542 -0.1567
  316TIP3    H1  905   3.698   6.986   5.992  0.7630  1.1445  1.8969
  316TIP3    H2  906   3.822   6.991   5.906 -0.0479 -1.3421  0.4949
  317TIP3   OH2  907   1.975   3.557   6.305 -0.1500  0.8345 -0.0163
  317TIP3    H1  908   2.064   3.522   6.302  0.6592  2.7456  0.2664
  317TIP3    H2  909   1.932   3.518   6.228  1.2894  0.7656 -0.8318
  318TIP3   OH2  910   4.017   2.363   4.807  0.1304  0.1923 -0.3237
  318TIP3    H1  911   3.964   2.316   4.742 -1.3006  0.3955  0.6614
  318TIP3    H2  912   4.082   2.410   4.755  0.3051 -1.2492 -1.4704
  319TIP3   OH2  913   0.984   7.423   2.234  0.2924 -0.2846 -0.0717
  319TIP3    H1  914   1.034   7.462   2.306  0.9348 -0.0035 -0.6579
  319TIP3    H2  915   1.026   7.339   2.219 -0.3796 -0.7225  0.4359
  320TIP3   OH2  916   5.755   5.876   1.744  0.0520  0.7363 -0.8618
  320TIP3    H1  917   5.710   5.957   1.720 -0.3520  1.0061  0.6811
  320TIP3    H2  918   5.841   5.905   1.775 -0.1775  0.6225 -0.0853
  321TIP3   OH2  919   4.524   0.552   1.785  0.1710 -0.2022 -0.7452
  321TIP3    H1  920   4.600   0.584   1.833  1.5845 -0.7440 -2.5113
  321TIP3    H2  921   4.519   0.459   1.807  0.7044 -0.4083 -1.4561
  322TIP3   OH2  922   1.470   3.663   6.254  0.5710  0.4967 -0.1958
  322TIP3    H1  923   1.442   3.751   6.280  0.7797  0.1831  1.2122
  322TIP3    H2  924   1.390   3.619   6.226 -0.0848  0.2191  1.9405
  323TIP3   OH2  925   3.196   3.844   4.669  0.0369  0.4769 -0.1714
  323TIP3    H1  926   3.145   3.764   4.675  1.1743 -0.3085 -0.8174
  323TIP3    H2  927   3.282   3.821   4.703  0.9196  0.9369 -1.9865
  324TIP3   OH2  928   1.651   2.455   4.484  0.0494  0.5885 -0.1672
  324TIP3    H1  929   1.707   2.381   4.462  0.2076  1.1148 -1.6480
  324TIP3    H2  930   1.679   2.482   4.571  1.1098 -0.0544 -0.2971
  325TIP3   OH2  931   1.755   2.348   1.534  0.0906  0.1574 -0.3454
  325TIP3    H1  932   1.688   2.309   1.590  0.1328 -1.3929 -1.3436
  325TIP3    H2  933   1.717   2.432   1.507 -0.6875  0.0996  0.5242
  326TIP3   OH2  934   3.137   7.187   2.226 -0.0108 -0.0236  0.0170
  326TIP3    H1  935   3.200   7.117   2.241 -1.0071 -0.7746  0.7481
  326TIP3    H2  936   3.104   7.210   2.313  0.4269  1.4946 -0.1802
  327TIP3   OH2  937   0.333   5.899   5.249  0.2201  0.1208  0.3859
  327TIP3    H1  938   0.294   5.855   5.174  1.1842 -0.1553  0.0412
  327TIP3    H2  939   0.298   5.852   5.325 -0.3888  0.1069  0.1013
  328TIP3   OH2  940   7.260   1.705   0.751 -0.4033  0.1347  0.2772
  328TIP3    H1  941   7.202   1.719   0.676  0.0827 -0.3790 -0.2054
  328TIP3    H2  942   7.347   1.699   0.713 -0.1118  0.2043  0.9240
  329TIP3   OH2  943   2.929   1.418   1.080 -0.0368  0.5595 -0.0011
  329TIP3    H1  944   3.017   1.397   1.109  0.8292  1.7026 -1.6378
  329TIP3    H2  945   2.892   1.334   1.051  0.8976  0.2281 -0.2537
  330TIP3   OH2  946   5.750   5.114   5.678  0.2643 -0.1897  0.2468
  330TIP3    H1  947   5.809   5.150   5.745  0.3312  1.4215 -0.6242
  330TIP3    H2  948   5.720   5.191   5.629 -1.9858 -1.0356  0.1711
  331TIP3   OH2  949   6.493   0.755   5.578 -0.0980 -0.5227 -0.0554
  331TIP3    H1  950   6.437   0.725   5.507 -0.0936 -1.4706  0.3193
  331TIP3    H2  951   6.525   0.841   5.550 -1.2951 -0.2063 -0.5183
  332TIP3   OH2  952   3.358   5.153   2.065 -0.1183 -0.6148 -0.0845
  332TIP3    H1  953   3.288   5.133   2.127  0.1432 -0.7914  0.1596
  332TIP3    H2  954   3.313   5.180   1.985 -0.4765 -1.9252 -0.3412
  333TIP3   OH2  955   7.627   7.254   6.590 -0.5423 -0.3273  0.1725
  333TIP3    H1  956   7.573   7.332   6.603  0.0044 -0.1680  1.6747
  333TIP3    H2  957   7.658   7.261   6.499  1.2217  2.3618  0.8491
  334TIP3   OH2  958   2.101   5.933   4.848  0.5461  0.1142 -0.4947
  334TIP3    H1  959   2.046   5.859   4.873  0.7618 -0.2123 -0.9756
  334TIP3    H2  960   2.121   5.977   4.931 -0.2888  0.1409 -0.2958
  335TIP3   OH2  961   0.042   5.079   6.247 -0.1674  0.1816  0.5702
  335TIP3    H1  962   0.007   5.164   6.274 -0.5203  0.4851 -0.7624
  335TIP3    H2  963   0.073   5.093   6.157  0.6104 -0.8679  0.6504
  336TIP3   OH2  964   3.526   2.028   4.242  0.4883 -0.0325 -0.0732
  336TIP3    H1  965   3.553   2.075   4.320 -0.8641 -1.3099  1.2278
  336TIP3    H2  966   3.592   1.960   4.231 -0.1276 -0.8223  0.9114
  337TIP3   OH2  967   6.543   6.901   0.255  0.1219  0.2268 -0.0019
  337TIP3    H1  968   6.510   6.954   0.183  0.9780  0.1706 -0.4488
  337TIP3    H2  969   6.501   6.815   0.244  0.3880  0.1638 -0.5434
  338TIP3   OH2  970   8.278   1.544   2.327  0.3113 -0.0597 -0.5270
  338TIP3    H1  971   8.195   1.580   2.358  0.9598 -0.1801  1.5274
  338TIP3    H2  972   8.255   1.463   2.282 -0.7892  0.6961 -1.3575
  339TIP3   OH2  973   3.657   2.090   5.390 -0.3799 -0.1220 -0.2289
  339TIP3    H1  974   3.585   2.110   5.450 -1.2819  0.5854 -1.5010
  339TIP3    H2  975   3.719   2.161   5.404 -0.7569  0.2429 -0.3789
  340TIP3   OH2  976   7.303   4.891   2.585 -0.6365  0.2730 -0.2617
  340TIP3    H1  977   7.336   4.976   2.612  0.3980  0.2832 -1.4517
  340TIP3    H2  978   7.215   4.908   2.551  0.2192  1.2124 -2.1728
  341TIP3   OH2  979   8.092   5.700   6.642 -0.2463  0.3728 -0.0777
  341TIP3    H1  980   8.022   5.649   6.600 -0.5197  2.1250 -1.9019
  341TIP3    H2  981   8.146   5.730   6.570  2.5793 -1.0180  1.2878
  342TIP3   OH2  982   7.176   4.854   4.765  0.0498  0.0882 -0.1370
  342TIP3    H1  983   7.256   4.869   4.815 -1.3008  0.0130  2.1959
  342TIP3    H2  984   7.137   4.776   4.805 -3.6570  2.8712  2.4168
  343TIP3   OH2  985   7.472   7.631   5.152  0.1945 -0.2108  0.2553
  343TIP3    H1  986   7.536   7.674   5.209  0.2883  0.1915 -0.1426
  343TIP3    H2  987   7.459   7.693   5.080 -1.3033  0.1003  0.7714
  344TIP3   OH2  988   7.086   5.585   1.392  0.2935  0.1360 -0.1688
  344TIP3    H1  989   6.997   5.610   1.419  1.6358  1.5628  3.6482
  344TIP3    H2  990   7.090   5.491   1.407 -1.1151 -0.3386 -2.4126
  345TIP3   OH2  991   7.219   2.380   5.829  0.2115 -0.3188  0.2949
  345TIP3    H1  992   7.313   2.390   5.815 -0.0265 -0.5245 -1.7963
  345TIP3    H2  993   7.195   2.301   5.780 -0.9639 -0.6419  1.3184
  346TIP3   OH2  994   8.111   1.819   2.670 -0.2910 -0.2695 -0.3570
  346TIP3    H1  995   8.194   1.847   2.709 -0.0421  0.0253 -1.0848
  346TIP3    H2  996   8.082   1.746   2.725  1.4592 -1.7050 -1.2095
  347TIP3   OH2  997   1.706   5.526   5.354  0.9344 -0.5077 -0.2922
  347TIP3    H1  998   1.639   5.586   5.321 -0.5921 -1.0799  1.5864
  347TIP3    H2  999   1.772   5.583   5.393  0.1875  0.0048  0.2534
  348TIP3   OH2 1000   4.468   5.357   3.012  0.3726  0.4929 -0.5361
  348TIP3    H1 1001   4.560   5.333   3.026  0.1543  0.5508  1.2804
  348TIP3    H2 1002   4.453   5.341   2.919  1.7057 -1.3137 -0.5036
  349TIP3   OH2 1003   0.116   6.523   4.135  0.2509  0.4111 -0.1051
  349TIP3    H1 1004   0.170   6.501   4.060 -0.5322 -1.5148 -0.1467
  349TIP3    H2 1005   0.172   6.506   4.211 -0.7565 -3.5593 -0.0464
  350TIP3   OH2 1006   2.471   6.627   6.688 -0.5862 -0.2742 -0.3402
  350TIP3    H1 1007   2.437   6.542   6.719 -0.3475 -0.2363  0.0392
  350TIP3    H2 1008   2.540   6.604   6.627 -0.7032 -0.3544 -0.4421
  351TIP3   OH2 1009   3.368   3.208   4.659 -0.0971  0.1822 -0.1868
  351TIP3    H1 1010   3.402   3.297   4.668  0.1350  0.0777 -0.0244
  351TIP3    H2 1011   3.370   3.173   4.748  0.2152 -0.1346 -0.3173
  352TIP3   OH2 1012   0.019   5.646   2.675 -0.3897  0.1263  0.2842
  352TIP3    H1 1013  -0.044   5.699   2.724 -0.6149 -0.7385  0.9794
  352TIP3    H2 1014   0.033   5.569   2.731 -0.6619 -0.9069 -1.0026
  353TIP3   OH2 1015   7.272   1.357   2.670 -0.2697  0.3906  0.3873
  353TIP3    H1 1016   7.212   1.354   2.596  0.0163 -1.1211  0.1787
  353TIP3    H2 1017   7.309   1.445   2.667  1.0459 -0.1467 -2.3491
  354TIP3   OH2 1018   5.489   2.074   0.174  0.3559  0.2733  0.2506
  354TIP3    H1 1019   5.483   2.043   0.083 -0.3560  3.0473 -0.7463
  354TIP3    H2 1020   5.532   2.159   0.167  0.0241  0.6752  2.5042
  355TIP3   OH2 1021   1.524   4.104   6.654  0.3714 -0.2496 -0.4515
  355TIP3    H1 1022   1.508   4.087   6.561 -1.1687 -1.3123 -0.0343
  355TIP3    H2 1023   1.449   4.064   6.699  1.6340 -0.7464  1.3364
  356TIP3   OH2 1024   5.382   4.942   6.065 -0.4086 -0.2705 -0.2139
  356TIP3    H1 1025   5.445   4.904   6.125  0.6365  2.9404  0.9710
  356TIP3    H2 1026   5.435   4.973   5.991 -0.9743  0.1499 -0.4501
  357TIP3   OH2 1027   7.352   0.833   1.478 -0.0801 -0.1472  0.2922
  357TIP3    H1 1028   7.447   0.835   1.465 -0.1833 -2.0405 -1.2874
  357TIP3    H2 1029   7.317   0.850   1.391 -1.1722 -0.2045  0.7165
  358TIP3   OH2 1030   6.885   2.715   4.462 -0.1822  0.2407 -0.3609
  358TIP3    H1 1031   6.820   2.720   4.393 -1.1975  0.2954  0.5717
  358TIP3    H2 1032   6.835   2.696   4.542  0.9059  0.5183  0.4237
  359TIP3   OH2 1033   4.548   6.881   1.890 -0.0594 -0.4362  0.3817
  359TIP3    H1 1034   4.568   6.901   1.799 -0.4886 -2.1281 -0.1226
  359TIP3    H2 1035   4.625   6.912   1.938  0.3103  0.1904 -0.5786
  360TIP3   OH2 1036   5.064   6.875   2.677  0.1775  0.2872 -0.5219
  360TIP3    H1 1037   5.154   6.897   2.655  0.8102  0.9694  2.3559
  360TIP3    H2 1038   5.065   6.859   2.771 -2.9747  2.0027 -0.0417
  361TIP3   OH2 1039   1.126   6.531   0.390  0.1685 -0.3984  0.5383
  361TIP3    H1 1040   1.103   6.438   0.389  0.8017 -0.5551  0.6439
  361TIP3    H2 1041   1.218   6.534   0.365 -0.2493  0.3179 -1.0850
  362TIP3   OH2 1042   4.200   5.910   5.141  0.0096  0.0647  0.1730
  362TIP3    H1 1043   4.294   5.902   5.120 -0.1160 -0.0667 -0.3624
  362TIP3    H2 1044   4.197   5.968   5.217  0.5202  0.1466  0.1343
  363TIP3   OH2 1045   1.836   4.177   0.846 -0.6210  0.6375 -0.1198
  363TIP3    H1 1046   1.816   4.269   0.830  2.1831  1.3127 -0.3842
  363TIP3    H2 1047   1.784   4.130   0.781  0.1011  2.3090 -2.0415
  364TIP3   OH2 1048   7.811   4.238   6.114  0.5803 -0.1616 -0.1658
  364TIP3    H1 1049   7.806   4.143   6.125  2.1404 -0.0967  1.5171
  364TIP3    H2 1050   7.857   4.251   6.032  3.0226 -0.9495  1.0035
  365TIP3   OH2 1051   2.909   7.139   1.730 -0.0132 -0.1905 -0.2702
  365TIP3    H1 1052   2.825   7.127   1.685  1.3158 -2.0300 -2.5023
  365TIP3    H2 1053   2.955   7.055   1.718  1.1733 -0.2233  3.1823
  366TIP3   OH2 1054   4.443   4.069   5.629 -0.6279 -0.1767 -0.1752
  366TIP3    H1 1055   4.464   3.981   5.599  1.5474 -0.1183  0.9616
  366TIP3    H2 1056   4.348   4.069   5.640 -0.5871 -2.6920  0.7225
  367TIP3   OH2 1057   7.067   3.774   6.738  0.1171  0.1309 -0.5468
  367TIP3    H1 1058   7.037   3.788   6.828  0.6282 -0.5575 -0.2634
  367TIP3    H2 1059   7.096   3.683   6.736  1.0049  0.4130 -1.1530
  368TIP3   OH2 1060   7.045   6.285   6.028  0.6678 -0.0409  0.1557
  368TIP3    H1 1061   7.010   6.373   6.014  1.0854 -0.2407 -2.5415
  368TIP3    H2 1062   6.995   6.252   6.103 -0.7168  1.8400  0.1451
  369TIP3   OH2 1063   3.075   2.029   2.421 -0.3340  0.5244  0.5663
  369TIP3    H1 1064   2.981   2.018   2.440 -0.3532 -0.2717  0.0538
  369TIP3    H2 1065   3.118   1.963   2.476 -0.0335  1.1668  1.1136
  370TIP3   OH2 1066   0.653   3.357   1.456  0.1372 -0.0836 -1.0285
  370TIP3    H1 1067   0.738   3.326   1.489 -0.3124  1.0281  1.4440
  370TIP3    H2 1068   0.673   3.401   1.374  1.7346 -1.0609 -1.2039
  371TIP3   OH2 1069   2.352   4.557   5.017  0.2222 -0.0699  0.1675
  371TIP3    H1 1070   2.362   4.605   5.099 -1.2759  1.5448 -0.5177
  371TIP3    H2 1071   2.425   4.588   4.963  0.1124  0.3437  0.2472
  372TIP3   OH2 1072   0.204   1.564   0.069 -0.1391 -0.4896  0.1014
  372TIP3    H1 1073   0.265   1.574  -0.004 -0.9120 -0.7335 -0.5891
  372TIP3    H2 1074   0.256   1.522   0.138  0.5303 -0.4880 -0.3967
  373TIP3   OH2 1075   1.363   6.595   6.711 -0.2316 -0.7130 -0.0804
  373TIP3    H1 1076   1.324   6.640   6.636  0.9742  2.7848  1.2025
  373TIP3    H2 1077   1.419   6.527   6.673 -0.8357 -0.0505 -2.2411
  374TIP3   OH2 1078   6.786   5.633   2.079  0.7272  0.2700 -0.3724
  374TIP3    H1 1079   6.843   5.702   2.115 -1.2118  0.7551  2.0260
  374TIP3    H2 1080   6.757   5.584   2.155 -2.4148  0.3529 -1.3939
  375TIP3   OH2 1081   8.211   3.424   5.442  0.3226 -0.6511  0.5372
  375TIP3    H1 1082   8.158   3.497   5.474 -1.2783 -2.2611  1.7474
  375TIP3    H2 1083   8.202   3.356   5.509  1.0293 -2.2991 -0.9393
  376TIP3   OH2 1084   1.551   1.692   6.210  0.5651 -0.0232 -0.3719
  376TIP3    H1 1085   1.574   1.608   6.251  2.4493 -0.0588 -1.3972
  376TIP3    H2 1086   1.523   1.747   6.283  1.1678 -0.9439  0.5840
  377TIP3   OH2 1087   4.243   7.494   5.971 -0.0674 -0.2543  0.1409
  377TIP3    H1 1088   4.200   7.466   6.052 -1.9789  0.4292 -0.5660
  377TIP3    H2 1089   4.193   7.452   5.902 -0.3950  1.5248 -0.7769
  378TIP3   OH2 1090   5.382   7.758   1.457  0.5553 -0.0907  0.0021
  378TIP3    H1 1091   5.464   7.782   1.413  1.1824 -2.4997 -0.2934
  378TIP3    H2 1092   5.314   7.772   1.391  0.8904  0.5998 -0.2115
  379TIP3   OH2 1093   3.275   4.454   2.391  0.0850  0.0863  0.1567
  379TIP3    H1 1094   3.186   4.440   2.422 -0.2542  2.4454  0.4407
  379TIP3    H2 1095   3.275   4.420   2.302 -0.6174 -1.3761  0.6792
  380TIP3   OH2 1096   4.393   5.984   4.777  0.1125  0.2107 -0.6934
  380TIP3    H1 1097   4.387   6.058   4.837  0.4881 -0.4089  0.1357
  380TIP3    H2 1098   4.320   5.995   4.717 -0.3753  0.7586 -0.0117
  381TIP3   OH2 1099   3.053   7.804   5.131  0.6316 -0.3069 -0.8540
  381TIP3    H1 1100   3.046   7.806   5.036  0.7794 -0.1581 -0.8623
  381TIP3    H2 1101   2.963   7.792   5.161  0.7908 -2.4369 -1.0555
  382TIP3   OH2 1102   1.189   4.466   6.386 -0.1836  0.4069 -0.5085
  382TIP3    H1 1103   1.237   4.532   6.436  1.9341  0.2317 -2.1513
  382TIP3    H2 1104   1.255   4.427   6.328 -1.3021 -3.1396  0.3385
  383TIP3   OH2 1105   8.066   1.054   4.967  0.3725  0.0474 -0.5906
  383TIP3    H1 1106   8.049   1.035   4.875 -1.4704  0.9529 -0.4884
  383TIP3    H2 1107   8.046   1.147   4.977  0.0172 -0.1449  0.8081
  384TIP3   OH2 1108   4.834   4.346   6.223  0.1283 -0.2203  0.0174
  384TIP3    H1 1109   4.760   4.375   6.170 -0.7052  0.3985  1.4747
  384TIP3    H2 1110   4.849   4.256   6.196 -1.5027 -0.5261  0.0572
  385TIP3   OH2 1111   7.519   2.065   3.536  0.3696  0.0806 -0.2021
  385TIP3    H1 1112   7.457   2.007   3.491  0.9084  0.1447 -1.0289
  385TIP3    H2 1113   7.527   2.026   3.624 -1.1016  0.2652  0.0506
  386TIP3   OH2 1114   5.227   5.577   3.078  0.2346 -0.2302 -0.2758
  386TIP3    H1 1115   5.185   5.631   3.145  0.3682 -0.3486 -0.0944
  386TIP3    H2 1116   5.157   5.557   3.015  0.5055  1.3490 -1.1232
  387TIP3   OH2 1117   5.035   0.072   0.442  0.2851 -0.2405 -0.3561
  387TIP3    H1 1118   5.068   0.003   0.385 -1.3909 -1.7993  0.4598
  387TIP3    H2 1119   4.961   0.033   0.487  0.7558  1.3398  1.9804
  388TIP3   OH2 1120   3.954   6.730   1.643  0.0833  0.1201  0.0877
  388TIP3    H1 1121   4.033   6.721   1.589  0.2326 -0.5197  0.4025
  388TIP3    H2 1122   3.910   6.808   1.608  0.9100  0.5521 -0.0129
  389TIP3   OH2 1123   0.762   5.797   0.338 -0.2115 -0.0939 -0.0689
  389TIP3    H1 1124   0.797   5.712   0.362 -0.0274  0.0968  0.3446
  389TIP3    H2 1125   0.776   5.852   0.415 -0.8990  0.1397 -0.0988
  390TIP3   OH2 1126   7.209   4.340   3.909 -0.1807  0.2848  0.1719
  390TIP3    H1 1127   7.143   4.402   3.879  0.1608  1.0429  0.9491
  390TIP3    H2 1128   7.281   4.349   3.847 -1.1294 -1.2249 -1.2469
  391TIP3   OH2 1129   7.004   0.320   5.902  0.0591 -0.3681 -0.0685
  391TIP3    H1 1130   6.937   0.386   5.918  0.0248  0.2018 -2.2551
  391TIP3    H2 1131   7.082   0.371   5.876  0.8765 -1.0873  0.8823
  392TIP3   OH2 1132   4.714   4.424   4.207  0.2315  0.1738  0.4860
  392TIP3    H1 1133   4.627   4.412   4.169  0.4175 -0.1232  0.1493
  392TIP3    H2 1134   4.707   4.504   4.260 -0.4326 -0.2388  1.0245
  393TIP3   OH2 1135   1.093   2.180   1.439  0.0362  0.6891  0.5358
  393TIP3    H1 1136   1.070   2.272   1.455 -0.6440  0.4576  0.9380
  393TIP3    H2 1137   1.162   2.161   1.503  0.3472  0.9889  0.2890
  394TIP3   OH2 1138   0.600   4.257   6.662  0.6492 -0.1730 -0.2828
  394TIP3    H1 1139   0.579   4.200   6.735  1.7754 -0.9851 -0.5577
  394TIP3    H2 1140   0.641   4.334   6.702 -1.5567  0.8564  0.1494
  395TIP3   OH2 1141   7.430   3.116   6.481  0.0153 -0.0654  0.6331
  395TIP3    H1 1142   7.445   3.077   6.395 -0.5146 -1.0649  0.9848
  395TIP3    H2 1143   7.345   3.159   6.473 -0.3484 -0.7243  0.8372
  396TIP3   OH2 1144   3.995   1.594   4.908 -0.2559 -0.1243 -0.4374
  396TIP3    H1 1145   3.911   1.613   4.951 -0.0168 -0.0844  0.0232
  396TIP3    H2 1146   3.973   1.586   4.815 -0.8005 -0.2887 -0.3013
  397TIP3   OH2 1147   1.242   4.249   2.940 -0.0433  0.2218  0.0142
  397TIP3    H1 1148   1.329   4.251   2.980 -0.0549 -0.7102  0.1052
  397TIP3    H2 1149   1.206   4.337   2.956  0.4325  0.2549  0.9777
  398TIP3   OH2 1150   6.435   5.174   5.914  0.1534 -0.0892 -0.0142
  398TIP3    H1 1151   6.443   5.267   5.935 -0.8975 -0.1519  0.7750
  398TIP3    H2 1152   6.524   5.141   5.914  0.7114  1.2478 -1.9622
  399TIP3   OH2 1153   5.576   7.059   3.850 -0.1224 -0.0340  0.4355
  399TIP3    H1 1154   5.599   7.126   3.915 -3.2252  0.0706  1.6094
  399TIP3    H2 1155   5.511   7.102   3.794  0.3175 -1.0714 -0.9155
  400TIP3   OH2 1156   6.208   6.580   2.501 -0.4879  0.2039 -0.3772
  400TIP3    H1 1157   6.130   6.573   2.555 -0.0101  0.5430  0.3760
  400TIP3    H2 1158   6.198   6.512   2.435 -1.0810 -0.2255  0.1475
  401TIP3   OH2 1159   1.853   4.837   3.316  0.4832 -0.6502 -0.0963
  401TIP3    H1 1160   1.854   4.814   3.223 -1.0994 -2.1236  0.1982
  401TIP3    H2 1161   1.796   4.914   3.321  0.3964 -0.6984 -0.3191
  402TIP3   OH2 1162   8.052   3.583   6.463  0.4300  0.5533  0.2825
  402TIP3    H1 1163   8.128   3.639   6.449  0.0663  1.0249  0.1625
  402TIP3    H2 1164   8.026   3.600   6.553 -0.0341  1.0295  0.0655
  403TIP3   OH2 1165   1.385   4.959   3.974  0.1647 -0.0965  0.6381
  403TIP3    H1 1166   1.438   4.883   3.950 -0.3155 -0.4813  0.7810
  403TIP3    H2 1167   1.440   5.008   4.036  0.2949 -0.5634  0.8936
  404TIP3   OH2 1168   4.704   0.751   0.705 -0.3217 -0.4422 -0.1491
  404TIP3    H1 1169   4.771   0.742   0.773 -1.0738 -0.1449  0.6419
  404TIP3    H2 1170   4.647   0.676   0.717  1.4453 -2.4037 -2.6941
  405TIP3   OH2 1171   7.158   0.569   5.168  0.5423 -0.5312 -0.0487
  405TIP3    H1 1172   7.095   0.568   5.239  1.5263  1.8203  0.9736
  405TIP3    H2 1173   7.170   0.477   5.145  1.0631 -1.5400  3.6452
  406TIP3   OH2 1174   6.567   2.474   3.334 -0.2051 -0.2452  0.5541
  406TIP3    H1 1175   6.499   2.538   3.355  0.3081  0.1969  0.9025
  406TIP3    H2 1176   6.585   2.487   3.241 -0.6747 -0.4418  0.4347
  407TIP3   OH2 1177   4.935   3.369   6.497 -0.8405  0.2267  0.7204
  407TIP3    H1 1178   4.972   3.450   6.464  0.6101 -0.6116  0.1829
  407TIP3    H2 1179   4.986   3.350   6.576  0.2016 -1.1304 -0.2253
  408TIP3   OH2 1180   0.286   0.472   2.225 -0.2366  0.2701 -0.4068
  408TIP3    H1 1181   0.285   0.567   2.221  0.5477  0.3550  0.8142
  408TIP3    H2 1182   0.220   0.444   2.162 -1.3584  1.6589  0.1156
  409TIP3   OH2 1183   2.770   0.655   3.718 -0.0805 -0.1364  0.2306
  409TIP3    H1 1184   2.813   0.669   3.803 -0.9465  1.2842  0.4678
  409TIP3    H2 1185   2.734   0.740   3.695  0.2343 -0.4638 -1.6543
  410TIP3   OH2 1186   4.608   4.986   1.783 -0.1774  0.1803  0.0938
  410TIP3    H1 1187   4.544   4.928   1.741 -0.5343  0.2024  0.5921
  410TIP3    H2 1188   4.569   5.006   1.868  2.0716 -2.7213  2.0308
  411TIP3   OH2 1189   5.536   7.825   3.719 -0.1220 -0.7393 -0.1032
  411TIP3    H1 1190   5.558   7.818   3.812 -3.1991 -0.1926  0.7732
  411TIP3    H2 1191   5.501   7.738   3.696 -0.9611 -0.3657 -0.2644
  412TIP3   OH2 1192   6.412   3.014   4.644 -0.2961 -0.8465 -0.3598
  412TIP3    H1 1193   6.421   2.924   4.674 -0.3193 -0.0467  2.3897
  412TIP3    H2 1194   6.348   3.053   4.704 -1.7056  0.5570 -2.6226
  413TIP3   OH2 1195   4.629   5.207   5.693 -0.1347  0.5608  0.3377
  413TIP3    H1 1196   4.536   5.226   5.692 -0.2192  0.2419 -1.2630
  413TIP3    H2 1197   4.643   5.151   5.616  1.6170  2.0074 -0.5007
  414TIP3   OH2 1198   3.036   3.626   4.727 -0.1988 -0.0502  0.0682
  414TIP3    H1 1199   3.053   3.616   4.821 -0.5803 -0.2589  0.1170
  414TIP3    H2 1200   3.036   3.536   4.693  0.8062  0.0709 -0.2928
  415TIP3   OH2 1201   4.572   6.878   1.576 -0.4985  0.0585 -0.1636
  415TIP3    H1 1202   4.651   6.905   1.528 -0.7195 -0.6523 -0.9423
  415TIP3    H2 1203   4.499   6.914   1.525 -0.7178 -0.3121 -0.1121
  416TIP3   OH2 1204   5.342   7.290   0.662  0.4336  0.0474  0.3596
  416TIP3    H1 1205   5.334   7.348   0.586  0.4489 -0.5419 -0.1060
  416TIP3    H2 1206   5.320   7.345   0.737 -0.5484  0.3922 -0.1626
  417TIP3   OH2 1207   1.813   1.908   1.645 -0.4633 -0.3290 -0.1284
  417TIP3    H1 1208   1.776   1.905   1.733 -1.0255  0.0144 -0.3481
  417TIP3    H2 1209   1.751   1.860   1.591 -0.3596 -0.1404 -0.4188
  418TIP3   OH2 1210   5.368   0.927   1.044 -0.1874 -0.5563 -0.3221
  418TIP3    H1 1211   5.435   0.962   1.102  1.8669 -1.0871 -2.2291
  418TIP3    H2 1212   5.334   0.850   1.090 -1.1757  0.9675  1.6640
  419TIP3   OH2 1213   2.336   3.737   4.745  0.0348  0.5770  0.0561
  419TIP3    H1 1214   2.354   3.684   4.823 -1.1127 -1.0114 -0.6981
  419TIP3    H2 1215   2.241   3.750   4.747  0.0766  1.0643 -0.7409
  420TIP3   OH2 1216   0.711   0.822   2.473 -0.3198  0.2798  0.5171
  420TIP3    H1 1217   0.645   0.812   2.405 -0.3907 -0.2051  0.6532
  420TIP3    H2 1218   0.781   0.761   2.447 -0.7950 -0.6862  1.4098
  421TIP3   OH2 1219   7.952   6.386   4.739 -0.3360  0.2674 -0.0071
  421TIP3    H1 1220   7.948   6.418   4.828 -0.1778  0.5173 -0.0903
  421TIP3    H2 1221   8.020   6.438   4.697  0.0708 -0.3194 -0.0831
  422TIP3   OH2 1222   5.247   2.940   3.834  0.0029 -0.0852 -0.0142
  422TIP3    H1 1223   5.251   2.850   3.866 -0.8525 -0.1540 -0.0838
  422TIP3    H2 1224   5.227   2.932   3.741 -0.3849  0.1825  0.0434
  423TIP3   OH2 1225   1.593   2.823   3.520 -0.0027 -0.4845 -0.8992
  423TIP3    H1 1226   1.615   2.908   3.557  0.5232 -1.0590  0.1533
  423TIP3    H2 1227   1.498   2.815   3.531 -0.3090  0.5867 -2.4119
  424TIP3   OH2 1228   2.987   4.572   2.328  0.7155  0.3344 -0.0876
  424TIP3    H1 1229   2.958   4.503   2.269 -2.3633  2.0629 -0.7925
  424TIP3    H2 1230   2.987   4.531   2.415 -0.1711 -0.7934 -0.6020
  425TIP3   OH2 1231   4.522   7.177   3.258  0.5997  0.3404 -0.0370
  425TIP3    H1 1232   4.516   7.107   3.192  0.7803  0.8970 -0.6568
  425TIP3    H2 1233   4.432   7.209   3.267  0.2359 -0.9227  1.3349
  426TIP3   OH2 1234   7.337   7.761   0.943 -0.1626 -0.4470 -0.4288
  426TIP3    H1 1235   7.423   7.797   0.921 -0.3773 -0.0808 -0.6747
  426TIP3    H2 1236   7.294   7.748   0.859 -1.4485  2.0731 -0.2373
  427TIP3   OH2 1237   1.248   6.602   3.659  0.0001 -1.0428 -0.4169
  427TIP3    H1 1238   1.178   6.588   3.595  0.1518 -0.4576 -0.7244
  427TIP3    H2 1239   1.202   6.624   3.740 -0.1776 -0.6421 -0.6211
  428TIP3   OH2 1240   5.324   1.105   5.580 -0.0924  0.8144 -0.0076
  428TIP3    H1 1241   5.316   1.111   5.675  0.7073  0.6482  0.0805
  428TIP3    H2 1242   5.245   1.146   5.546 -1.5486 -1.2500  0.7450
  429TIP3   OH2 1243   4.075   7.813   4.797  0.0419 -0.2170  0.2558
  429TIP3    H1 1244   4.060   7.768   4.880 -1.1595 -1.0234 -0.3541
  429TIP3    H2 1245   3.992   7.802   4.750 -0.4449  2.9721  0.1914
  430TIP3   OH2 1246   4.623   4.622   4.597 -0.2670  0.2612  0.1040
  430TIP3    H1 1247   4.648   4.667   4.677  0.6483 -2.0502  1.2274
  430TIP3    H2 1248   4.557   4.678   4.557 -1.2746  1.1768  2.8283
  431TIP3   OH2 1249   3.093   2.247   5.897 -0.5373 -0.0234  0.2263
  431TIP3    H1 1250   3.178   2.212   5.923 -0.8183 -1.3050 -0.5052
  431TIP3    H2 1251   3.115   2.323   5.842  0.1547 -0.5704 -0.2726
  432TIP3   OH2 1252   0.982   1.545   1.134  0.0681  0.1762 -0.1092
  432TIP3    H1 1253   1.051   1.603   1.165  1.6257 -0.6768 -1.7608
  432TIP3    H2 1254   1.007   1.458   1.167 -1.7820  0.2442  1.6492
  433TIP3   OH2 1255   7.558   7.668   2.505 -0.2343  0.6560 -0.1209
  433TIP3    H1 1256   7.581   7.703   2.419 -1.8298 -0.6233 -1.1099
  433TIP3    H2 1257   7.532   7.577   2.488 -1.8646  0.7759  1.5165
  434TIP3   OH2 1258   4.877   7.573   3.238 -0.2415 -0.4052  0.0580
  434TIP3    H1 1259   4.811   7.621   3.288  0.8996 -1.0014  2.2284
  434TIP3    H2 1260   4.827   7.505   3.192 -1.4041  0.5713 -0.1852
  435TIP3   OH2 1261   6.159   1.073   2.416 -0.2968 -0.3985  0.1619
  435TIP3    H1 1262   6.090   1.122   2.461  0.0374  2.3257 -2.0652
  435TIP3    H2 1263   6.240   1.102   2.458 -0.2339 -0.5501  0.1453
  436TIP3   OH2 1264   4.826   7.645   3.944  0.0013  0.5617 -0.1362
  436TIP3    H1 1265   4.870   7.729   3.936 -1.9759  1.5262 -1.6098
  436TIP3    H2 1266   4.832   7.624   4.037  3.4476  0.6143 -0.2392
  437TIP3   OH2 1267   6.912   0.904   2.784 -0.3169 -0.4108  0.0039
  437TIP3    H1 1268   6.951   0.990   2.797 -0.8248  0.0706 -1.4181
  437TIP3    H2 1269   6.835   0.904   2.841 -2.4406  1.5789 -2.5900
  438TIP3   OH2 1270   0.977   4.829   5.263  0.5472  0.5736 -0.0621
  438TIP3    H1 1271   1.056   4.883   5.259  1.5994 -1.0112 -1.9008
  438TIP3    H2 1272   0.979   4.791   5.351  1.4200  1.1402  0.1761
  439TIP3   OH2 1273   3.933   2.475   3.295 -0.3711 -0.3381  0.2997
  439TIP3    H1 1274   3.994   2.415   3.339  0.3357  0.2419  0.1190
  439TIP3    H2 1275   3.975   2.496   3.212 -0.1016  1.2488  0.8130
  440TIP3   OH2 1276   7.506   6.175   4.671  0.1862 -0.4313  0.1128
  440TIP3    H1 1277   7.431   6.165   4.612  0.3245  2.2614 -0.6738
  440TIP3    H2 1278   7.526   6.269   4.668  1.9263 -0.6426  2.3755
  441TIP3   OH2 1279   7.795   2.417   0.409 -0.3386  0.0342  0.6946
  441TIP3    H1 1280   7.836   2.454   0.332  2.5989 -2.3834  0.9130
  441TIP3    H2 1281   7.822   2.474   0.481 -1.5457  1.2187  0.2626
  442TIP3   OH2 1282   2.071   5.018   5.145 -0.1944  0.3421 -0.0926
  442TIP3    H1 1283   2.088   5.109   5.117  0.3453  0.5260  0.7947
  442TIP3    H2 1284   1.977   5.015   5.159 -0.0864  1.0626  0.8570
  443TIP3   OH2 1285   7.231   6.327   6.549 -0.5629  0.1098  0.2000
  443TIP3    H1 1286   7.140   6.317   6.523 -1.1123  1.5097  1.4217
  443TIP3    H2 1287   7.228   6.383   6.627  1.4417  1.4214 -0.5705
  444TIP3   OH2 1288   7.491   4.586   1.680 -0.0586 -0.1179 -0.2002
  444TIP3    H1 1289   7.474   4.671   1.720  0.1122 -0.2967  0.2613
  444TIP3    H2 1290   7.527   4.533   1.751 -0.6044 -0.7195 -0.3668
  445TIP3   OH2 1291   5.214   0.210   6.423 -0.3336  0.4147 -0.0982
  445TIP3    H1 1292   5.228   0.303   6.403  0.7845 -0.1719 -2.3156
  445TIP3    H2 1293   5.151   0.211   6.495 -0.2886  2.8905  0.0063
  446TIP3   OH2 1294   5.751   5.894   3.798  0.6261 -0.3761 -0.0682
  446TIP3    H1 1295   5.761   5.989   3.793  0.7836 -0.3858  0.0285
  446TIP3    H2 1296   5.696   5.871   3.724 -1.3124  0.0358  1.1904
  447TIP3   OH2 1297   6.523   1.415   2.230 -0.1642 -0.2058 -0.3965
  447TIP3    H1 1298   6.609   1.455   2.217 -0.0832 -0.4948 -0.7771
  447TIP3    H2 1299   6.541   1.322   2.244 -0.2494  0.0655  1.8803
  448TIP3   OH2 1300   1.619   5.064   2.762  0.3083  0.1731  0.1174
  448TIP3    H1 1301   1.545   5.125   2.753 -0.2924 -0.5158  0.2343
  448TIP3    H2 1302   1.678   5.087   2.690  0.3245  1.1922  0.4393
  449TIP3   OH2 1303   0.002   2.991   1.298 -0.2850 -0.3968  0.1602
  449TIP3    H1 1304  -0.038   3.067   1.339  0.0424 -0.5547  0.7752
  449TIP3    H2 1305   0.096   3.000   1.316 -0.2414 -0.9334  0.2126
  450TIP3   OH2 1306   1.805   0.628   4.573 -0.0336  0.3407  0.8231
  450TIP3    H1 1307   1.893   0.609   4.541 -0.6998 -0.1067 -0.8281
  450TIP3    H2 1308   1.787   0.717   4.545 -1.1646 -0.5250 -1.5002
  451TIP3   OH2 1309   3.090   3.582   0.283 -0.6662 -0.1584  0.1321
  451TIP3    H1 1310   3.130   3.506   0.241 -0.2879 -0.7866  1.5669
  451TIP3    H2 1311   3.162   3.644   0.293 -0.8746  0.2184 -0.6122
  452TIP3   OH2 1312   5.166   6.329   3.224 -0.0939  0.2484  0.0761
  452TIP3    H1 1313   5.081   6.319   3.265 -0.3046 -0.6315 -0.5350
  452TIP3    H2 1314   5.169   6.421   3.195 -1.3870 -0.0345 -1.0546
  453TIP3   OH2 1315   3.849   1.062   5.693  0.2914 -0.1689  0.1399
  453TIP3    H1 1316   3.827   0.975   5.726  0.1226 -0.4205 -0.6271
  453TIP3    H2 1317   3.765   1.099   5.666  0.5279 -0.3253 -0.8544
  454TIP3   OH2 1318   5.812   4.422   3.651  0.0878  0.4266 -0.1717
  454TIP3    H1 1319   5.779   4.511   3.642 -2.5033 -0.5101 -0.8150
  454TIP3    H2 1320   5.801   4.402   3.744  0.1159  0.5847 -0.1347
  455TIP3   OH2 1321   3.226   0.946   1.381  0.2742  0.5029 -0.3137
  455TIP3    H1 1322   3.299   0.922   1.324 -1.3647 -1.9625 -1.5369
  455TIP3    H2 1323   3.247   0.907   1.465 -0.0870 -1.1485 -0.9631
  456TIP3   OH2 1324   0.935   3.923   6.439 -0.4067 -0.5983 -0.3394
  456TIP3    H1 1325   1.027   3.900   6.425  0.3652  1.8231  0.2873
  456TIP3    H2 1326   0.933   3.961   6.527 -1.4862  1.5895 -1.2397
  457TIP3   OH2 1327   7.275   5.346   1.746 -0.5003  0.0158  0.1580
  457TIP3    H1 1328   7.296   5.253   1.733  1.7635  0.4360  0.4028
  457TIP3    H2 1329   7.306   5.365   1.834 -1.8958  0.7888  0.5096
  458TIP3   OH2 1330   6.102   7.701   3.037 -0.3439  0.0793  0.1747
  458TIP3    H1 1331   6.036   7.679   2.971  0.4283  1.8775 -1.2855
  458TIP3    H2 1332   6.124   7.792   3.020 -0.9988  1.0657  3.7676
  459TIP3   OH2 1333   2.360   2.779   0.624  0.0363 -0.1254 -0.6015
  459TIP3    H1 1334   2.287   2.832   0.593 -0.9817 -0.6334  0.8062
  459TIP3    H2 1335   2.372   2.712   0.557 -1.9508 -1.0723 -0.0877
  460TIP3   OH2 1336   0.675   0.278   5.097  0.0116 -0.4101  0.3286
  460TIP3    H1 1337   0.605   0.228   5.056  0.3554 -0.1885 -0.5382
  460TIP3    H2 1338   0.653   0.369   5.079  2.1215 -0.3868 -2.7036
  461TIP3   OH2 1339   1.565   5.671   4.290 -0.6248 -0.3532 -0.3225
  461TIP3    H1 1340   1.486   5.715   4.257 -0.1550  0.4485 -0.3879
  461TIP3    H2 1341   1.611   5.642   4.212 -0.1665  0.3933 -0.3313
  462TIP3   OH2 1342   0.390   5.306   1.644 -0.2841 -0.3770  0.0784
  462TIP3    H1 1343   0.446   5.339   1.714  0.2219  0.4833 -0.7103
  462TIP3    H2 1344   0.444   5.242   1.598 -0.8022 -1.3418  0.7880
  463TIP3   OH2 1345   7.692   5.064   5.995  0.8371  0.2570  0.8252
  463TIP3    H1 1346   7.624   5.111   6.043  0.8354  0.8687  0.2410
  463TIP3    H2 1347   7.753   5.132   5.966  0.3304  0.0584 -0.8437
  464TIP3   OH2 1348   1.627   7.677   6.657 -0.0970  0.4211 -0.0523
  464TIP3    H1 1349   1.640   7.735   6.732 -0.7621  1.5537 -0.7838
  464TIP3    H2 1350   1.711   7.631   6.647  0.4014  1.1702  0.6133
  465TIP3   OH2 1351   4.709   5.094   4.083  0.1885 -0.6919 -0.0503
  465TIP3    H1 1352   4.768   5.074   4.010  0.2993 -0.7198  0.0456
  465TIP3    H2 1353   4.644   5.153   4.046  1.1941  0.6263  0.2368
  466TIP3   OH2 1354   7.713  -0.016   0.911  0.1218  0.9076  0.5269
  466TIP3    H1 1355   7.647  -0.043   0.846  0.9097 -1.3992  0.5879
  466TIP3    H2 1356   7.729   0.076   0.892 -2.2930  1.2419 -0.2067
  467TIP3   OH2 1357   0.732   0.957   0.062  0.0848  0.3148  0.2146
  467TIP3    H1 1358   0.692   0.946   0.148 -0.5436  1.3511  0.0789
  467TIP3    H2 1359   0.742   1.052   0.053  2.3411  0.1233  0.1103
  468TIP3   OH2 1360   6.162   2.889   1.139  0.1558  0.5543 -0.1791
  468TIP3    H1 1361   6.092   2.931   1.089 -0.2479 -0.2194 -0.2840
  468TIP3    H2 1362   6.175   2.945   1.215 -0.9585  0.4347  0.1197
  469TIP3   OH2 1363   4.057   2.893   5.492  0.0820 -0.0462 -0.1226
  469TIP3    H1 1364   4.100   2.955   5.434  1.1241 -0.4513  0.1855
  469TIP3    H2 1365   3.983   2.860   5.442 -1.9405  3.0932  0.4922
  470TIP3   OH2 1366   5.794   6.305   3.496  0.1831  0.1630 -0.4448
  470TIP3    H1 1367   5.881   6.335   3.522  0.1549 -0.7352  0.7846
  470TIP3    H2 1368   5.737   6.380   3.513  0.6438  0.6032 -0.8238
  471TIP3   OH2 1369   2.844   3.635   2.832  0.2189 -0.3410 -0.2657
  471TIP3    H1 1370   2.824   3.578   2.906  1.9826  0.0364  0.5535
  471TIP3    H2 1371   2.851   3.722   2.871  3.2598 -0.4198 -0.4047
  472TIP3   OH2 1372   7.758   1.318   5.984  0.3259  0.4226  0.5288
  472TIP3    H1 1373   7.814   1.317   5.907 -0.1313 -0.7834  0.1919
  472TIP3    H2 1374   7.750   1.226   6.010  0.3701  0.7828  1.9484
  473TIP3   OH2 1375   8.032   3.910   2.386  0.2606 -0.1592  0.8877
  473TIP3    H1 1376   8.014   3.848   2.457  0.0029 -0.0033  0.9596
  473TIP3    H2 1377   8.012   3.996   2.423 -1.7193 -0.1992  0.0755
  474TIP3   OH2 1378   3.636   3.177   3.324 -0.3138  0.6017  0.6813
  474TIP3    H1 1379   3.701   3.134   3.268 -0.2481  2.6277 -0.9345
  474TIP3    H2 1380   3.687   3.233   3.382 -0.4811 -0.2626  1.6936
  475TIP3   OH2 1381   0.794   4.739   2.269  0.3850 -0.0202 -0.0287
  475TIP3    H1 1382   0.804   4.797   2.344  0.7773  0.1882 -0.2378
  475TIP3    H2 1383   0.849   4.663   2.289  0.6630  0.1347 -0.2018
  476TIP3   OH2 1384   4.592   0.225   0.032 -0.1517  0.2915  0.6976
  476TIP3    H1 1385   4.646   0.285   0.085 -2.8422  2.4878  1.1693
  476TIP3    H2 1386   4.518   0.204   0.089 -1.3036 -0.2160 -0.9342
  477TIP3   OH2 1387   6.039   7.253   5.046  0.5409 -0.0670  0.2612
  477TIP3    H1 1388   5.989   7.265   4.965 -0.6672  0.6520  1.0910
  477TIP3    H2 1389   6.127   7.285   5.024  0.7995 -1.6793 -1.3246
  478TIP3   OH2 1390   6.413   0.583   0.980 -0.3605 -0.0922  0.4046
  478TIP3    H1 1391   6.349   0.585   1.051 -0.8004  0.1767  0.0058
  478TIP3    H2 1392   6.362   0.557   0.903 -0.0407  0.3626  0.0334
  479TIP3   OH2 1393   3.875   2.110   1.485 -0.1301 -0.5379  0.0213
  479TIP3    H1 1394   3.825   2.056   1.546 -0.8170  0.3302  0.2513
  479TIP3    H2 1395   3.899   2.188   1.536 -2.3697  1.1214 -1.2765
  480TIP3   OH2 1396   4.809   0.479   5.751  0.3471 -0.4799 -0.0528
  480TIP3    H1 1397   4.868   0.548   5.721  0.9707 -0.8178  0.3765
  480TIP3    H2 1398   4.859   0.431   5.817 -0.0908 -1.3244 -0.3162
  481TIP3   OH2 1399   7.274   4.893   6.475  0.3969  0.3524  0.5603
  481TIP3    H1 1400   7.206   4.919   6.537 -1.5087 -0.7828 -0.9613
  481TIP3    H2 1401   7.286   4.799   6.491 -0.1168  0.0426 -0.7280
  482TIP3   OH2 1402   0.716   1.994   5.051 -0.7843  0.0537  0.2286
  482TIP3    H1 1403   0.805   2.027   5.039  0.3909 -2.9148 -0.1667
  482TIP3    H2 1404   0.680   1.989   4.963 -0.5252 -0.7319  0.1597
  483TIP3   OH2 1405   3.545   5.001   1.812  0.0919 -0.6125  0.1266
  483TIP3    H1 1406   3.461   5.031   1.848  1.3626  2.4181  0.9337
  483TIP3    H2 1407   3.553   4.911   1.841 -2.5001 -0.7293  0.7260
  484TIP3   OH2 1408   3.121   5.087   0.262 -0.5419 -0.3690  0.2028
  484TIP3    H1 1409   3.030   5.056   0.259 -1.2960  1.4772  1.8334
  484TIP3    H2 1410   3.167   5.033   0.198 -2.1181 -3.4551  1.4293
  485TIP3   OH2 1411   3.158   0.691   3.150 -0.3760  0.8322  0.8735
  485TIP3    H1 1412   3.069   0.724   3.145 -0.8680 -0.4743  0.5774
  485TIP3    H2 1413   3.149   0.596   3.141  1.1881  0.7991 -1.0533
  486TIP3   OH2 1414   7.864   3.023   2.127 -0.0357  0.4157 -0.2708
  486TIP3    H1 1415   7.811   2.972   2.065  2.5712 -1.0884 -1.4333
  486TIP3    H2 1416   7.884   3.103   2.079 -0.2403  0.4550 -0.2943
  487TIP3   OH2 1417   3.201   1.773   2.189 -0.1878 -0.2853  0.5552
  487TIP3    H1 1418   3.263   1.835   2.150  1.7110 -2.9744 -1.0555
  487TIP3    H2 1419   3.118   1.789   2.143  0.7116 -0.0463 -1.0429
  488TIP3   OH2 1420   7.887   6.504   1.254 -0.2763  0.0789 -0.1522
  488TIP3    H1 1421   7.886   6.545   1.168 -0.0467 -1.9912 -1.2182
  488TIP3    H2 1422   7.841   6.421   1.242  1.6785 -1.2990  1.1316
  489TIP3   OH2 1423   3.873   2.124   5.122  0.0212  0.1694 -0.1328
  489TIP3    H1 1424   3.834   2.204   5.159  0.3535  1.0015 -1.5141
  489TIP3    H2 1425   3.943   2.101   5.182 -1.4519 -0.3590  1.4609
  490TIP3   OH2 1426   0.931   6.798   1.250  0.2096  0.0191 -0.3553
  490TIP3    H1 1427   0.870   6.725   1.234  0.8303 -0.2678 -1.4972
  490TIP3    H2 1428   0.927   6.851   1.171  0.5247  0.6763  0.0625
  491TIP3   OH2 1429   8.233   0.625   0.654  0.6234 -0.3092 -0.3463
  491TIP3    H1 1430   8.262   0.620   0.562 -0.1946 -0.8918 -0.5776
  491TIP3    H2 1431   8.265   0.544   0.693  1.3710  0.1464  0.0167
  492TIP3   OH2 1432   2.433   0.865   1.628  0.1334  0.1721 -0.5870
  492TIP3    H1 1433   2.441   0.894   1.537  1.4014 -3.3048 -1.7484
  492TIP3    H2 1434   2.521   0.874   1.664  0.2172 -0.7648 -0.5308
  493TIP3   OH2 1435   3.566   6.329   3.469  0.4232  0.3614  0.2592
  493TIP3    H1 1436   3.617   6.343   3.549  2.8168  0.2145 -1.1401
  493TIP3    H2 1437   3.524   6.244   3.482 -1.4197  1.4695  2.3681
  494TIP3   OH2 1438   3.540   1.420   0.684  0.2240 -0.0559  0.2646
  494TIP3    H1 1439   3.460   1.467   0.663  0.3255 -0.4673 -1.1458
  494TIP3    H2 1440   3.580   1.402   0.599  2.3927  1.1260  0.9685
  495TIP3   OH2 1441   1.440   7.202   3.799  0.5575 -0.3420  0.6592
  495TIP3    H1 1442   1.518   7.252   3.824 -1.6287  2.8704  1.6279
  495TIP3    H2 1443   1.416   7.236   3.713 -1.6636  1.4134  1.8624
  496TIP3   OH2 1444   6.960   7.261   4.609  0.0130  0.5722  0.2147
  496TIP3    H1 1445   7.010   7.179   4.604  0.9240  1.0966  0.3633
  496TIP3    H2 1446   6.890   7.243   4.671  0.1127 -0.1394  0.1317
  497TIP3   OH2 1447   6.383   0.637   3.621 -0.2638 -0.0009  0.1975
  497TIP3    H1 1448   6.399   0.626   3.527  0.2177 -1.6894  0.4372
  497TIP3    H2 1449   6.467   0.666   3.657 -1.1139  3.3723 -0.1955
  498TIP3   OH2 1450   3.757   6.949   5.030  0.1912 -0.5436 -0.3087
  498TIP3    H1 1451   3.850   6.933   5.010 -0.4926 -1.0933 -3.6999
  498TIP3    H2 1452   3.743   7.041   5.007 -0.1336 -0.5261 -0.0342
  499TIP3   OH2 1453   0.242   0.874   3.855 -0.2287  0.1076  0.6893
  499TIP3    H1 1454   0.163   0.915   3.819  0.9405  1.7499 -0.1369
  499TIP3    H2 1455   0.287   0.839   3.778  0.4896  0.3486  0.9964
  500TIP3   OH2 1456   8.309   1.233   0.040  0.0772  0.6984  0.2586
  500TIP3    H1 1457   8.218   1.254   0.062 -1.1255 -0.4175 -3.0088
  500TIP3    H2 1458   8.306   1.209  -0.053  3.7547  0.6710  0.0074
  501TIP3   OH2 1459   4.822   4.006   6.688  0.0116 -0.6077 -0.3497
  501TIP3    H1 1460   4.791   4.013   6.779 -1.3391 -1.4722 -0.7181
  501TIP3    H2 1461   4.903   3.955   6.695  0.6838  0.5265  0.4960
  502TIP3   OH2 1462   3.252   3.193   1.883 -0.0800  0.2451  0.9286
  502TIP3    H1 1463   3.243   3.257   1.954 -0.7563  0.8145  0.3356
  502TIP3    H2 1464   3.263   3.245   1.804  1.9761 -0.3861  0.7386
  503TIP3   OH2 1465   2.415   6.478   3.752 -0.1580  0.3377  0.4109
  503TIP3    H1 1466   2.440   6.463   3.661  2.0282  0.1852  0.9754
  503TIP3    H2 1467   2.455   6.562   3.774  0.7944 -0.4054  1.6758
  504TIP3   OH2 1468   1.471   5.605   6.360 -0.0092  0.3821  0.1958
  504TIP3    H1 1469   1.383   5.606   6.321 -0.4542 -0.8309  1.1079
  504TIP3    H2 1470   1.498   5.513   6.355  0.8663  0.6088  0.6644
  505TIP3   OH2 1471   7.285   0.408   0.447  0.4404 -0.3991  0.0651
  505TIP3    H1 1472   7.309   0.500   0.458  0.1541 -0.4661  1.5539
  505TIP3    H2 1473   7.313   0.385   0.358  1.1347  0.9320 -0.0767
  506TIP3   OH2 1474   1.461   5.557   0.457  0.4845  0.1169 -0.2711
  506TIP3    H1 1475   1.497   5.480   0.413  0.7537  1.4603 -2.5152
  506TIP3    H2 1476   1.522   5.574   0.529 -0.2713 -2.4576  1.1204
  507TIP3   OH2 1477   0.896   7.526   4.498 -0.3021  0.4046 -0.0458
  507TIP3    H1 1478   0.868   7.577   4.421 -1.1302  3.1160  1.9127
  507TIP3    H2 1479   0.826   7.462   4.510  0.7521 -1.4112 -2.5563
  508TIP3   OH2 1480   2.937   4.701   0.466  0.5997 -0.0708  0.8786
  508TIP3    H1 1481   2.888   4.771   0.422  2.5124  0.6669 -0.2283
  508TIP3    H2 1482   2.870   4.646   0.506 -1.0681  1.2939  0.1064
  509TIP3   OH2 1483   0.603   3.172   0.069 -0.4516 -0.2599  0.5940
  509TIP3    H1 1484   0.635   3.258   0.042 -0.0575 -0.1219  1.4919
  509TIP3    H2 1485   0.675   3.112   0.049  0.2669 -0.0047  2.2592
  510TIP3   OH2 1486   0.307   2.824   2.326  0.0660 -0.2086  0.1785
  510TIP3    H1 1487   0.233   2.832   2.265 -0.4767 -1.7803  0.5848
  510TIP3    H2 1488   0.320   2.913   2.360 -2.4731 -0.0877  1.0398
  511TIP3   OH2 1489   6.749   6.501   4.175  0.3177 -0.6204 -0.1617
  511TIP3    H1 1490   6.836   6.462   4.162  0.4585 -0.0887 -0.8935
  511TIP3    H2 1491   6.724   6.532   4.088 -1.0787 -1.7206 -0.1918
  512TIP3   OH2 1492   7.997   7.366   1.019 -0.1185  0.0814  0.1636
  512TIP3    H1 1493   7.919   7.392   1.067 -0.1926  0.0406  0.0658
  512TIP3    H2 1494   8.068   7.376   1.082 -0.1230  0.6651  0.0828
  513TIP3   OH2 1495   6.354   3.671   3.197  0.8527  0.4012  0.0838
  513TIP3    H1 1496   6.424   3.727   3.231  1.7742 -0.7314  0.1224
  513TIP3    H2 1497   6.391   3.583   3.199 -0.0091 -0.0256 -1.4136
  514TIP3   OH2 1498   7.810   3.093   5.144  0.0102  0.6496 -0.0116
  514TIP3    H1 1499   7.845   3.007   5.166 -1.9220 -0.4507 -0.9483
  514TIP3    H2 1500   7.786   3.131   5.229  0.6335  0.1526  0.3939
  515TIP3   OH2 1501   2.833   5.423   4.979 -0.3954  0.6627 -0.1478
  515TIP3    H1 1502   2.860   5.479   4.906  0.6205  0.8257  0.3463
  515TIP3    H2 1503   2.892   5.445   5.051  1.2646 -2.2748 -0.4377
  516TIP3   OH2 1504   0.887   0.269   4.211  0.1507  0.3915 -0.7045
  516TIP3    H1 1505   0.936   0.253   4.292  0.9501  2.9496 -0.6009
  516TIP3    H2 1506   0.953   0.271   4.142  0.0617  2.4171 -0.7731
  517TIP3   OH2 1507   0.728   5.857   0.083 -0.1567 -0.4983  0.1214
  517TIP3    H1 1508   0.773   5.831   0.164  0.5899 -0.4811 -0.2800
  517TIP3    H2 1509   0.668   5.927   0.110  0.8536  0.2500  0.4804
  518TIP3   OH2 1510   6.680   1.463   6.139 -0.0890 -0.4969  0.4417
  518TIP3    H1 1511   6.661   1.537   6.082  1.6674 -0.2822  0.0927
  518TIP3    H2 1512   6.699   1.391   6.079  0.3436 -0.6510  0.7542
  519TIP3   OH2 1513   2.079   2.183   2.850  0.1562 -0.0671  0.2024
  519TIP3    H1 1514   2.125   2.125   2.911  1.4862 -0.9204 -1.5443
  519TIP3    H2 1515   2.120   2.269   2.863  0.1356 -0.1389  0.7792
  520TIP3   OH2 1516   4.167   4.394   4.092 -0.0548 -0.0437 -0.6005
  520TIP3    H1 1517   4.260   4.372   4.101  0.4050  1.3624 -1.5624
  520TIP3    H2 1518   4.160   4.483   4.125 -1.3797 -0.6576  0.8703
  521TIP3   OH2 1519   4.624   3.402   6.504 -0.2282 -0.0414 -0.2143
  521TIP3    H1 1520   4.608   3.430   6.414 -0.3375 -0.0496 -0.1978
  521TIP3    H2 1521   4.709   3.359   6.502 -0.4606 -0.4886 -0.4083
  522TIP3   OH2 1522   5.287   6.086   0.236  0.4336  0.3151 -0.6194
  522TIP3    H1 1523   5.315   5.994   0.240  0.3857  0.3105 -0.3738
  522TIP3    H2 1524   5.320   6.117   0.152  0.1785 -0.0159 -0.8449
  523TIP3   OH2 1525   5.907   5.552   2.916  0.0349  0.0085  0.6169
  523TIP3    H1 1526   5.876   5.467   2.947 -1.0583 -0.4993 -1.7264
  523TIP3    H2 1527   5.835   5.588   2.865  1.6004  0.9077 -1.0922
  524TIP3   OH2 1528   2.318   5.428   6.651 -0.0796  0.2689 -0.0123
  524TIP3    H1 1529   2.344   5.488   6.721 -0.2870 -1.0496  1.2271
  524TIP3    H2 1530   2.271   5.358   6.695  1.2510 -1.4885 -1.2740
  525TIP3   OH2 1531   4.933   7.452   1.651 -0.0705 -0.3070 -0.5395
  525TIP3    H1 1532   4.967   7.419   1.734  1.9625 -0.2735 -1.2982
  525TIP3    H2 1533   5.007   7.499   1.612 -1.0818 -0.0401 -2.2189
  526TIP3   OH2 1534   6.490   7.560   5.464  0.4661 -0.1618  0.2445
  526TIP3    H1 1535   6.404   7.533   5.494  0.1051 -0.5044 -1.0535
  526TIP3    H2 1536   6.484   7.655   5.456  0.8782  0.0608  2.1468
  527TIP3   OH2 1537   0.101   4.128   5.798  0.1623 -0.4103 -0.1471
  527TIP3    H1 1538   0.053   4.147   5.718  0.6635 -0.8480 -0.5603
  527TIP3    H2 1539   0.109   4.213   5.842 -0.2852 -0.2024 -0.4589
  528TIP3   OH2 1540   6.285   3.222   2.392 -0.6888 -0.3790  0.0155
  528TIP3    H1 1541   6.250   3.301   2.349  0.8140  1.0261  1.2217
  528TIP3    H2 1542   6.214   3.193   2.450 -0.7818  0.9504  0.6062
  529TIP3   OH2 1543   3.379   6.361   6.693  0.4897  0.4120  0.3098
  529TIP3    H1 1544   3.380   6.362   6.789 -1.7585 -1.5099  0.4423
  529TIP3    H2 1545   3.321   6.289   6.671  1.1077  0.6856 -2.5402
  530TIP3   OH2 1546   8.236   2.504   2.127  0.2038  0.3671 -0.2482
  530TIP3    H1 1547   8.235   2.585   2.076 -0.9310  0.6065  0.1190
  530TIP3    H2 1548   8.329   2.487   2.143  0.4517  1.9770  0.2634
  531TIP3   OH2 1549   0.669   4.040   4.877 -0.0791  0.4612  0.9141
  531TIP3    H1 1550   0.631   4.019   4.962  2.9621  2.4757  2.9826
  531TIP3    H2 1551   0.753   3.993   4.875  1.5314  3.1313  0.6891
  532TIP3   OH2 1552   2.690   6.407   0.848 -0.0625  0.3193  0.7538
  532TIP3    H1 1553   2.699   6.318   0.814 -1.0092 -0.2044  1.8271
  532TIP3    H2 1554   2.620   6.401   0.913 -0.0196  1.8170  0.9697
  533TIP3   OH2 1555   4.429   2.075   0.155 -0.1941 -0.1852  0.1503
  533TIP3    H1 1556   4.436   2.138   0.084 -0.0767 -0.8051 -0.3887
  533TIP3    H2 1557   4.510   2.087   0.206  0.2288 -0.5004 -0.4447
  534TIP3   OH2 1558   4.844   0.877   6.282  0.0744 -0.0531  0.0115
  534TIP3    H1 1559   4.832   0.817   6.356  1.2513  0.6716  0.8319
  534TIP3    H2 1560   4.902   0.830   6.223  0.2930 -0.0753  0.2394
  535TIP3   OH2 1561   3.655   2.638   5.238  0.2459  0.2732  0.4145
  535TIP3    H1 1562   3.646   2.706   5.305 -2.2334  0.4220  0.0152
  535TIP3    H2 1563   3.572   2.590   5.240  0.5691 -0.5038 -1.6935
  536TIP3   OH2 1564   4.625   0.636   4.000  0.6788  0.8964  0.8754
  536TIP3    H1 1565   4.670   0.552   3.991  1.1500  1.2618 -0.4779
  536TIP3    H2 1566   4.547   0.626   3.944  0.9741  1.5146  0.3525
  537TIP3   OH2 1567   1.147   7.329   1.097  0.4424 -0.0086  0.1676
  537TIP3    H1 1568   1.127   7.317   1.190  0.9622 -1.4172  0.1188
  537TIP3    H2 1569   1.239   7.303   1.090  0.2196 -0.5507 -0.8544
  538TIP3   OH2 1570   5.752   4.414   0.874 -0.1333  0.7786  0.1356
  538TIP3    H1 1571   5.710   4.443   0.954 -1.8344 -0.2975 -0.3029
  538TIP3    H2 1572   5.681   4.405   0.811  0.8635 -0.3318 -0.9032
  539TIP3   OH2 1573   2.713   2.260   2.688 -0.0950 -0.1551 -0.2653
  539TIP3    H1 1574   2.666   2.327   2.738  0.5897 -0.3474  0.6550
  539TIP3    H2 1575   2.683   2.177   2.724  1.9014 -0.2715  1.2843
  540TIP3   OH2 1576   3.541   1.669   0.802 -0.6083 -0.2297  0.2494
  540TIP3    H1 1577   3.518   1.578   0.781 -0.2622 -0.4770  0.9177
  540TIP3    H2 1578   3.464   1.703   0.848 -1.7428  0.5962 -2.1091
  541TIP3   OH2 1579   6.681   4.981   0.102  0.1642  0.1535  0.3243
  541TIP3    H1 1580   6.639   4.895   0.097  0.5251  0.0227 -0.6966
  541TIP3    H2 1581   6.773   4.962   0.118 -0.0123  0.4156  1.7703
  542TIP3   OH2 1582   2.176   3.742   0.787  0.7019 -0.3357 -0.1307
  542TIP3    H1 1583   2.105   3.763   0.726  0.4816 -0.2374  0.1597
  542TIP3    H2 1584   2.132   3.720   0.869  0.9794 -0.8868 -0.1263
  543TIP3   OH2 1585   0.047   2.996   3.164  0.1255  0.2782 -0.5750
  543TIP3    H1 1586  -0.015   3.045   3.218  0.5049  2.9172 -2.3716
  543TIP3    H2 1587  -0.007   2.959   3.094  0.2802  0.8220 -0.9843
  544TIP3   OH2 1588   7.471   4.973   2.245 -0.2396 -0.6408  0.5975
  544TIP3    H1 1589   7.494   4.918   2.319  2.3493 -0.8735 -0.2860
  544TIP3    H2 1590   7.426   5.048   2.284  0.4690 -1.0620  2.3124
  545TIP3   OH2 1591   4.562   2.912   5.847 -0.0842 -0.4821 -0.2314
  545TIP3    H1 1592   4.569   2.817   5.851  0.6199 -0.3885  1.6794
  545TIP3    H2 1593   4.504   2.935   5.920  3.7687  0.7979  2.8169
  546TIP3   OH2 1594   5.431   4.014   3.997 -0.0535 -0.3039  0.1285
  546TIP3    H1 1595   5.481   4.037   3.918 -0.9156 -0.4671 -0.4739
  546TIP3    H2 1596   5.347   3.983   3.964 -0.4012 -0.4391  1.1173
  547TIP3   OH2 1597   3.743   2.346   5.345  0.2395  0.0570 -0.0683
  547TIP3    H1 1598   3.726   2.420   5.403 -1.4838 -1.0592  0.9358
  547TIP3    H2 1599   3.833   2.358   5.316  0.8829  1.1073  2.1712
  548TIP3   OH2 1600   7.212   7.424   0.377  0.5964 -0.0851 -0.0006
  548TIP3    H1 1601   7.267   7.467   0.312 -0.2668  1.9836  0.5537
  548TIP3    H2 1602   7.131   7.476   0.379 -0.9521 -2.3228  0.0521
  549TIP3   OH2 1603   2.143   6.865   2.854 -0.7689 -0.4342  0.2479
  549TIP3    H1 1604   2.136   6.895   2.763 -1.3106  0.7095  0.6461
  549TIP3    H2 1605   2.072   6.801   2.863 -0.2093 -1.1602 -0.3452
  550TIP3   OH2 1606   7.545   7.072   5.221 -0.0206 -0.2934 -0.9314
  550TIP3    H1 1607   7.515   7.060   5.311 -0.3441  0.6829 -0.8916
  550TIP3    H2 1608   7.636   7.044   5.222  0.4710  1.2037  0.1023
  551TIP3   OH2 1609   7.909   0.386   5.171 -0.1756 -0.5011  0.3897
  551TIP3    H1 1610   7.927   0.292   5.177  0.3723 -0.4442 -0.2757
  551TIP3    H2 1611   7.974   0.419   5.109 -2.0642 -0.1752 -1.5548
  552TIP3   OH2 1612   5.663   6.314   1.816 -0.6331  0.5056 -0.5062
  552TIP3    H1 1613   5.568   6.315   1.804 -0.9499 -0.0579  1.5849
  552TIP3    H2 1614   5.693   6.239   1.764 -1.5805 -0.4239  0.2628
  553TIP3   OH2 1615   6.155   2.442   0.595  0.0333 -0.4388  0.0515
  553TIP3    H1 1616   6.166   2.534   0.620  1.0287  0.2720 -2.6190
  553TIP3    H2 1617   6.190   2.392   0.669 -1.0607  1.2643  1.8154
  554TIP3   OH2 1618   3.089   0.903   1.894 -0.4963 -0.0809 -0.4562
  554TIP3    H1 1619   3.120   0.821   1.856  1.0641  0.7850 -1.1527
  554TIP3    H2 1620   3.036   0.943   1.825  0.7280  0.5806 -1.0514
  555TIP3   OH2 1621   4.200   6.959   3.222 -0.4639  0.3406 -0.4709
  555TIP3    H1 1622   4.115   6.979   3.261 -1.3667 -2.3530 -0.8403
  555TIP3    H2 1623   4.257   6.941   3.298 -0.2247  1.9220 -0.2349
  556TIP3   OH2 1624   4.383   7.316   3.664  0.1019 -0.3191 -0.5288
  556TIP3    H1 1625   4.310   7.344   3.718  0.0292  0.2458 -0.9143
  556TIP3    H2 1626   4.399   7.389   3.605  1.5091 -0.1088  0.0776
  557TIP3   OH2 1627   5.546   3.908   4.892 -0.8510  0.0233 -0.2567
  557TIP3    H1 1628   5.583   3.988   4.929 -0.2943 -0.1141 -0.5057
  557TIP3    H2 1629   5.612   3.877   4.830 -0.6910 -1.0671  0.4203
  558TIP3   OH2 1630   8.101   3.989   2.814 -0.4559  0.4516 -0.4606
  558TIP3    H1 1631   8.134   3.900   2.819 -0.5764  0.4694  1.2858
  558TIP3    H2 1632   8.124   4.028   2.899 -1.6478  1.6226 -0.6445
  559TIP3   OH2 1633   4.361   2.212   5.618  0.0235  0.3451  0.5125
  559TIP3    H1 1634   4.415   2.176   5.689 -0.5329 -0.6456  0.4612
  559TIP3    H2 1635   4.424   2.244   5.554  0.5675 -0.4299  0.6357
  560TIP3   OH2 1636   5.347   6.176   5.430 -0.0028 -0.1878  0.5845
  560TIP3    H1 1637   5.328   6.207   5.342 -0.4813 -1.8482  0.0709
  560TIP3    H2 1638   5.284   6.222   5.486  0.7200  1.3541  0.1863
  561TIP3   OH2 1639   5.395   4.416   5.436 -0.9883  0.2876 -0.1810
  561TIP3    H1 1640   5.348   4.411   5.352 -0.8819 -0.9337 -0.1825
  561TIP3    H2 1641   5.327   4.409   5.502 -0.9539  0.0159 -0.1739
  562TIP3   OH2 1642   7.473   5.091   3.723  0.5795 -0.2164  0.2695
  562TIP3    H1 1643   7.512   5.166   3.679 -0.1328 -0.5411 -0.9549
  562TIP3    H2 1644   7.386   5.082   3.683  1.4633 -3.0583 -1.3120
  563TIP3   OH2 1645   0.581   2.617   6.701  0.4820  0.2605  0.0032
  563TIP3    H1 1646   0.490   2.616   6.672  0.4149 -0.1473  0.2249
  563TIP3    H2 1647   0.631   2.593   6.624  0.3814  0.1852 -0.0381
  564TIP3   OH2 1648   2.956   0.770   0.566 -0.1988 -0.1551  0.0168
  564TIP3    H1 1649   2.869   0.794   0.596 -0.3199  0.5878 -0.8841
  564TIP3    H2 1650   3.011   0.845   0.587 -0.0173 -0.1580 -0.4298
  565TIP3   OH2 1651   3.966   3.477   0.616 -0.6032 -0.0478  0.2163
  565TIP3    H1 1652   4.016   3.399   0.638  2.3328  0.6383 -3.0768
  565TIP3    H2 1653   3.979   3.537   0.689  3.5152  0.0195 -0.3445
  566TIP3   OH2 1654   0.442   6.179   3.522 -0.2883  0.5023 -0.4602
  566TIP3    H1 1655   0.399   6.116   3.465 -0.3523  0.1966 -0.0803
  566TIP3    H2 1656   0.439   6.262   3.474  0.3484  0.0873 -1.2282
  567TIP3   OH2 1657   5.195   3.857   0.727 -0.6611 -0.3953  0.2108
  567TIP3    H1 1658   5.107   3.837   0.760 -0.6109 -1.0960 -0.0664
  567TIP3    H2 1659   5.244   3.776   0.739  0.7221  0.6981  2.7907
  568TIP3   OH2 1660   0.698   5.827   5.732  0.7547 -0.3845 -0.1687
  568TIP3    H1 1661   0.638   5.866   5.668  0.1428 -0.2052  0.5034
  568TIP3    H2 1662   0.693   5.733   5.716 -0.2900 -0.4333  0.3664
  569TIP3   OH2 1663   6.989   2.458   4.408  0.2208  0.0212  0.2803
  569TIP3    H1 1664   6.988   2.553   4.408 -0.7852  0.0418  1.1501
  569TIP3    H2 1665   6.968   2.434   4.499 -0.4296 -1.0126 -0.1148
  570TIP3   OH2 1666   3.003   4.346   2.815 -0.3847  0.6273 -0.5029
  570TIP3    H1 1667   3.056   4.361   2.893  1.5733  0.4361 -1.7189
  570TIP3    H2 1668   2.916   4.326   2.848  1.1010 -2.8961  1.8343
  571TIP3   OH2 1669   0.213   2.233   0.142 -0.1925 -0.1492  0.6649
  571TIP3    H1 1670   0.284   2.214   0.203 -0.9396 -0.2399  1.5204
  571TIP3    H2 1671   0.253   2.226   0.055  1.0422  0.6311  1.1516
  572TIP3   OH2 1672   5.568   3.914   4.279 -0.3676 -0.4005  0.1346
  572TIP3    H1 1673   5.663   3.922   4.285 -0.3566 -0.0684 -0.3935
  572TIP3    H2 1674   5.544   3.965   4.202 -0.5868 -3.2749 -1.8994
  573TIP3   OH2 1675   4.063   2.804   6.369  0.0542  1.0131  0.1345
  573TIP3    H1 1676   3.999   2.864   6.331 -1.6472  0.0436  1.3310
  573TIP3    H2 1677   4.072   2.734   6.305  1.1899  1.9118 -0.7509
  574TIP3   OH2 1678   5.553   0.070   5.391 -0.0635  0.2072  0.2132
  574TIP3    H1 1679   5.617   0.107   5.452  1.4477 -1.7427 -0.0839
  574TIP3    H2 1680   5.478   0.049   5.446  0.3745  0.5755  0.9731
  575TIP3   OH2 1681   7.007   1.983   3.449 -0.4725  0.3881  0.2149
  575TIP3    H1 1682   7.009   2.050   3.518  0.0596  0.4326  0.1621
  575TIP3    H2 1683   6.940   1.921   3.479 -0.8011  0.8123  0.3824
  576TIP3   OH2 1684   1.294   4.886   1.788  0.6634  0.0820  0.1077
  576TIP3    H1 1685   1.236   4.949   1.745  0.5439 -0.9514 -1.3145
  576TIP3    H2 1686   1.353   4.940   1.841  0.4793  1.3803 -0.9472
  577TIP3   OH2 1687   2.678   2.227   6.222 -0.2585  0.3509  0.5050
  577TIP3    H1 1688   2.754   2.253   6.274  0.7722 -0.7240 -0.4138
  577TIP3    H2 1689   2.685   2.280   6.142 -0.1090 -0.2049  0.1457
  578TIP3   OH2 1690   6.266   0.011   6.218 -0.3062 -0.3094 -0.2387
  578TIP3    H1 1691   6.280   0.096   6.260  0.3058  0.0086 -1.0629
  578TIP3    H2 1692   6.282  -0.053   6.288  0.9950  0.2018 -0.0442
  579TIP3   OH2 1693   0.693   7.207   1.670 -0.1568 -0.2610 -0.3617
  579TIP3    H1 1694   0.692   7.111   1.673  1.2108 -0.3477 -1.3750
  579TIP3    H2 1695   0.610   7.230   1.627  0.2431 -1.1122 -1.6746
  580TIP3   OH2 1696   8.108   5.299   0.264  1.1300 -0.2004 -0.1826
  580TIP3    H1 1697   8.128   5.348   0.343  0.4498  0.0790 -0.1787
  580TIP3    H2 1698   8.056   5.359   0.211 -0.1559 -1.0753  0.0337
  581TIP3   OH2 1699   5.262   7.241   2.913  0.0432  0.0820  0.0980
  581TIP3    H1 1700   5.313   7.323   2.914  0.4180 -0.1083 -1.0550
  581TIP3    H2 1701   5.187   7.258   2.970 -0.2943  1.5127 -0.7221
  582TIP3   OH2 1702   7.283   3.197   4.577 -0.1571 -0.2679 -0.4018
  582TIP3    H1 1703   7.335   3.214   4.498  0.5042 -0.7541 -0.0798
  582TIP3    H2 1704   7.239   3.114   4.558 -0.6467  0.0322 -0.5856
  583TIP3   OH2 1705   1.029   7.314   0.616 -0.3294  0.2031  0.6961
  583TIP3    H1 1706   1.095   7.245   0.617 -0.5554 -0.0557  2.8729
  583TIP3    H2 1707   0.950   7.271   0.583  0.1870  0.1482 -0.5218
  584TIP3   OH2 1708   5.640   0.551   4.117  0.1394 -0.3722  0.7510
  584TIP3    H1 1709   5.601   0.472   4.155  0.2994 -0.0714  1.5461
  584TIP3    H2 1710   5.720   0.520   4.073  0.6334 -0.5481  1.7491
  585TIP3   OH2 1711   1.072   7.058   2.011  0.0066  0.0909  0.3856
  585TIP3    H1 1712   0.998   7.119   2.002 -0.0706 -0.1996 -1.2554
  585TIP3    H2 1713   1.038   6.975   1.979  0.7573 -0.2815  0.5388
  586TIP3   OH2 1714   6.363   6.816   5.666 -0.3422  0.2719  0.1582
  586TIP3    H1 1715   6.327   6.765   5.593 -0.5278  0.6500 -0.0207
  586TIP3    H2 1716   6.427   6.874   5.626  0.2678 -0.1929  0.4378
  587TIP3   OH2 1717   1.644   1.829   6.515 -0.1101 -0.0137  0.3637
  587TIP3    H1 1718   1.555   1.829   6.548 -0.6076 -1.3388 -0.8757
  587TIP3    H2 1719   1.697   1.798   6.588 -0.8094 -0.2989  0.7583
  588TIP3   OH2 1720   8.032   7.265   4.540 -0.1225 -0.4904  0.0792
  588TIP3    H1 1721   8.016   7.338   4.600 -0.2732  0.0147 -0.5683
  588TIP3    H2 1722   8.055   7.306   4.457  1.4671 -1.1817  0.1379
  589TIP3   OH2 1723   6.372   0.821   1.549 -0.0964 -0.1928  0.3741
  589TIP3    H1 1724   6.408   0.771   1.476  0.6327  0.9570 -0.0933
  589TIP3    H2 1725   6.304   0.765   1.586  0.1224 -1.1604 -0.6407
  590TIP3   OH2 1726   3.833   0.309   2.998 -0.6089 -0.2817  0.1005
  590TIP3    H1 1727   3.820   0.400   3.025 -2.1121 -0.4420  0.0235
  590TIP3    H2 1728   3.744   0.274   2.987 -0.0681 -1.3147 -1.3822
  591TIP3   OH2 1729   6.936   0.241   1.270 -0.0257 -0.2687 -0.0346
  591TIP3    H1 1730   6.863   0.194   1.230 -0.3619  1.8452 -2.0878
  591TIP3    H2 1731   6.898   0.286   1.345 -1.1633  1.6595 -1.6844
  592TIP3   OH2 1732   6.364   2.611   4.935 -0.3447 -0.2189  0.3925
  592TIP3    H1 1733   6.350   2.524   4.897 -0.7611 -0.3775  0.8974
  592TIP3    H2 1734   6.432   2.597   5.001  0.3992  0.0611 -0.3025
  593TIP3   OH2 1735   0.512   4.259   4.045 -0.5716  0.2104 -0.3485
  593TIP3    H1 1736   0.518   4.203   4.122  1.8106  0.0340 -0.5723
  593TIP3    H2 1737   0.497   4.347   4.080  1.6993  0.3352  0.4695
  594TIP3   OH2 1738   2.435   6.628   2.229  0.4316  0.1092  0.2733
  594TIP3    H1 1739   2.386   6.648   2.309 -2.1819  0.3032 -1.2650
  594TIP3    H2 1740   2.464   6.714   2.197 -0.4393  0.2572 -0.1267
  595TIP3   OH2 1741   0.542   6.668   0.618 -0.0869 -0.2997 -0.5236
  595TIP3    H1 1742   0.520   6.580   0.650  0.6122  0.2583  1.6908
  595TIP3    H2 1743   0.458   6.711   0.604 -0.4350 -0.6727  0.3636
  596TIP3   OH2 1744   6.140   5.791   4.443  0.0884 -0.0575 -0.2576
  596TIP3    H1 1745   6.194   5.840   4.505  0.4720 -0.5865 -0.1655
  596TIP3    H2 1746   6.203   5.741   4.391 -0.2421  0.2569 -0.9685
  597TIP3   OH2 1747   0.574   6.657   4.239  0.7727 -0.5776 -0.2116
  597TIP3    H1 1748   0.601   6.586   4.298  0.5165  0.0973  0.7403
  597TIP3    H2 1749   0.595   6.737   4.286 -2.4260  0.0266  0.4700
  598TIP3   OH2 1750   1.746   6.385   2.180  0.2843 -0.3580 -0.5510
  598TIP3    H1 1751   1.673   6.436   2.215 -0.7025 -1.9300 -0.2206
  598TIP3    H2 1752   1.716   6.357   2.093  1.1909  0.3782 -1.1129
  599TIP3   OH2 1753   7.359   7.083   0.845 -0.1102  0.8741 -0.5332
  599TIP3    H1 1754   7.344   7.080   0.751 -0.7323  2.3271 -0.5153
  599TIP3    H2 1755   7.439   7.133   0.856  0.3092  0.1684 -0.3006
  600TIP3   OH2 1756   0.390   6.282   6.286 -0.6736  0.6185 -0.3202
  600TIP3    H1 1757   0.324   6.349   6.303 -0.5920  0.2535  1.7361
  600TIP3    H2 1758   0.354   6.203   6.326 -0.1298 -0.2228 -1.4607
  601TIP3   OH2 1759   1.141   4.379   5.512 -0.1103 -0.2585 -0.7579
  601TIP3    H1 1760   1.228   4.343   5.532  0.0185 -0.2934 -1.3396
  601TIP3    H2 1761   1.158   4.469   5.484 -0.4851  0.4705  1.2134
  602TIP3   OH2 1762   5.415   4.716   2.400 -0.2927 -0.1087  0.3716
  602TIP3    H1 1763   5.336   4.704   2.452  0.0700 -0.9085  0.7662
  602TIP3    H2 1764   5.385   4.754   2.318 -0.8322  1.5870  1.3142
  603TIP3   OH2 1765   4.504   1.312   6.198  0.1284 -0.1079  0.8936
  603TIP3    H1 1766   4.574   1.343   6.140 -1.4344  2.5526  0.2232
  603TIP3    H2 1767   4.463   1.240   6.150 -0.3184  1.2073 -0.8049
  604TIP3   OH2 1768   1.009   4.122   3.513 -0.0759 -0.1318  0.3213
  604TIP3    H1 1769   0.923   4.162   3.497 -0.0103 -0.2372 -0.3353
  604TIP3    H2 1770   1.001   4.081   3.599 -0.0908  1.4425  1.1140
  605TIP3   OH2 1771   5.565   4.453   1.178  0.0286 -0.3378  0.0910
  605TIP3    H1 1772   5.529   4.408   1.254 -0.2248  0.5019  0.4775
  605TIP3    H2 1773   5.491   4.497   1.138  0.3434  0.0843 -0.0362
  606TIP3   OH2 1774   5.340   7.383   5.704  0.2900 -0.7942 -0.3597
  606TIP3    H1 1775   5.262   7.333   5.730 -0.1533 -0.0780 -0.2639
  606TIP3    H2 1776   5.316   7.474   5.722  1.6697 -0.6665  0.9836
  607TIP3   OH2 1777   3.080   5.667   5.066  0.6198 -0.3949  0.1578
  607TIP3    H1 1778   3.059   5.582   5.104  0.0273 -0.7410 -0.9161
  607TIP3    H2 1779   3.116   5.646   4.979 -2.1735  0.5021 -1.3396
  608TIP3   OH2 1780   5.135   4.651   5.596  0.1288 -0.3747 -0.1002
  608TIP3    H1 1781   5.131   4.566   5.554  1.8279 -0.4818 -0.1417
  608TIP3    H2 1782   5.207   4.696   5.552 -1.2135  1.3906 -0.5906
  609TIP3   OH2 1783   6.987   3.134   5.031 -0.2719  0.2508 -0.7083
  609TIP3    H1 1784   7.082   3.119   5.029 -0.4175 -0.9614  0.1888
  609TIP3    H2 1785   6.953   3.065   5.088 -1.5239  1.6504  0.3344
  610TIP3   OH2 1786   6.035   6.717   6.306 -0.6638 -0.2643  0.2858
  610TIP3    H1 1787   6.071   6.751   6.225  0.7138 -2.1796  0.0390
  610TIP3    H2 1788   5.966   6.656   6.278  1.3980 -2.7915  0.3235
  611TIP3   OH2 1789   2.930   3.046   4.591 -0.1416  0.0381  0.3721
  611TIP3    H1 1790   2.920   2.968   4.536 -2.6267  0.1455  0.5492
  611TIP3    H2 1791   2.998   3.022   4.654  2.3011 -0.3279 -2.2059
  612TIP3   OH2 1792   5.179   1.692   3.913  0.6899 -0.6390 -0.3899
  612TIP3    H1 1793   5.177   1.647   3.998  0.1993  0.8834  0.4396
  612TIP3    H2 1794   5.253   1.751   3.920  0.0528  0.2023 -0.6308
  613TIP3   OH2 1795   2.424   7.216   0.013  0.2016 -0.1972  0.1289
  613TIP3    H1 1796   2.342   7.261   0.028 -1.8165 -4.1107  2.5926
  613TIP3    H2 1797   2.491   7.275   0.050 -2.1805  0.8557  3.2579
  614TIP3   OH2 1798   1.318   7.155   1.469 -0.8457 -0.3729 -0.1100
  614TIP3    H1 1799   1.312   7.162   1.373 -2.3752 -2.0619 -0.2004
  614TIP3    H2 1800   1.261   7.081   1.491  1.5712 -1.7967  1.8663
  615TIP3   OH2 1801   1.248   0.622   5.978  0.1732 -0.0383 -0.4226
  615TIP3    H1 1802   1.196   0.702   5.986  0.2832  0.1142 -1.2369
  615TIP3    H2 1803   1.339   0.653   5.972  0.4200 -0.3114  1.2493
  616TIP3   OH2 1804   7.730   6.025   0.968 -0.5970  0.4216 -0.0731
  616TIP3    H1 1805   7.646   6.030   1.013 -0.8832  0.0812 -0.5625
  616TIP3    H2 1806   7.742   6.112   0.929 -1.5882 -0.0611 -1.5227
  617TIP3   OH2 1807   6.323   0.416   2.148 -0.1032 -0.2496  0.1160
  617TIP3    H1 1808   6.326   0.405   2.243  0.7309  0.3714  0.1717
  617TIP3    H2 1809   6.249   0.475   2.133 -1.0087 -1.3144  0.2682
  618TIP3   OH2 1810   3.753   1.902   3.862  0.3075  0.1417  0.0593
  618TIP3    H1 1811   3.806   1.826   3.889  0.6747  0.0726 -0.7978
  618TIP3    H2 1812   3.689   1.913   3.932  2.5976  1.3756  2.1037
  619TIP3   OH2 1813   7.577   6.264   1.953  0.3907 -0.0754  0.3952
  619TIP3    H1 1814   7.642   6.334   1.954  0.3162 -0.0028  1.3185
  619TIP3    H2 1815   7.499   6.304   1.993  0.3956 -0.7244  1.0639
  620TIP3   OH2 1816   0.434   7.501   5.339  0.1100  0.3229 -0.4622
  620TIP3    H1 1817   0.397   7.424   5.296 -0.6210  0.7750 -0.6612
  620TIP3    H2 1818   0.444   7.475   5.431 -2.2987  0.7093 -0.0271
  621TIP3   OH2 1819   7.946   7.545   6.044 -0.0839  0.0548 -0.1925
  621TIP3    H1 1820   7.937   7.525   6.137  0.7806  0.2940 -0.0507
  621TIP3    H2 1821   7.870   7.600   6.024 -0.3281 -0.0792  0.3403
  622TIP3   OH2 1822   2.565   6.971   3.997  0.3818 -0.0138 -0.1679
  622TIP3    H1 1823   2.526   6.955   4.083  1.5333 -1.0575  0.1841
  622TIP3    H2 1824   2.515   6.915   3.937 -0.8074  1.1486 -0.3191
  623TIP3   OH2 1825   1.566   3.640   5.402 -0.2686  0.0810 -0.5047
  623TIP3    H1 1826   1.649   3.655   5.447 -0.3525  0.4662 -0.4715
  623TIP3    H2 1827   1.521   3.724   5.406 -0.3868  0.0519 -1.0861
  624TIP3   OH2 1828   4.924   4.907   0.138  0.4796  0.5943  0.6130
  624TIP3    H1 1829   4.956   4.941   0.054  0.3751 -1.0454 -0.1267
  624TIP3    H2 1830   4.952   4.816   0.139 -0.1542  0.3902  2.0567
  625TIP3   OH2 1831   2.656   5.387   2.608  0.1368 -0.1564  0.2412
  625TIP3    H1 1832   2.725   5.453   2.601  0.4434 -0.4812  0.1700
  625TIP3    H2 1833   2.579   5.429   2.571  0.4241  0.0379 -0.1451
  626TIP3   OH2 1834   2.260   3.415   5.714  0.3589  0.4565  0.3108
  626TIP3    H1 1835   2.286   3.473   5.642 -0.0162 -0.7469 -0.8317
  626TIP3    H2 1836   2.339   3.366   5.736 -0.2858 -1.7270 -1.7698
  627TIP3   OH2 1837   6.484   2.435   0.273 -0.2320  0.0547 -0.1833
  627TIP3    H1 1838   6.559   2.464   0.221  1.1760  0.0510  1.7286
  627TIP3    H2 1839   6.495   2.340   0.277  0.1392  0.1299  0.7613
  628TIP3   OH2 1840   3.462   6.166   4.311 -0.2299  0.1313  0.4524
  628TIP3    H1 1841   3.535   6.136   4.364  0.0824 -0.1459 -0.1272
  628TIP3    H2 1842   3.409   6.219   4.371  0.8531  0.9917  0.6948
  629TIP3   OH2 1843   0.263   4.044   1.206  0.2836 -0.4613  0.0031
  629TIP3    H1 1844   0.262   4.121   1.149  1.8027 -0.4934 -0.1220
  629TIP3    H2 1845   0.347   4.001   1.186 -0.4066 -1.9997  0.2686
  630TIP3   OH2 1846   6.372   5.378   6.704 -0.0280 -0.7464  0.5039
  630TIP3    H1 1847   6.309   5.397   6.634  1.6736  0.8208 -0.6965
  630TIP3    H2 1848   6.354   5.443   6.772  0.8807  0.3709 -0.2821
  631TIP3   OH2 1849   1.876   7.660   2.122 -0.3650 -0.0408  0.5363
  631TIP3    H1 1850   1.933   7.733   2.100 -0.4549  0.5075  2.0522
  631TIP3    H2 1851   1.889   7.597   2.051  1.0041  0.7077  0.1053
  632TIP3   OH2 1852   4.262   3.377   3.676 -0.5000  0.0451  0.7106
  632TIP3    H1 1853   4.289   3.446   3.736  1.1280 -0.5830  0.7500
  632TIP3    H2 1854   4.180   3.409   3.638 -0.1210  1.6984  1.2014
  633TIP3   OH2 1855   6.857   0.034   2.820 -0.1893 -0.4178  0.1140
  633TIP3    H1 1856   6.775   0.058   2.862  0.3262  0.6931  0.5273
  633TIP3    H2 1857   6.893   0.117   2.788  1.3270 -0.7111  0.9651
  634TIP3   OH2 1858   7.528   5.832   3.008  0.0728  0.3194  0.1392
  634TIP3    H1 1859   7.458   5.871   3.062  0.8640 -0.7922  2.0841
  634TIP3    H2 1860   7.572   5.907   2.968 -0.2826  1.2638  1.4380
  635TIP3   OH2 1861   4.686   1.694   0.452  0.8786  0.5164 -0.4042
  635TIP3    H1 1862   4.658   1.731   0.536  0.3849  0.5755 -0.5937
  635TIP3    H2 1863   4.609   1.701   0.396  0.9561 -0.2859 -0.6140
  636TIP3   OH2 1864   2.808   6.038   0.581 -1.1123  0.1674  0.2283
  636TIP3    H1 1865   2.833   6.012   0.493  0.5005 -0.3050  0.7842
  636TIP3    H2 1866   2.854   6.120   0.597 -1.1339  0.0862  0.7421
  637TIP3   OH2 1867   5.266   2.515   6.248 -0.4033 -0.5968 -0.2856
  637TIP3    H1 1868   5.360   2.534   6.246 -0.6043  0.5328  0.1532
  637TIP3    H2 1869   5.257   2.433   6.200  0.9602 -1.3778  0.7234
  638TIP3   OH2 1870   1.348   7.098   0.899  0.4195 -0.6270  0.1734
  638TIP3    H1 1871   1.438   7.086   0.868  0.0167  0.8999 -1.7687
  638TIP3    H2 1872   1.295   7.048   0.837 -0.1202 -1.4875  1.2882
  639TIP3   OH2 1873   5.818   0.863   3.288 -1.0577  0.4554  0.9917
  639TIP3    H1 1874   5.869   0.860   3.369  0.1470 -1.0841  0.2458
  639TIP3    H2 1875   5.766   0.943   3.295  1.7447  2.3654  1.6496
  640TIP3   OH2 1876   3.432   4.982   5.142  0.4750 -0.6132  0.0141
  640TIP3    H1 1877   3.511   5.021   5.104 -0.1298  2.3063  1.4458
  640TIP3    H2 1878   3.410   4.910   5.083  4.8891 -2.5029  0.2598
  641TIP3   OH2 1879   7.619   2.672   5.023  0.0993  0.6204 -0.2608
  641TIP3    H1 1880   7.619   2.620   4.943  1.1945 -1.5218  1.0287
  641TIP3    H2 1881   7.697   2.727   5.016  0.9228 -0.4928 -0.1511
  642TIP3   OH2 1882   6.954   3.200   2.490  0.2211  0.0368  0.6871
  642TIP3    H1 1883   7.027   3.257   2.515  0.9379 -0.9159  0.8425
  642TIP3    H2 1884   6.991   3.112   2.492 -0.9063 -0.4568  0.6326
  643TIP3   OH2 1885   6.962   3.741   1.891 -0.2345 -0.9015 -0.0069
  643TIP3    H1 1886   6.882   3.750   1.942  0.2100  1.7588  0.3627
  643TIP3    H2 1887   6.936   3.762   1.801  0.2401  1.5436  0.3558
  644TIP3   OH2 1888   6.202   2.934   5.456  0.2951 -0.1300  0.0599
  644TIP3    H1 1889   6.151   2.953   5.378  0.8968  2.0915  0.1357
  644TIP3    H2 1890   6.293   2.927   5.425  0.2858 -1.5641  0.2743
  645TIP3   OH2 1891   3.011   5.000   6.562  0.5099  0.2920  0.5781
  645TIP3    H1 1892   2.991   5.010   6.469  0.3161  2.8596  0.7977
  645TIP3    H2 1893   3.065   5.077   6.583  1.8160 -1.0064  2.2849
  646TIP3   OH2 1894   6.692   0.341   1.056  0.1698 -0.0515 -0.5468
  646TIP3    H1 1895   6.748   0.271   1.090 -0.1221 -0.7201 -1.3922
  646TIP3    H2 1896   6.634   0.364   1.129  0.0085 -0.9731 -0.3704
  647TIP3   OH2 1897   4.538   0.556   2.451 -0.1637  0.3797  0.0059
  647TIP3    H1 1898   4.483   0.504   2.511  0.0959 -1.2821 -1.1224
  647TIP3    H2 1899   4.476   0.605   2.398 -0.5324 -0.3117 -0.2248
  648TIP3   OH2 1900   0.379   5.495   5.670  0.0056 -0.0620 -0.1035
  648TIP3    H1 1901   0.323   5.572   5.671  1.7517  1.2606  0.3274
  648TIP3    H2 1902   0.320   5.422   5.692 -1.2795  1.4281  1.7141
  649TIP3   OH2 1903   3.134   3.517   1.493  0.1029  0.2191 -0.6269
  649TIP3    H1 1904   3.150   3.451   1.425  0.4252 -1.0883  0.6697
  649TIP3    H2 1905   3.101   3.593   1.445  0.1106 -0.7331 -2.2195
  650TIP3   OH2 1906   7.946   7.537   1.756  0.4074  0.1738  0.3627
  650TIP3    H1 1907   7.964   7.518   1.664 -0.4398  1.0742 -0.0015
  650TIP3    H2 1908   8.022   7.586   1.786  0.3000  0.6388 -0.1074
  651TIP3   OH2 1909   5.420   3.579   4.958  0.1525 -0.0957  0.0036
  651TIP3    H1 1910   5.509   3.574   4.925 -0.0511 -2.8044 -0.4018
  651TIP3    H2 1911   5.369   3.525   4.897 -1.2996 -0.5343  1.5212
  652TIP3   OH2 1912   5.081   6.309   2.579  0.1333  0.2148 -0.0962
  652TIP3    H1 1913   5.153   6.247   2.589  0.2771  0.4742  0.5182
  652TIP3    H2 1914   5.118   6.383   2.531  0.3161  0.4071  0.3374
  653TIP3   OH2 1915   1.928   3.321   5.002 -0.2426 -0.3888  0.0920
  653TIP3    H1 1916   1.927   3.415   4.985  0.1222 -0.6853 -1.7478
  653TIP3    H2 1917   1.835   3.296   5.001 -0.3883  0.0296  1.2550
  654TIP3   OH2 1918   2.609   7.380   3.074  0.4355  0.3373 -0.3227
  654TIP3    H1 1919   2.623   7.292   3.109 -2.0791  0.2929  0.8057
  654TIP3    H2 1920   2.515   7.386   3.060  0.6001  2.6749 -0.9161
  655TIP3   OH2 1921   7.768   1.630   2.169 -0.0135  0.0735  0.4301
  655TIP3    H1 1922   7.807   1.624   2.256 -0.3459  0.2705  0.5964
  655TIP3    H2 1923   7.695   1.691   2.180 -0.0851  0.0635  0.0235
  656TIP3   OH2 1924   3.824   0.958   6.235  0.4106  0.1205  0.1221
  656TIP3    H1 1925   3.772   0.884   6.205 -0.7578  0.0227  2.2041
  656TIP3    H2 1926   3.834   1.013   6.157 -0.0598 -1.4187 -1.0799
  657TIP3   OH2 1927   5.169   4.778   2.936  0.0560  0.2305  0.1238
  657TIP3    H1 1928   5.237   4.820   2.988 -0.1317  1.5178 -0.6018
  657TIP3    H2 1929   5.217   4.722   2.874  0.3274 -0.4720  0.9579
  658TIP3   OH2 1930   0.396   1.854   3.837  0.0311 -0.1530 -0.3524
  658TIP3    H1 1931   0.410   1.839   3.931 -0.4607 -0.6059 -0.3455
  658TIP3    H2 1932   0.461   1.799   3.794  0.2958  0.0990 -0.2806
  659TIP3   OH2 1933   6.469   3.881   0.203  0.3058  0.0785 -0.4455
  659TIP3    H1 1934   6.492   3.950   0.266  1.1555  0.9910 -1.7111
  659TIP3    H2 1935   6.407   3.826   0.250  2.0817 -0.1946  1.7427
  660TIP3   OH2 1936   6.875   7.372   5.254 -0.2724 -0.3514 -0.1273
  660TIP3    H1 1937   6.854   7.319   5.177 -1.8979  0.4438 -0.2715
  660TIP3    H2 1938   6.810   7.347   5.319 -0.2882  0.5755  0.2285
  661TIP3   OH2 1939   0.729   7.162   3.028 -0.2232 -0.4010 -0.0681
  661TIP3    H1 1940   0.648   7.212   3.037 -0.1774  0.3274 -2.7374
  661TIP3    H2 1941   0.718   7.113   2.946  2.2450  0.2865 -0.9087
  662TIP3   OH2 1942   3.465   6.666   5.455 -0.0674 -0.6628  0.2929
  662TIP3    H1 1943   3.420   6.605   5.396  2.5982 -1.6742 -0.9071
  662TIP3    H2 1944   3.463   6.750   5.409  0.9176 -1.1649 -0.7362
  663TIP3   OH2 1945   1.247   6.235   6.772 -0.5305 -0.3852 -0.1731
  663TIP3    H1 1946   1.227   6.168   6.707 -1.1578  0.6559 -1.0848
  663TIP3    H2 1947   1.330   6.207   6.810 -1.1048 -2.0398 -0.0220
  664TIP3   OH2 1948   1.381   1.889   3.425  0.1766  0.1335  0.3847
  664TIP3    H1 1949   1.300   1.938   3.410  1.0834  1.3871 -0.6025
  664TIP3    H2 1950   1.447   1.957   3.438  1.1052 -0.8776  1.0267
  665TIP3   OH2 1951   2.426   0.188   2.929  0.2532  0.1387 -0.0808
  665TIP3    H1 1952   2.422   0.140   3.011 -0.2160 -2.0483 -1.2858
  665TIP3    H2 1953   2.519   0.206   2.915  0.3268  0.5869  0.9314
  666TIP3   OH2 1954   7.932  -0.010   6.580 -0.2697  0.3554 -0.5521
  666TIP3    H1 1955   8.026   0.010   6.574 -0.0736  0.1942  1.3554
  666TIP3    H2 1956   7.901   0.045   6.653 -1.8090  0.8751 -1.5639
  667TIP3   OH2 1957   0.746   5.689   6.367 -0.1434  0.5452 -0.5400
  667TIP3    H1 1958   0.802   5.765   6.378  0.7932 -0.1354 -0.5456
  667TIP3    H2 1959   0.751   5.643   6.450 -0.1702  0.1352 -0.7644
  668TIP3   OH2 1960   0.759   4.781   0.905 -0.6787  0.1034  0.0999
  668TIP3    H1 1961   0.821   4.853   0.916 -0.4336 -0.1351  0.2694
  668TIP3    H2 1962   0.722   4.794   0.817 -0.0218 -0.0453 -0.2026
  669TIP3   OH2 1963   0.081   5.713   4.748 -0.3867 -0.7339  0.5024
  669TIP3    H1 1964   0.104   5.801   4.718 -1.1298  0.4823  3.1434
  669TIP3    H2 1965   0.080   5.660   4.669  2.6619  1.0070 -0.8929
  670TIP3   OH2 1966   0.274   0.350   1.245  0.6510  0.2059  0.4073
  670TIP3    H1 1967   0.291   0.406   1.169  1.7910 -0.6060  0.0358
  670TIP3    H2 1968   0.186   0.316   1.231  0.3391  1.0833  0.1280
  671TIP3   OH2 1969   5.795   7.470   3.239  0.1405 -0.0934  0.3128
  671TIP3    H1 1970   5.837   7.552   3.266  0.7582 -0.4059  0.3039
  671TIP3    H2 1971   5.793   7.474   3.144 -2.0021  0.9897  0.3278
  672TIP3   OH2 1972   4.971   2.956   3.351 -0.3319 -0.6959 -0.1771
  672TIP3    H1 1973   4.973   3.029   3.288  1.3916 -0.6345 -0.0941
  672TIP3    H2 1974   4.879   2.950   3.377 -0.6116  1.1260 -0.5676
  673TIP3   OH2 1975   3.402   7.618   1.278  0.4994 -0.1422  0.2877
  673TIP3    H1 1976   3.364   7.550   1.333 -2.1119  0.3575 -0.7138
  673TIP3    H2 1977   3.419   7.574   1.194  0.2240  0.0761  0.1137
  674TIP3   OH2 1978   2.488   1.295   6.338 -0.5296  0.2104 -0.5920
  674TIP3    H1 1979   2.424   1.228   6.364 -0.9632  0.2114 -1.5945
  674TIP3    H2 1980   2.529   1.259   6.259  2.0731 -0.6333  1.0186
  675TIP3   OH2 1981   3.976   2.154   5.507  0.1332  0.3648  0.2956
  675TIP3    H1 1982   3.907   2.129   5.569  1.9941  0.1628  2.4320
  675TIP3    H2 1983   4.022   2.226   5.551  1.1099  0.6914 -1.2074
  676TIP3   OH2 1984   5.855   4.070   4.528 -0.3510 -0.2471 -0.0165
  676TIP3    H1 1985   5.897   4.147   4.490 -2.0338 -0.1176 -1.7188
  676TIP3    H2 1986   5.831   4.016   4.453 -2.2400 -0.8087  0.9467
  677TIP3   OH2 1987   3.176   5.795   5.377 -0.1078 -0.2557  0.3665
  677TIP3    H1 1988   3.084   5.780   5.354 -0.0604 -0.0553  0.0436
  677TIP3    H2 1989   3.225   5.770   5.299  0.0795  0.0409  0.3890
  678TIP3   OH2 1990   1.949   1.424   1.210 -0.2411 -0.3907 -0.3652
  678TIP3    H1 1991   2.044   1.412   1.204  0.0982  2.2187 -1.1196
  678TIP3    H2 1992   1.918   1.417   1.120 -1.0627 -2.7559  0.0225
  679TIP3   OH2 1993   1.445   6.684   4.510  0.2781  0.6018  0.0312
  679TIP3    H1 1994   1.523   6.718   4.465  1.1659  0.1051  1.1359
  679TIP3    H2 1995   1.474   6.601   4.548 -0.6343  0.6595  0.8960
  680TIP3   OH2 1996   0.314   3.912   6.738 -0.2507  0.1489 -0.7217
  680TIP3    H1 1997   0.338   3.930   6.647 -0.0136 -1.4864 -1.0006
  680TIP3    H2 1998   0.335   3.820   6.751  2.6891  1.0097  1.9440
  681TIP3   OH2 1999   4.957   5.599   5.195  0.4508  0.7312  0.7774
  681TIP3    H1 2000   4.909   5.678   5.221  0.2617  1.0841 -0.5867
  681TIP3    H2 2001   4.977   5.556   5.278 -0.7627  1.4290  1.4747
  682TIP3   OH2 2002   2.962   7.475   3.528  0.0979 -1.2179  0.5905
  682TIP3    H1 2003   3.051   7.491   3.559  0.0135  0.2202  0.1335
  682TIP3    H2 2004   2.915   7.556   3.548 -0.7940 -1.5089 -0.2956
  683TIP3   OH2 2005   5.750   2.770   5.262  0.0792  0.8785  0.5040
  683TIP3    H1 2006   5.709   2.745   5.344  2.0617 -0.4933  1.1630
  683TIP3    H2 2007   5.809   2.841   5.285 -2.2021  3.2650 -0.5383
  684TIP3   OH2 2008   3.670   7.755   3.807  0.4115  0.7156  0.1170
  684TIP3    H1 2009   3.694   7.691   3.873  0.9020 -0.1341 -0.8630
  684TIP3    H2 2010   3.706   7.838   3.838 -0.1774  0.5230  1.3626
  685TIP3   OH2 2011   7.810   5.213   0.322  0.3148 -0.2551  0.3474
  685TIP3    H1 2012   7.889   5.167   0.295  0.7878  1.4240 -1.2985
  685TIP3    H2 2013   7.822   5.229   0.415  1.4516 -0.8899  0.3249
  686TIP3   OH2 2014   6.827   4.162   2.924 -0.5897  0.1522  0.4939
  686TIP3    H1 2015   6.848   4.248   2.890 -0.2770 -0.1113  0.0036
  686TIP3    H2 2016   6.855   4.164   3.015 -3.2381  1.5337  1.3898
  687TIP3   OH2 2017   7.173   4.062   6.246  0.7174 -0.5153  0.0147
  687TIP3    H1 2018   7.184   4.018   6.331  2.6068  0.0485  0.1017
  687TIP3    H2 2019   7.256   4.047   6.201 -0.0710 -0.3488 -1.5462
  688TIP3   OH2 2020   0.857   0.406   0.052  0.4153  0.2704  0.1591
  688TIP3    H1 2021   0.828   0.492   0.083 -1.6169  0.0972 -1.0806
  688TIP3    H2 2022   0.939   0.390   0.099  1.0875  3.0650  0.1093
  689TIP3   OH2 2023   6.707   4.868   2.850  0.3910  0.2277  0.5858
  689TIP3    H1 2024   6.683   4.948   2.803  1.0176 -0.2741 -0.6125
  689TIP3    H2 2025   6.733   4.806   2.782 -0.2342 -1.0685  1.4832
  690TIP3   OH2 2026   6.769   4.450   3.924  0.4247  0.1117  0.1168
  690TIP3    H1 2027   6.697   4.390   3.905  0.0379  1.1025 -1.6813
  690TIP3    H2 2028   6.736   4.537   3.901  1.1788  0.9876  2.1223
  691TIP3   OH2 2029   1.610   6.382   2.979 -0.5239 -0.5861 -0.2845
  691TIP3    H1 2030   1.575   6.417   3.061 -0.4836 -0.1352 -0.4548
  691TIP3    H2 2031   1.545   6.319   2.950 -0.7400 -0.4435 -0.1159
  692TIP3   OH2 2032   4.239   6.942   5.736  0.6059 -0.2153  0.2050
  692TIP3    H1 2033   4.225   6.871   5.673  0.8086 -0.6231  0.6085
  692TIP3    H2 2034   4.208   6.906   5.819  0.5401  0.2390  0.3766
  693TIP3   OH2 2035   4.443   0.430   1.100 -0.2744 -0.2149 -0.1892
  693TIP3    H1 2036   4.505   0.395   1.164  0.1295 -0.4133 -0.6832
  693TIP3    H2 2037   4.357   0.404   1.133 -0.1042  0.1334  0.5464
  694TIP3   OH2 2038   2.758   3.961   4.008 -0.3704 -0.2526  0.0432
  694TIP3    H1 2039   2.695   4.012   4.058 -0.8122 -0.5027 -0.2557
  694TIP3    H2 2040   2.842   3.977   4.052 -0.6409  0.0665  0.4498
  695TIP3   OH2 2041   3.739   1.870   4.172 -0.2954  0.1286  0.2425
  695TIP3    H1 2042   3.762   1.780   4.146  0.6575  0.3270  0.3375
  695TIP3    H2 2043   3.805   1.892   4.238 -0.0018  1.1933 -0.3928
  696TIP3   OH2 2044   3.232   4.821   3.573  0.5059 -0.2805  0.1500
  696TIP3    H1 2045   3.146   4.862   3.584  0.0021 -1.1565 -0.3680
  696TIP3    H2 2046   3.217   4.729   3.592  0.9327 -0.7557 -1.6120
  697TIP3   OH2 2047   2.874   1.431   2.396  0.2378 -0.4190  0.2042
  697TIP3    H1 2048   2.810   1.432   2.325 -0.0142  0.8352  0.4254
  697TIP3    H2 2049   2.957   1.453   2.354  0.2890 -0.7553  0.1276
  698TIP3   OH2 2050   4.931   2.080   5.954 -0.0130  0.0218 -0.1270
  698TIP3    H1 2051   4.874   2.046   5.884  0.9256  2.2406 -2.1012
  698TIP3    H2 2052   5.015   2.096   5.911  0.4685  1.8919  1.3783
  699TIP3   OH2 2053   6.039   6.812   3.817 -0.3944 -0.4262 -0.1217
  699TIP3    H1 2054   5.968   6.876   3.823 -1.4100 -1.3277 -1.7465
  699TIP3    H2 2055   6.063   6.794   3.908 -0.2342  2.0360  0.3969
  700TIP3   OH2 2056   4.370   0.135   0.758 -0.0548  0.1867 -0.6438
  700TIP3    H1 2057   4.439   0.083   0.800 -0.3493 -1.1681 -1.7498
  700TIP3    H2 2058   4.309   0.156   0.829  0.5559 -0.1639 -0.0011
  701TIP3   OH2 2059   2.727   3.788   1.016 -0.0575 -0.1322  0.1798
  701TIP3    H1 2060   2.695   3.858   0.959 -1.5923 -0.0897  1.0204
  701TIP3    H2 2061   2.772   3.834   1.087  0.0815 -0.0749  0.0552
  702TIP3   OH2 2062   6.447   2.471   5.755 -0.2001  0.2395  0.0267
  702TIP3    H1 2063   6.492   2.556   5.749 -0.8217  0.5932  0.2292
  702TIP3    H2 2064   6.484   2.419   5.684  0.4186  0.5711  0.0990
  703TIP3   OH2 2065   1.047   1.228   4.899 -0.5020 -0.1606 -0.3395
  703TIP3    H1 2066   1.110   1.255   4.832 -0.4156 -0.3618 -0.3399
  703TIP3    H2 2067   1.014   1.310   4.935 -2.0164 -0.0214 -1.9677
  704TIP3   OH2 2068   3.973   5.025   5.439 -0.2058 -0.3735 -0.1083
  704TIP3    H1 2069   3.967   4.930   5.455 -0.3491 -0.4648 -0.7000
  704TIP3    H2 2070   4.037   5.033   5.369 -1.3186 -0.1411 -1.1212
  705TIP3   OH2 2071   4.450   4.239   2.365 -0.6576  0.5450 -0.5428
  705TIP3    H1 2072   4.494   4.309   2.413 -0.9012  0.2091  0.1843
  705TIP3    H2 2073   4.515   4.208   2.302 -0.6773  1.6864 -1.1502
  706TIP3   OH2 2074   3.279   1.667   6.113  0.0921  0.1053 -0.0720
  706TIP3    H1 2075   3.284   1.705   6.025 -0.8770 -1.2365 -0.7408
  706TIP3    H2 2076   3.212   1.719   6.158 -0.5029 -0.1695 -0.6377
  707TIP3   OH2 2077   0.130   0.034   0.811 -0.3757 -0.5126  0.2246
  707TIP3    H1 2078   0.197  -0.006   0.756 -1.0035 -1.9281  0.4472
  707TIP3    H2 2079   0.135   0.128   0.790 -0.2440 -0.9293 -1.8783
  708TIP3   OH2 2080   0.239   1.832   5.792  0.1586 -0.2157 -0.1304
  708TIP3    H1 2081   0.334   1.844   5.787  0.6796 -3.5719 -1.4092
  708TIP3    H2 2082   0.204   1.881   5.718  1.2015 -0.8316 -1.0602
  709TIP3   OH2 2083   3.457   2.489   4.762  0.2102  0.2782 -0.3383
  709TIP3    H1 2084   3.534   2.536   4.729  1.7268 -0.9916  1.1822
  709TIP3    H2 2085   3.486   2.451   4.845 -2.3917  0.5676  0.8022
  710TIP3   OH2 2086   5.592   0.488   3.707  0.3146 -0.1435  0.1891
  710TIP3    H1 2087   5.664   0.472   3.768  1.2874 -0.5746 -1.0577
  710TIP3    H2 2088   5.625   0.555   3.647 -1.0921  1.2293  0.8652
  711TIP3   OH2 2089   3.745   7.753   0.224  0.1730 -0.1942 -0.4946
  711TIP3    H1 2090   3.802   7.684   0.190  3.0686  1.0968  1.3348
  711TIP3    H2 2091   3.698   7.712   0.296  1.9693 -0.3142  0.6668
  712TIP3   OH2 2092   3.554   1.694   0.340  0.5089 -0.0124 -0.5628
  712TIP3    H1 2093   3.628   1.720   0.394  1.5759  0.8817 -2.3430
  712TIP3    H2 2094   3.515   1.776   0.310 -0.5405 -0.4797 -0.5378
  713TIP3   OH2 2095   1.367   1.849   0.624 -0.0858  0.0775  0.0298
  713TIP3    H1 2096   1.376   1.784   0.554 -0.2634  0.4625 -0.3514
  713TIP3    H2 2097   1.368   1.797   0.704 -1.4479 -0.5221 -0.3209
  714TIP3   OH2 2098   4.347   1.138   5.132 -0.2784  0.1671  0.1767
  714TIP3    H1 2099   4.420   1.084   5.102 -1.3573 -0.9061 -0.5513
  714TIP3    H2 2100   4.369   1.226   5.102  0.3117 -0.2942 -0.7700
  715TIP3   OH2 2101   0.910   6.641   4.216  0.7195 -0.2837 -0.0868
  715TIP3    H1 2102   0.907   6.680   4.303 -1.6041 -0.1238 -0.1643
  715TIP3    H2 2103   0.886   6.712   4.157  0.1455 -0.9061 -0.6136
  716TIP3   OH2 2104   0.426   6.088   0.907 -0.1695  0.0545  0.4842
  716TIP3    H1 2105   0.423   6.064   0.815 -1.5614  1.2260  0.1764
  716TIP3    H2 2106   0.447   6.007   0.953  3.1577 -0.0889 -0.9707
  717TIP3   OH2 2107   5.327   3.600   5.748 -0.5159  0.0867 -0.1527
  717TIP3    H1 2108   5.339   3.570   5.658  0.4966  0.3642 -0.1162
  717TIP3    H2 2109   5.349   3.524   5.802  1.1544  0.5795 -0.0877
  718TIP3   OH2 2110   5.278   2.654   3.259 -0.6976  0.4777 -0.0423
  718TIP3    H1 2111   5.304   2.742   3.283 -0.9333  0.7646 -0.7989
  718TIP3    H2 2112   5.331   2.597   3.314 -0.8073  1.0923  0.7123
  719TIP3   OH2 2113   2.041   6.185   2.163 -0.1337 -0.4662 -0.8481
  719TIP3    H1 2114   1.994   6.200   2.246  0.5603  0.5889 -0.6256
  719TIP3    H2 2115   2.024   6.093   2.142 -1.7604 -0.3008 -0.4431
  720TIP3   OH2 2116   3.333   5.881   2.221 -0.0063 -0.3379  0.1979
  720TIP3    H1 2117   3.293   5.905   2.138 -1.7139 -0.3123  0.9986
  720TIP3    H2 2118   3.379   5.799   2.203 -2.5774 -1.7834 -0.1968
  721TIP3   OH2 2119   1.461   6.455   4.656  0.0504  0.5990  0.3951
  721TIP3    H1 2120   1.431   6.515   4.725  0.9922  1.0526  0.4171
  721TIP3    H2 2121   1.457   6.368   4.698 -1.2911  0.6265  0.3688
  722TIP3   OH2 2122   0.453   6.566   5.532 -0.1508  0.2629 -0.2557
  722TIP3    H1 2123   0.536   6.612   5.523  1.9350 -3.1207 -0.3631
  722TIP3    H2 2124   0.433   6.534   5.443 -2.2885  1.9594 -0.4794
  723TIP3   OH2 2125   4.177   6.737   0.085  0.3339 -0.0624  0.0023
  723TIP3    H1 2126   4.134   6.652   0.091 -1.3705  0.8004  1.1899
  723TIP3    H2 2127   4.152   6.771  -0.001 -0.6978  0.0524  0.3270
  724TIP3   OH2 2128   0.759   1.317   1.355  0.1282  0.4406 -1.1126
  724TIP3    H1 2129   0.850   1.309   1.384  0.2438 -1.1843 -1.8154
  724TIP3    H2 2130   0.707   1.289   1.430  0.2132  0.9316 -0.8644
  725TIP3   OH2 2131   4.042   5.977   0.425 -0.7397 -0.0738 -0.1161
  725TIP3    H1 2132   3.988   5.899   0.418 -1.1350  0.1341  0.5653
  725TIP3    H2 2133   4.132   5.943   0.431 -0.8172 -0.4280 -0.8068
  726TIP3   OH2 2134   1.253   3.530   2.398 -0.6866 -0.4641  0.0665
  726TIP3    H1 2135   1.253   3.625   2.393 -1.2407 -0.4837 -0.4562
  726TIP3    H2 2136   1.164   3.508   2.426 -0.0934 -0.7643  1.8706
  727TIP3   OH2 2137   2.088   6.480   4.516  0.4754 -0.0045 -0.2471
  727TIP3    H1 2138   2.171   6.527   4.507  2.0900 -2.2775  1.3879
  727TIP3    H2 2139   2.088   6.448   4.606 -0.4766 -2.9891 -1.1686
  728TIP3   OH2 2140   0.408   0.412   5.984 -0.1499  0.4270  0.0513
  728TIP3    H1 2141   0.355   0.335   6.000 -1.9031  1.2853 -1.3330
  728TIP3    H2 2142   0.420   0.415   5.889  1.4219  0.8963  0.2292
  729TIP3   OH2 2143   6.910   3.980   4.711  0.4064 -0.1413 -0.2812
  729TIP3    H1 2144   6.972   3.919   4.671  1.7704  1.3677 -0.5826
  729TIP3    H2 2145   6.961   4.024   4.779 -0.7533  0.1538  0.4111
  730TIP3   OH2 2146   7.065   4.157   5.199  0.1157 -0.1170 -0.0937
  730TIP3    H1 2147   7.091   4.085   5.141 -0.4612 -0.8661  0.5530
  730TIP3    H2 2148   6.973   4.173   5.177  0.8716  2.1502 -1.9939
  731TIP3   OH2 2149   7.391   2.478   5.119  0.2946  0.0961 -0.7292
  731TIP3    H1 2150   7.343   2.544   5.069  1.3296 -0.1292 -2.0778
  731TIP3    H2 2151   7.483   2.505   5.112  0.3970  1.0835  2.6240
  732TIP3   OH2 2152   2.666   7.659   1.386 -0.5418  0.1307  0.6101
  732TIP3    H1 2153   2.654   7.682   1.294  1.1157 -1.2168 -0.0006
  732TIP3    H2 2154   2.625   7.573   1.396  0.1965 -0.2013  0.8566
  733TIP3   OH2 2155   8.198   2.529   3.197  0.1953 -0.7775  0.0152
  733TIP3    H1 2156   8.102   2.532   3.197  0.2140  0.5640  1.3766
  733TIP3    H2 2157   8.220   2.490   3.112 -1.5090  0.1272 -0.8967
  734TIP3   OH2 2158   3.243   6.683   2.125 -0.1172 -0.3033 -0.4481
  734TIP3    H1 2159   3.161   6.648   2.159  0.5687 -1.4430  0.1024
  734TIP3    H2 2160   3.220   6.769   2.091 -1.4675 -0.4568  0.0061
  735TIP3   OH2 2161   3.495   3.886   3.820 -0.4045  0.0313  0.1275
  735TIP3    H1 2162   3.494   3.858   3.728 -1.2786  0.2607  0.0642
  735TIP3    H2 2163   3.588   3.901   3.838 -0.3704  2.0015 -1.3407
  736TIP3   OH2 2164   1.145   7.619   3.317 -0.1588 -0.5770  0.4400
  736TIP3    H1 2165   1.092   7.669   3.378 -0.9036  0.8540 -1.2957
  736TIP3    H2 2166   1.140   7.529   3.348 -2.1897 -0.2069  1.2865
  737TIP3   OH2 2167   6.069   0.472   3.951 -0.2957  0.2236 -1.0873
  737TIP3    H1 2168   6.047   0.546   4.009 -0.2000  0.0375 -0.8133
  737TIP3    H2 2169   6.150   0.499   3.909 -1.2790  1.1332 -2.4793
  738TIP3   OH2 2170   2.751   7.308   1.549  0.1974  0.1670 -0.1107
  738TIP3    H1 2171   2.701   7.365   1.490 -1.6978 -1.1089  0.2153
  738TIP3    H2 2172   2.783   7.238   1.493  1.0944  0.6163 -0.1839
  739TIP3   OH2 2173   4.488   5.075   2.236 -0.0118  0.3082  0.0245
  739TIP3    H1 2174   4.492   5.170   2.227 -0.2101  0.3351  0.2237
  739TIP3    H2 2175   4.451   5.044   2.153  2.2023  0.2197 -0.9967
  740TIP3   OH2 2176   4.723   6.188   1.411 -0.1560 -0.0184  0.1949
  740TIP3    H1 2177   4.693   6.195   1.320 -1.8797 -0.6844  0.6734
  740TIP3    H2 2178   4.662   6.242   1.461  0.8747  0.4718  0.9485
  741TIP3   OH2 2179   3.893   3.480   1.656  0.3327  0.1012 -0.1523
  741TIP3    H1 2180   3.870   3.548   1.593 -0.1065 -1.3328 -1.5996
  741TIP3    H2 2181   3.987   3.490   1.669  0.1216  1.5718  0.4018
  742TIP3   OH2 2182   2.945   4.284   4.782 -0.7372 -0.2754  0.3517
  742TIP3    H1 2183   2.857   4.248   4.793 -0.2264 -1.3319  1.0936
  742TIP3    H2 2184   2.993   4.217   4.734 -0.5441  0.6526 -0.7921
  743TIP3   OH2 2185   8.060   7.536   5.397  0.0346  0.4014 -0.1715
  743TIP3    H1 2186   8.015   7.512   5.316  0.5502  1.3443 -0.7571
  743TIP3    H2 2187   8.143   7.574   5.368  0.2278  0.7459  0.7998
  744TIP3   OH2 2188   1.871   6.702   5.684 -0.0534  0.4422  0.3632
  744TIP3    H1 2189   1.803   6.694   5.751 -0.2961  1.6984  0.2843
  744TIP3    H2 2190   1.927   6.774   5.714  1.7860 -1.1028  0.8705
  745TIP3   OH2 2191   5.147   4.682   6.207 -0.0277 -0.0064 -0.0564
  745TIP3    H1 2192   5.226   4.641   6.242 -0.5111 -0.4306  0.5466
  745TIP3    H2 2193   5.080   4.666   6.273 -0.6121  0.3840 -0.5463
  746TIP3   OH2 2194   5.133   5.988   2.861 -0.0612 -0.3348 -0.7373
  746TIP3    H1 2195   5.110   6.015   2.950 -0.5087  0.0144 -0.9571
  746TIP3    H2 2196   5.062   5.930   2.834  0.1565 -0.5714 -0.8138
  747TIP3   OH2 2197   1.428   3.708   3.795  0.2421 -0.1539 -0.3286
  747TIP3    H1 2198   1.502   3.666   3.751  0.0788 -0.4792 -0.2961
  747TIP3    H2 2199   1.381   3.636   3.837 -0.9943 -0.1675 -1.6701
  748TIP3   OH2 2200   5.473   0.522   5.377 -0.0562  0.0790 -0.1404
  748TIP3    H1 2201   5.528   0.463   5.325 -0.0316  1.2394 -1.4833
  748TIP3    H2 2202   5.530   0.552   5.447  1.2394  1.6266 -1.7716
  749TIP3   OH2 2203   3.418   5.001   3.428 -0.3060 -0.1222 -0.1377
  749TIP3    H1 2204   3.345   4.939   3.425 -0.8218  0.4825 -0.3634
  749TIP3    H2 2205   3.496   4.948   3.409 -0.1372 -1.5374  3.6647
  750TIP3   OH2 2206   0.729   3.867   2.098  0.5253 -0.0727  0.3210
  750TIP3    H1 2207   0.641   3.830   2.086  0.3338 -0.5049  2.5988
  750TIP3    H2 2208   0.775   3.846   2.017 -1.6799  0.8746 -1.2925
  751TIP3   OH2 2209   7.258   3.325   6.252  0.0093 -0.5232 -0.5101
  751TIP3    H1 2210   7.346   3.363   6.260 -0.0253 -0.8743  2.5739
  751TIP3    H2 2211   7.265   3.268   6.176  1.8628  0.9109 -1.5286
  752TIP3   OH2 2212   3.009   5.755   3.003  0.3273  0.5902  0.2772
  752TIP3    H1 2213   3.054   5.806   2.936  0.9213 -0.7819 -0.4106
  752TIP3    H2 2214   3.079   5.706   3.046 -0.2264  0.3530  0.9209
  753TIP3   OH2 2215   3.203   2.273   0.594 -0.1571  0.0019 -0.0991
  753TIP3    H1 2216   3.223   2.184   0.622  0.7982 -0.7839 -2.9616
  753TIP3    H2 2217   3.138   2.304   0.657  1.3561 -1.7257  2.4920
  754TIP3   OH2 2218   2.259   5.738   2.571  0.5049 -0.5274  0.4278
  754TIP3    H1 2219   2.174   5.740   2.616  0.2491 -2.7100  0.1705
  754TIP3    H2 2220   2.322   5.761   2.639 -0.2826  1.3941  0.5577
  755TIP3   OH2 2221   6.165   3.599   0.867 -0.3592  0.0762 -0.0869
  755TIP3    H1 2222   6.101   3.669   0.854  0.8007  1.4359  1.2435
  755TIP3    H2 2223   6.223   3.605   0.790  0.8217  1.8445  0.8648
  756TIP3   OH2 2224   7.059   5.207   3.935 -0.1063 -0.5511 -0.0052
  756TIP3    H1 2225   7.112   5.137   3.896  2.1080  0.3758  1.1746
  756TIP3    H2 2226   7.116   5.247   4.000 -2.1821  0.7715  1.1103
  757TIP3   OH2 2227   6.098   1.996   3.386 -0.4467  0.5397 -0.1899
  757TIP3    H1 2228   6.037   1.925   3.405 -2.6540  1.6051 -2.6477
  757TIP3    H2 2229   6.075   2.065   3.447  0.1634 -0.0061  0.6774
  758TIP3   OH2 2230   3.106   0.293   6.212 -0.1531 -0.0492 -0.3414
  758TIP3    H1 2231   3.137   0.339   6.133 -0.2684 -0.0572 -0.3906
  758TIP3    H2 2232   3.175   0.229   6.231 -0.7235 -0.9294 -1.1749
  759TIP3   OH2 2233   1.835   4.052   1.091  0.4435 -0.0122  0.0940
  759TIP3    H1 2234   1.796   4.122   1.038  2.4101  1.9399  1.0558
  759TIP3    H2 2235   1.849   4.092   1.177  1.2185 -1.7489  0.8253
  760TIP3   OH2 2236   6.668   0.928   3.991  0.3401 -0.3179  0.0147
  760TIP3    H1 2237   6.753   0.897   4.021 -0.0495 -1.5852 -0.1512
  760TIP3    H2 2238   6.624   0.851   3.956 -0.2686  0.5975 -1.3706
  761TIP3   OH2 2239   0.038   1.547   1.981 -0.2563  0.1280 -0.3786
  761TIP3    H1 2240   0.103   1.480   2.004  0.4297  0.5086 -1.1425
  761TIP3    H2 2241   0.089   1.627   1.973 -1.0449  0.7264  0.3676
  762TIP3   OH2 2242   7.674   0.876   3.625  0.1818  0.5961 -0.1391
  762TIP3    H1 2243   7.706   0.845   3.541 -2.0180 -0.6249 -0.5997
  762TIP3    H2 2244   7.704   0.811   3.688 -0.3293  0.1109 -0.3865
  763TIP3   OH2 2245   3.987   0.057   3.441  0.0089 -0.0733  0.1754
  763TIP3    H1 2246   4.010   0.100   3.360 -0.3687 -0.7525 -0.3078
  763TIP3    H2 2247   3.923   0.115   3.482  0.7012  0.6022  0.3321
  764TIP3   OH2 2248   2.041   0.888   4.331 -0.4219  0.5265  0.1314
  764TIP3    H1 2249   2.028   0.811   4.276  1.6400 -1.1591  1.8017
  764TIP3    H2 2250   1.955   0.905   4.369 -0.5629 -2.3062  1.3030
  765TIP3   OH2 2251   5.120   0.980   0.874  0.0417  0.5901  0.2956
  765TIP3    H1 2252   5.214   0.978   0.856 -0.1211 -1.2054 -0.6176
  765TIP3    H2 2253   5.110   1.045   0.943  1.9933  0.6380  0.5875
  766TIP3   OH2 2254   3.287   5.896   0.759  0.0716 -0.3307 -0.2344
  766TIP3    H1 2255   3.359   5.879   0.698 -1.3461 -1.8112 -1.6281
  766TIP3    H2 2256   3.260   5.985   0.739 -0.1659 -0.6819 -1.6249
  767TIP3   OH2 2257   2.042   2.869   2.233 -0.0703 -0.3961 -0.2487
  767TIP3    H1 2258   2.103   2.941   2.217  1.1767 -1.9207 -3.0782
  767TIP3    H2 2259   1.978   2.874   2.161 -1.1551 -0.9584  0.6321
  768TIP3   OH2 2260   2.089   1.632   0.539  0.0465  0.4798 -0.0149
  768TIP3    H1 2261   2.165   1.629   0.597  0.8236  1.1689 -0.9708
  768TIP3    H2 2262   2.015   1.653   0.597  0.7013  0.5014  0.8199
  769TIP3   OH2 2263   5.099   2.283   0.128 -0.4549  0.1416  0.0396
  769TIP3    H1 2264   5.125   2.206   0.077  0.4123 -0.2871  1.0864
  769TIP3    H2 2265   5.117   2.357   0.071  0.4863 -0.3283 -0.2819
  770TIP3   OH2 2266   0.435   5.599   2.782 -0.1535  0.4031 -0.0619
  770TIP3    H1 2267   0.409   5.622   2.693 -1.1998  3.8388  0.9694
  770TIP3    H2 2268   0.531   5.600   2.780 -0.0700  3.8032 -0.5775
  771TIP3   OH2 2269   0.308   2.618   2.500  0.5472  0.6854 -0.8076
  771TIP3    H1 2270   0.227   2.570   2.484  0.5162  0.7336 -0.7974
  771TIP3    H2 2271   0.289   2.707   2.470 -0.1923  1.3156  1.3503
  772TIP3   OH2 2272   1.317   6.564   1.304  0.0017  0.0778 -0.1544
  772TIP3    H1 2273   1.346   6.514   1.380 -0.4031 -0.8799 -0.6134
  772TIP3    H2 2274   1.226   6.538   1.291 -0.1101  0.6845 -0.5982
  773TIP3   OH2 2275   2.557   0.262   4.602  0.0932  0.4422 -0.3858
  773TIP3    H1 2276   2.607   0.212   4.537  0.0376  0.7698 -0.6843
  773TIP3    H2 2277   2.580   0.353   4.583 -0.2316  0.5609 -0.1978
  774TIP3   OH2 2278   2.975   0.576   0.807  0.1395 -0.2195 -0.2279
  774TIP3    H1 2279   3.019   0.493   0.824 -0.8264 -0.6457  0.2540
  774TIP3    H2 2280   2.977   0.585   0.712 -1.9013 -2.0317 -0.5064
  775TIP3   OH2 2281   2.588   4.262   3.144  1.0876 -0.1446 -0.0347
  775TIP3    H1 2282   2.569   4.344   3.190 -1.3563  0.1163 -1.3173
  775TIP3    H2 2283   2.681   4.266   3.124  2.2133 -0.0672  4.2973
  776TIP3   OH2 2284   8.016   2.595   3.628  0.7828 -0.4901 -0.5519
  776TIP3    H1 2285   7.932   2.590   3.583  0.1612 -0.5146  0.5606
  776TIP3    H2 2286   8.072   2.534   3.581 -0.0555 -1.0569 -0.8490
  777TIP3   OH2 2287   1.099   5.204   1.980 -0.0289 -0.1047 -0.2716
  777TIP3    H1 2288   1.136   5.281   2.023 -1.0969  0.4535 -0.3170
  777TIP3    H2 2289   1.025   5.179   2.035 -1.3937  0.6016 -1.7132
  778TIP3   OH2 2290   4.005   5.695   2.725  0.1646  0.2753  0.0799
  778TIP3    H1 2291   4.096   5.699   2.754  0.2920 -1.0773 -0.0937
  778TIP3    H2 2292   3.965   5.775   2.760  1.6859  1.4946 -0.8434
  779TIP3   OH2 2293   5.747   2.245   1.364  0.2515 -0.4379  0.1928
  779TIP3    H1 2294   5.743   2.170   1.424 -0.6692 -2.4449 -2.1778
  779TIP3    H2 2295   5.656   2.269   1.349  0.4079 -0.4784 -0.9240
  780TIP3   OH2 2296   5.531   6.544   4.251 -0.2844  0.1051  0.1164
  780TIP3    H1 2297   5.489   6.571   4.170  1.0634  2.5136  0.1084
  780TIP3    H2 2298   5.568   6.458   4.232  0.6125  0.9239 -2.1036
  781TIP3   OH2 2299   8.182   1.609   1.495 -0.2408 -0.1480 -0.6708
  781TIP3    H1 2300   8.254   1.549   1.507 -1.1855 -0.9439  1.5434
  781TIP3    H2 2301   8.189   1.638   1.404  1.1779 -2.3417 -1.3192
  782TIP3   OH2 2302   2.106   3.821   1.225 -0.1415 -0.0728  0.0224
  782TIP3    H1 2303   2.111   3.742   1.280  0.9058 -0.3798 -0.4810
  782TIP3    H2 2304   2.188   3.867   1.242 -0.0526  0.1084 -0.8699
  783TIP3   OH2 2305   1.496   2.103   2.959  0.1197 -0.5518  0.3147
  783TIP3    H1 2306   1.419   2.115   3.014 -0.1957 -1.1316  0.0056
  783TIP3    H2 2307   1.566   2.080   3.021  0.4555  1.5458  0.7825
  784TIP3   OH2 2308   2.602   3.868   2.052 -0.9648  0.2421 -0.1482
  784TIP3    H1 2309   2.695   3.845   2.056 -0.5608  1.9043  1.0001
  784TIP3    H2 2310   2.560   3.807   2.113 -0.3254  0.7072  0.7800
  785TIP3   OH2 2311   0.988   5.011   4.403 -0.7998 -0.2665 -0.5460
  785TIP3    H1 2312   0.972   4.946   4.472  1.9437 -1.1821 -0.6820
  785TIP3    H2 2313   1.006   4.960   4.325 -0.9013  0.7289 -1.2395
  786TIP3   OH2 2314   0.572   5.882   3.514 -0.1435 -0.0505 -0.7980
  786TIP3    H1 2315   0.601   5.866   3.604 -1.2964  1.1784 -0.1586
  786TIP3    H2 2316   0.652   5.890   3.463  0.6245  1.3744  0.5445
  787TIP3   OH2 2317   4.294   1.776   0.006 -0.5123  0.7224 -0.0501
  787TIP3    H1 2318   4.239   1.841  -0.037 -1.0990  0.8488  0.8770
  787TIP3    H2 2319   4.239   1.738   0.074 -0.5443 -1.5033 -1.2191
  788TIP3   OH2 2320   6.014   4.234   5.513 -0.4752 -0.3096 -0.4485
  788TIP3    H1 2321   6.088   4.217   5.572  0.0680  0.2525 -0.9591
  788TIP3    H2 2322   5.966   4.151   5.511  0.1240 -0.6754 -0.0856
  789TIP3   OH2 2323   0.733   2.600   2.418 -0.2239 -0.2536 -0.0621
  789TIP3    H1 2324   0.801   2.553   2.466 -1.0235  1.0014  2.4806
  789TIP3    H2 2325   0.666   2.534   2.401  1.0957 -1.2621 -1.6575
  790TIP3   OH2 2326   1.988   0.434   5.260 -0.5486 -0.3364  0.6442
  790TIP3    H1 2327   2.014   0.468   5.174  0.9882  1.6675  1.8113
  790TIP3    H2 2328   1.911   0.485   5.284  1.0578  1.6505  1.8795
  791TIP3   OH2 2329   8.269   2.669   4.136 -0.0247  0.1322  0.4615
  791TIP3    H1 2330   8.236   2.742   4.189  1.0466  0.4138  0.7724
  791TIP3    H2 2331   8.192   2.617   4.115 -0.6557  0.7701  1.1548
  792TIP3   OH2 2332   1.979   4.462   3.466 -0.3079 -0.2921  0.2257
  792TIP3    H1 2333   1.932   4.454   3.383 -0.5301 -0.1873  0.3422
  792TIP3    H2 2334   1.914   4.440   3.532 -0.5131  0.9433  0.4614
  793TIP3   OH2 2335   2.139   6.358   3.787  0.2976  0.1573  0.0997
  793TIP3    H1 2336   2.127   6.295   3.858  1.0563 -0.2196 -0.0922
  793TIP3    H2 2337   2.233   6.376   3.788  0.2307  0.5344 -0.4823
  794TIP3   OH2 2338   7.367   2.413   2.253 -0.2912  0.2585  0.2710
  794TIP3    H1 2339   7.441   2.370   2.297 -1.1995 -0.2991  1.2930
  794TIP3    H2 2340   7.309   2.439   2.325 -1.1373  0.6233 -0.5303
  795TIP3   OH2 2341   3.189   0.785   6.323  0.3395 -0.0142  0.3759
  795TIP3    H1 2342   3.236   0.824   6.250 -1.2988 -1.4884 -1.6002
  795TIP3    H2 2343   3.100   0.822   6.318 -0.0425 -0.7776  1.0888
  796TIP3   OH2 2344   2.590   1.660   6.237 -0.0165 -0.5879 -0.0283
  796TIP3    H1 2345   2.643   1.660   6.317  0.7072 -2.0042 -0.4697
  796TIP3    H2 2346   2.654   1.674   6.167 -0.6559  0.7479 -0.3772
  797TIP3   OH2 2347   5.021   6.142   6.143 -0.4929 -0.7505  0.2524
  797TIP3    H1 2348   4.932   6.177   6.144 -0.4333 -0.5515  2.2871
  797TIP3    H2 2349   5.044   6.130   6.235  1.9607  0.1648 -0.1484
  798TIP3   OH2 2350   7.722   4.996   0.057 -0.3785  0.0987  0.1973
  798TIP3    H1 2351   7.653   5.039   0.007 -0.2511  0.1740  0.0841
  798TIP3    H2 2352   7.692   4.998   0.147 -0.3499  0.4718  0.2006
  799TIP3   OH2 2353   0.915   2.337   1.118  0.4377  0.4410 -0.1255
  799TIP3    H1 2354   0.925   2.391   1.196 -0.0827  0.7757 -0.2780
  799TIP3    H2 2355   0.830   2.294   1.130  0.6886 -0.0788 -0.1697
  800TIP3   OH2 2356   1.349   2.093   4.903 -0.1640  0.2796 -0.3734
  800TIP3    H1 2357   1.316   2.118   4.817 -1.4018 -0.0837 -0.0240
  800TIP3    H2 2358   1.444   2.088   4.892 -0.3876 -1.3256 -2.1618
  801TIP3   OH2 2359   4.317   3.546   4.424  0.5068  0.4063  0.4795
  801TIP3    H1 2360   4.335   3.625   4.373 -1.2617  0.3863 -0.2623
  801TIP3    H2 2361   4.398   3.496   4.421  0.8109  0.9386 -1.3991
  802TIP3   OH2 2362   2.466   5.678   6.059 -0.3257  0.8500 -0.4958
  802TIP3    H1 2363   2.451   5.614   6.128  0.5611  0.1695 -0.9092
  802TIP3    H2 2364   2.545   5.648   6.015 -0.9022  1.2191 -1.8549
  803TIP3   OH2 2365   0.382   7.375   5.940  0.0837 -0.1637 -0.1100
  803TIP3    H1 2366   0.416   7.334   5.860  0.3173 -0.3933  0.1052
  803TIP3    H2 2367   0.362   7.301   5.998  0.1381  0.0098  0.1316
  804TIP3   OH2 2368   2.519   6.695   0.908 -0.4994 -0.5308 -0.1105
  804TIP3    H1 2369   2.452   6.707   0.975 -0.5234  0.8741 -0.3527
  804TIP3    H2 2370   2.556   6.608   0.925 -1.1147 -0.5558  1.1572
  805TIP3   OH2 2371   2.431   5.200   2.923 -0.1116  0.1271  0.3920
  805TIP3    H1 2372   2.444   5.223   3.015 -1.5533  0.0521  0.6373
  805TIP3    H2 2373   2.338   5.180   2.916  0.0817 -0.4134 -0.9734
  806TIP3   OH2 2374   2.017   3.966   0.573 -0.0002 -0.3378 -0.5156
  806TIP3    H1 2375   1.960   3.931   0.642 -0.0151  0.5157 -0.0813
  806TIP3    H2 2376   2.061   3.889   0.537 -0.1638 -0.8277  0.3034
  807TIP3   OH2 2377   4.209   4.948   2.579 -0.0643  0.4386  0.1364
  807TIP3    H1 2378   4.248   4.964   2.665 -1.3121  2.0703  0.4689
  807TIP3    H2 2379   4.129   4.898   2.597 -0.5750  1.1815  0.0165
  808TIP3   OH2 2380   5.871   4.395   2.991  0.4161  0.2460 -0.2952
  808TIP3    H1 2381   5.802   4.429   2.935  1.0398  1.3402 -0.4312
  808TIP3    H2 2382   5.837   4.311   3.023 -1.2799  1.0666  0.2107
  809TIP3   OH2 2383   8.228   5.486   4.880 -0.0139  0.4739 -0.2116
  809TIP3    H1 2384   8.231   5.475   4.975 -0.5928  2.4723  0.1030
  809TIP3    H2 2385   8.301   5.545   4.861 -0.9298  1.4642 -0.7441
  810TIP3   OH2 2386   0.311   7.255   1.816 -0.3599 -0.2502 -0.0879
  810TIP3    H1 2387   0.277   7.166   1.830 -1.1284  0.0940  0.2818
  810TIP3    H2 2388   0.372   7.268   1.889  0.4613 -0.7989 -0.6492
  811TIP3   OH2 2389   7.062   0.435   4.397  0.6739  0.0579  0.3160
  811TIP3    H1 2390   7.089   0.409   4.485 -0.7275 -0.1097  0.7304
  811TIP3    H2 2391   6.968   0.417   4.395  0.9519 -1.5648 -1.7800
  812TIP3   OH2 2392   1.896   7.628   4.855  0.6964  0.6425  0.2727
  812TIP3    H1 2393   1.806   7.652   4.878  1.1938  1.9100  0.9925
  812TIP3    H2 2394   1.897   7.627   4.759  0.6828  3.9421  0.1226
  813TIP3   OH2 2395   1.032   4.145   5.627  0.2182  0.3516 -0.6413
  813TIP3    H1 2396   1.106   4.098   5.589 -0.3443  0.3625 -1.7898
  813TIP3    H2 2397   1.029   4.228   5.579 -1.2509 -0.1376 -1.4561
  814TIP3   OH2 2398   4.484   0.605   5.196 -0.7106 -0.5739 -0.2756
  814TIP3    H1 2399   4.473   0.569   5.108 -2.1204  0.0836 -0.3832
  814TIP3    H2 2400   4.465   0.531   5.254  2.1136 -1.5885 -0.4331
  815TIP3   OH2 2401   3.098   1.032   0.892  0.2464  0.0397 -0.1997
  815TIP3    H1 2402   3.091   1.008   0.799 -0.7670 -1.3191  0.1999
  815TIP3    H2 2403   3.024   0.988   0.934  1.5143 -0.5541  1.4976
  816TIP3   OH2 2404   3.338   5.159   2.470  0.0575  0.0601 -0.0495
  816TIP3    H1 2405   3.246   5.136   2.483  0.2676 -0.8628 -0.1528
  816TIP3    H2 2406   3.369   5.097   2.404  0.6283  0.6811 -0.3675
  817TIP3   OH2 2407   5.049   4.777   4.937 -0.3815 -0.5295 -0.0894
  817TIP3    H1 2408   5.086   4.689   4.941  3.1369  0.7616 -1.0896
  817TIP3    H2 2409   5.005   4.781   4.852 -3.5741 -2.2355  1.3078
  818TIP3   OH2 2410   2.318   3.713   0.305  0.0974  0.0705 -1.0079
  818TIP3    H1 2411   2.224   3.719   0.325  0.1714  1.1378 -0.9382
  818TIP3    H2 2412   2.361   3.744   0.384  0.6944 -3.9054  0.4936
  819TIP3   OH2 2413   2.914   6.711   4.840  0.1764  0.1751 -0.1399
  819TIP3    H1 2414   2.864   6.698   4.759  1.0867  0.5597 -0.7831
  819TIP3    H2 2415   2.848   6.711   4.909 -0.5599 -0.7637 -0.8174
  820TIP3   OH2 2416   7.167   5.909   1.025 -0.5833  0.2436 -0.0437
  820TIP3    H1 2417   7.093   5.852   1.004 -2.1357  1.0126  2.8165
  820TIP3    H2 2418   7.215   5.860   1.092  0.4613  0.5530 -0.5591
  821TIP3   OH2 2419   4.498   5.106   4.835  0.2081  0.1761 -0.2701
  821TIP3    H1 2420   4.455   5.191   4.833  0.6088  0.3675 -1.1427
  821TIP3    H2 2421   4.591   5.126   4.821  0.2065 -0.4605 -1.2725
  822TIP3   OH2 2422   5.803   2.026   1.681 -0.4049  0.1324 -0.0750
  822TIP3    H1 2423   5.809   1.930   1.674  2.4814  0.2482 -0.1768
  822TIP3    H2 2424   5.737   2.050   1.616 -0.4261 -1.6873 -0.8043
  823TIP3   OH2 2425   1.647   3.318   2.398  0.4221  0.1785 -0.6187
  823TIP3    H1 2426   1.609   3.231   2.410 -0.5989  0.7321  0.3394
  823TIP3    H2 2427   1.586   3.362   2.338 -0.9938  1.3411  1.5414
  824TIP3   OH2 2428   0.538   4.052   2.505 -0.1915 -0.6342 -0.6597
  824TIP3    H1 2429   0.562   4.079   2.417  1.0160  0.6647  0.0266
  824TIP3    H2 2430   0.476   4.119   2.534  2.2807  1.1581  0.8025
  825TIP3   OH2 2431   5.804   1.847   5.467 -0.3400  0.0770 -0.2290
  825TIP3    H1 2432   5.761   1.785   5.408  0.6800 -0.4476 -0.4485
  825TIP3    H2 2433   5.844   1.792   5.534  1.1751  0.4180 -0.8188
  826TIP3   OH2 2434   8.025   6.893   1.777 -0.5637  0.3191  0.1467
  826TIP3    H1 2435   8.065   6.956   1.718  0.1363  1.5227  1.8395
  826TIP3    H2 2436   8.057   6.917   1.864 -3.0999 -0.1664  1.2970
  827TIP3   OH2 2437   0.756   7.638   1.574  0.7363  0.7248 -0.0687
  827TIP3    H1 2438   0.723   7.725   1.552 -2.2549  0.0854  1.4156
  827TIP3    H2 2439   0.707   7.613   1.652  1.7533 -2.1841 -0.2595
  828TIP3   OH2 2440   4.146   4.673   4.131 -0.5506 -0.0114 -0.0523
  828TIP3    H1 2441   4.124   4.751   4.080 -0.2051  0.6038  0.7310
  828TIP3    H2 2442   4.141   4.701   4.222 -0.4435 -0.9117  0.2423
  829TIP3   OH2 2443   2.732   0.511   4.580 -0.4168  0.2425  0.0811
  829TIP3    H1 2444   2.817   0.553   4.567 -0.5510  0.2458 -0.8663
  829TIP3    H2 2445   2.669   0.583   4.579 -0.4302  0.2472  0.8545
  830TIP3   OH2 2446   3.196   2.477   3.699  0.1770  0.4594  0.6809
  830TIP3    H1 2447   3.194   2.412   3.629 -0.3206 -0.6437  1.6927
  830TIP3    H2 2448   3.289   2.490   3.717  0.2879 -1.0701  1.4205
  831TIP3   OH2 2449   1.142   0.193   3.293  0.1747 -0.4387  0.1279
  831TIP3    H1 2450   1.200   0.243   3.349 -0.0827 -1.4457  1.3404
  831TIP3    H2 2451   1.190   0.113   3.272 -0.5671 -1.0856  0.7903
  832TIP3   OH2 2452   7.796   3.474   2.972  0.2769  0.0318  0.6652
  832TIP3    H1 2453   7.851   3.503   3.045 -0.7541 -0.0247  1.4993
  832TIP3    H2 2454   7.851   3.485   2.894  1.2234  0.5991  1.3868
  833TIP3   OH2 2455   0.474   3.969   0.210 -0.6645  0.2602  0.2867
  833TIP3    H1 2456   0.566   3.964   0.181 -0.9354 -1.7560 -0.4041
  833TIP3    H2 2457   0.477   3.944   0.302 -0.5967 -0.6561  0.0445
  834TIP3   OH2 2458   5.793   2.845   3.355  0.3872  0.3088  0.8582
  834TIP3    H1 2459   5.698   2.837   3.366  0.1053  0.9133 -0.9481
  834TIP3    H2 2460   5.808   2.938   3.340  1.1534  0.0896  0.1943
  835TIP3   OH2 2461   8.228   3.096   6.478  0.1657  0.0181  0.3553
  835TIP3    H1 2462   8.309   3.099   6.530  0.9733  0.4015 -0.8815
  835TIP3    H2 2463   8.172   3.163   6.517  0.9235  0.5922  0.4831
  836TIP3   OH2 2464   5.042   7.738   2.273 -0.4138  0.5087 -0.1983
  836TIP3    H1 2465   5.042   7.720   2.367 -1.1805 -0.6614 -0.4106
  836TIP3    H2 2466   5.046   7.834   2.268 -0.4285  0.5958  1.0241
  837TIP3   OH2 2467   3.752   3.498   6.260  0.0165  0.1411 -0.3319
  837TIP3    H1 2468   3.712   3.452   6.186 -1.6300  1.6500 -0.4507
  837TIP3    H2 2469   3.760   3.589   6.230 -0.0763  0.6454  1.0870
  838TIP3   OH2 2470   0.043   5.340   2.537 -0.9225 -0.1229 -0.0414
  838TIP3    H1 2471  -0.011   5.263   2.519  0.6676 -0.7480 -2.6400
  838TIP3    H2 2472  -0.017   5.414   2.522 -2.0236 -0.7965  0.8633
  839TIP3   OH2 2473   5.304   5.351   4.568 -0.5850 -0.0379 -0.0490
  839TIP3    H1 2474   5.255   5.315   4.494 -0.1221 -0.5953 -0.0940
  839TIP3    H2 2475   5.257   5.321   4.645  1.0779 -2.8199  0.0217
  840TIP3   OH2 2476   4.953   1.400   4.774  0.3929  0.4926 -0.0697
  840TIP3    H1 2477   4.985   1.325   4.825  0.5369 -0.0482 -0.9394
  840TIP3    H2 2478   4.894   1.362   4.710  0.9049  1.0535 -0.8950
  841TIP3   OH2 2479   5.048   1.927   2.362  0.0750 -0.1951 -0.7009
  841TIP3    H1 2480   5.091   1.974   2.434 -1.3708  1.6855 -0.9909
  841TIP3    H2 2481   5.029   1.841   2.398  1.1375  0.0344  0.4923
  842TIP3   OH2 2482   2.531   5.320   2.265 -0.1170  0.1810 -1.0106
  842TIP3    H1 2483   2.485   5.394   2.225  0.1696  0.2075 -1.3010
  842TIP3    H2 2484   2.471   5.288   2.332 -0.4707  0.3375 -1.2471
  843TIP3   OH2 2485   2.414   4.060   6.323 -0.1387  0.0996  0.5772
  843TIP3    H1 2486   2.369   3.977   6.306 -1.7067  0.9494  0.4276
  843TIP3    H2 2487   2.489   4.060   6.264  0.2553 -1.4781  1.0281
  844TIP3   OH2 2488   6.916   2.256   3.571 -0.4929 -0.0943 -0.6016
  844TIP3    H1 2489   6.823   2.236   3.575 -0.9486  1.8169 -0.6143
  844TIP3    H2 2490   6.934   2.268   3.478 -0.2549 -0.3614 -0.5909
  845TIP3   OH2 2491   2.702   6.130   5.947  0.8272 -0.1130  0.5664
  845TIP3    H1 2492   2.640   6.196   5.916  1.6706  0.1519 -0.5816
  845TIP3    H2 2493   2.784   6.149   5.902  0.9354 -2.3241 -0.3238
  846TIP3   OH2 2494   0.171   5.138   6.536 -0.1958 -0.5400 -0.1480
  846TIP3    H1 2495   0.138   5.075   6.473 -0.2355 -1.2186  0.5401
  846TIP3    H2 2496   0.257   5.105   6.562 -0.2658 -0.3804  0.3046
  847TIP3   OH2 2497   1.182   6.531   4.311  0.5009  0.0436 -0.1113
  847TIP3    H1 2498   1.088   6.544   4.295  0.4348  0.6460  0.7293
  847TIP3    H2 2499   1.221   6.617   4.292  0.7459  0.0700  0.4978
  848TIP3   OH2 2500   2.218   7.121   6.008  0.4357 -0.0719 -0.1655
  848TIP3    H1 2501   2.204   7.036   5.967  2.4920 -0.0102 -1.1240
  848TIP3    H2 2502   2.300   7.152   5.971 -0.1159  2.2226  0.3846
  849TIP3   OH2 2503   3.965   1.085   1.268  0.3525  0.2417  0.0874
  849TIP3    H1 2504   4.033   1.099   1.202  0.0813  0.3311 -0.1697
  849TIP3    H2 2505   4.007   1.110   1.351  1.4219 -1.9334  0.2597
  850TIP3   OH2 2506   6.188   5.174   1.716 -0.2054 -0.1709  0.0702
  850TIP3    H1 2507   6.138   5.244   1.676 -1.8971 -1.1481  0.3801
  850TIP3    H2 2508   6.144   5.093   1.688  0.2264 -0.9920  1.6302
  851TIP3   OH2 2509   4.693   2.347   3.740 -0.2587 -0.0709 -0.1963
  851TIP3    H1 2510   4.625   2.414   3.746 -0.2300 -0.1609  1.7465
  851TIP3    H2 2511   4.764   2.380   3.795  1.1284 -0.1820 -1.8509
  852TIP3   OH2 2512   1.200   4.292   6.066  0.6671 -0.1803 -0.4832
  852TIP3    H1 2513   1.161   4.362   6.013 -2.1256  1.0014  2.7889
  852TIP3    H2 2514   1.138   4.220   6.059  0.4897 -0.1662  0.7362
  853TIP3   OH2 2515   1.150   2.969   3.264  0.0587 -0.2281  0.1239
  853TIP3    H1 2516   1.073   3.015   3.297  0.7868  2.0617 -1.1859
  853TIP3    H2 2517   1.145   2.976   3.169  1.8987  0.0444 -0.0030
  854TIP3   OH2 2518   1.070   7.282   1.349  0.1662  0.2884 -0.4568
  854TIP3    H1 2519   0.986   7.289   1.394  0.9790 -4.3351  2.3993
  854TIP3    H2 2520   1.131   7.330   1.404  0.4179 -1.9177  1.3170
  855TIP3   OH2 2521   7.480   3.955   2.911  0.3990  0.2702 -0.3408
  855TIP3    H1 2522   7.394   3.919   2.889  0.3947  0.9041 -1.4473
  855TIP3    H2 2523   7.508   3.904   2.987 -0.3631 -0.8794 -0.7858
  856TIP3   OH2 2524   2.891   6.774   4.110 -0.0813 -0.6946 -0.0840
  856TIP3    H1 2525   2.986   6.774   4.111 -0.0261  1.3971 -0.4680
  856TIP3    H2 2526   2.868   6.750   4.020  0.1333  0.1404 -0.3684
  857TIP3   OH2 2527   0.026   0.109   5.376 -0.0294 -0.2207  0.6268
  857TIP3    H1 2528   0.072   0.092   5.293  0.5419 -1.2896  1.1380
  857TIP3    H2 2529  -0.011   0.024   5.400  1.3248 -0.3852  2.3552
  858TIP3   OH2 2530   6.220   0.882   3.610  0.2351 -0.5907 -0.0538
  858TIP3    H1 2531   6.261   0.798   3.629  1.2640  0.0610  0.6554
  858TIP3    H2 2532   6.273   0.946   3.656  1.0673  0.7603 -2.6745
  859TIP3   OH2 2533   4.221   7.417   6.309  0.6777  0.5835 -0.6837
  859TIP3    H1 2534   4.284   7.471   6.357  1.0471 -0.1319 -0.3509
  859TIP3    H2 2535   4.156   7.392   6.375  0.4484  0.7027 -0.8619
  860TIP3   OH2 2536   3.643   4.824   5.991  0.0514  0.2298 -0.1598
  860TIP3    H1 2537   3.737   4.811   5.978 -0.1115  0.3628 -1.6260
  860TIP3    H2 2538   3.622   4.773   6.070  1.0703 -1.0236 -0.6715
  861TIP3   OH2 2539   6.644   1.837   0.915 -0.3540  0.0974  0.2130
  861TIP3    H1 2540   6.603   1.759   0.879  0.5965 -0.6251  0.6565
  861TIP3    H2 2541   6.574   1.903   0.915 -0.9706 -0.5270 -0.8322
  862TIP3   OH2 2542   1.636   1.018   5.665 -0.1486 -0.1128  0.2056
  862TIP3    H1 2543   1.607   1.000   5.754 -0.5631  0.5029  0.2023
  862TIP3    H2 2544   1.580   1.090   5.635  0.7400  0.4579 -0.1420
  863TIP3   OH2 2545   7.467   5.582   1.771  0.0003  0.2752  0.3684
  863TIP3    H1 2546   7.519   5.526   1.828  0.9604  1.5289  0.7778
  863TIP3    H2 2547   7.495   5.560   1.682  0.8761  0.5724  0.5604
  864TIP3   OH2 2548   0.472   5.127   0.231 -0.8587 -0.3428  0.0250
  864TIP3    H1 2549   0.545   5.146   0.291 -0.5779  0.8883 -0.6746
  864TIP3    H2 2550   0.399   5.108   0.289  0.3313 -3.0987  0.7592
  865TIP3   OH2 2551   1.167   2.246   0.027 -0.6659 -0.4668 -0.2014
  865TIP3    H1 2552   1.256   2.238  -0.008 -0.7759 -0.2295 -0.5322
  865TIP3    H2 2553   1.170   2.324   0.082 -1.0535  0.4325 -1.4037
  866TIP3   OH2 2554   6.098   4.803   5.000 -0.3097  0.0297 -0.5677
  866TIP3    H1 2555   6.175   4.848   5.036  0.7675 -2.9699  1.2417
  866TIP3    H2 2556   6.026   4.831   5.055  0.4347 -0.7514  0.8666
  867TIP3   OH2 2557   6.642   0.466   3.046 -0.1126  0.4685  0.1006
  867TIP3    H1 2558   6.669   0.520   3.121  0.4492  0.3772 -0.0331
  867TIP3    H2 2559   6.712   0.401   3.037  0.9839  1.8258 -1.8771
  868TIP3   OH2 2560   3.251   5.745   1.974  0.7576 -0.1214 -0.3211
  868TIP3    H1 2561   3.307   5.715   1.902  0.4801 -0.2257 -0.4936
  868TIP3    H2 2562   3.168   5.700   1.961  1.7553 -2.9594  2.0819
  869TIP3   OH2 2563   5.817   7.460   1.419 -0.2854 -0.4218 -0.0711
  869TIP3    H1 2564   5.887   7.397   1.436  2.4377  2.9604  2.9575
  869TIP3    H2 2565   5.856   7.522   1.357 -0.8087  1.1473  1.1231
  870TIP3   OH2 2566   3.790   2.157   3.041 -0.0148  0.4711  0.6700
  870TIP3    H1 2567   3.733   2.233   3.045 -1.0861 -0.3065  0.7564
  870TIP3    H2 2568   3.821   2.144   3.131 -1.7628 -0.5848  1.1656
  871TIP3   OH2 2569   8.122   4.574   4.325 -0.4166  0.2937  0.3863
  871TIP3    H1 2570   8.068   4.603   4.252 -0.4128 -1.6426 -0.4506
  871TIP3    H2 2571   8.203   4.626   4.317 -0.8070  0.8034 -0.3835
  872TIP3   OH2 2572   8.232   6.413   3.865 -0.9613 -0.5398 -0.3261
  872TIP3    H1 2573   8.301   6.458   3.817 -1.0509 -1.9866 -1.8989
  872TIP3    H2 2574   8.273   6.385   3.947  0.0475 -0.5224 -0.8133
  873TIP3   OH2 2575   7.234   1.481   0.415  0.6847 -0.2010  0.5126
  873TIP3    H1 2576   7.155   1.463   0.467  0.3161  1.0163  0.4042
  873TIP3    H2 2577   7.219   1.568   0.377  0.7557 -1.1808 -1.9784
  874TIP3   OH2 2578   2.473   6.161   3.923  0.3193 -0.1591  0.2822
  874TIP3    H1 2579   2.508   6.170   3.834 -0.0231 -1.1652  0.0327
  874TIP3    H2 2580   2.502   6.074   3.952 -1.8485 -1.0213  0.0880
  875TIP3   OH2 2581   6.856   4.054   3.201  0.0242  0.2545 -0.1380
  875TIP3    H1 2582   6.927   4.100   3.246 -0.1419  1.4926 -1.0618
  875TIP3    H2 2583   6.898   4.012   3.126  0.0144 -0.2312  0.1314
  876TIP3   OH2 2584   1.928   3.328   2.298 -0.2503 -0.4481 -0.5214
  876TIP3    H1 2585   1.858   3.389   2.322  0.2824  0.3682 -0.9898
  876TIP3    H2 2586   1.993   3.383   2.254 -0.5376 -1.6262 -2.5354
  877TIP3   OH2 2587   5.818   6.956   0.145  0.3727  0.4154  0.2418
  877TIP3    H1 2588   5.801   6.864   0.127  0.9487  0.5448 -1.1194
  877TIP3    H2 2589   5.783   6.971   0.232  2.3601 -1.6337  1.4865
  878TIP3   OH2 2590   2.565   4.105   2.890 -0.1845 -0.2377 -0.2635
  878TIP3    H1 2591   2.523   4.039   2.946  0.3767 -0.8513 -0.5527
  878TIP3    H2 2592   2.585   4.177   2.949 -0.8143 -0.3206  0.0579
  879TIP3   OH2 2593   1.463   6.355   6.207  0.2281 -0.0581  0.0716
  879TIP3    H1 2594   1.465   6.446   6.179 -0.4710  0.4599  1.5962
  879TIP3    H2 2595   1.550   6.339   6.243  0.2067  0.1561  0.2221
  880TIP3   OH2 2596   1.186   5.450   1.190 -0.2164  0.1010  0.5011
  880TIP3    H1 2597   1.130   5.480   1.118  0.5380 -0.5557 -0.3701
  880TIP3    H2 2598   1.271   5.434   1.150  0.6003  0.9683  1.7820
  881TIP3   OH2 2599   3.283   3.666   2.276  0.2453  0.4236 -0.2306
  881TIP3    H1 2600   3.198   3.622   2.287  0.5069  0.2009  1.0185
  881TIP3    H2 2601   3.342   3.619   2.334  0.8354  1.6017  0.1566
  882TIP3   OH2 2602   5.912   2.898   1.392 -0.0140  0.2730  0.1691
  882TIP3    H1 2603   5.846   2.925   1.456 -0.0991  0.8700 -0.1653
  882TIP3    H2 2604   5.883   2.812   1.362 -1.0612  0.8515 -0.5309
  883TIP3   OH2 2605   2.254   4.508   2.401  0.2990  0.5815  0.0446
  883TIP3    H1 2606   2.298   4.457   2.469 -1.4939 -1.0255  0.0772
  883TIP3    H2 2607   2.222   4.586   2.446  1.5674  0.9467  0.3767
  884TIP3   OH2 2608   3.057   5.277   6.445  0.3579 -0.0494 -0.4091
  884TIP3    H1 2609   3.025   5.274   6.355 -1.6390  2.7824  0.0586
  884TIP3    H2 2610   2.982   5.311   6.495  2.5942  2.3534  1.5963
  885TIP3   OH2 2611   6.761   3.755   6.532 -0.1660 -0.0959  0.7170
  885TIP3    H1 2612   6.689   3.756   6.469 -0.4216  0.2806  1.0040
  885TIP3    H2 2613   6.838   3.777   6.481 -0.4738  0.8652  0.6390
  886TIP3   OH2 2614   5.824   2.968   4.068 -0.3573  0.1950  0.2380
  886TIP3    H1 2615   5.920   2.965   4.066 -0.3043  1.4457  0.3289
  886TIP3    H2 2616   5.804   3.044   4.122 -1.4206 -0.7425  1.2091
  887TIP3   OH2 2617   1.055   0.652   4.828 -0.4852 -0.2836  0.1017
  887TIP3    H1 2618   0.978   0.598   4.850 -1.1573  0.7645  0.4295
  887TIP3    H2 2619   1.018   0.737   4.804  0.6368  1.1052  2.8072
  888TIP3   OH2 2620   7.555   2.719   2.520 -0.0291 -0.0599  0.0629
  888TIP3    H1 2621   7.636   2.768   2.535 -0.5982  1.4155 -1.4059
  888TIP3    H2 2622   7.551   2.705   2.426 -1.0195 -0.9560  0.2135
  889TIP3   OH2 2623   6.758   4.297   2.229 -0.0736 -0.3346  0.0079
  889TIP3    H1 2624   6.732   4.230   2.166  0.4233 -0.9811  0.4745
  889TIP3    H2 2625   6.847   4.320   2.203 -0.2350  0.1343 -0.1374
  890TIP3   OH2 2626   4.187   5.077   4.519 -0.8109  0.1413 -0.2630
  890TIP3    H1 2627   4.243   5.152   4.499  0.5636 -1.1964 -1.6284
  890TIP3    H2 2628   4.205   5.014   4.450 -3.1480 -0.8409 -0.0835
  891TIP3   OH2 2629   8.223   0.404   5.363 -0.1481  0.0708 -0.6862
  891TIP3    H1 2630   8.272   0.331   5.326  0.0560  0.7148 -1.7336
  891TIP3    H2 2631   8.208   0.463   5.289 -2.0856  0.1353 -0.3064
  892TIP3   OH2 2632   1.430   7.415   0.731  0.0665 -0.1078 -0.5310
  892TIP3    H1 2633   1.417   7.345   0.668 -1.0883  0.3488 -0.8123
  892TIP3    H2 2634   1.342   7.446   0.753  0.5223  3.1051 -2.4975
  893TIP3   OH2 2635   5.258   6.374   1.375  0.1716 -0.3040 -0.0583
  893TIP3    H1 2636   5.290   6.306   1.434 -1.3642 -1.6234 -0.6468
  893TIP3    H2 2637   5.256   6.332   1.289  2.1108  1.4989 -1.0476
  894TIP3   OH2 2638   6.280   5.852   5.461 -0.3258  0.5503 -0.1688
  894TIP3    H1 2639   6.226   5.852   5.540 -0.2197 -1.8230 -0.0396
  894TIP3    H2 2640   6.230   5.801   5.397  0.8104  0.1064 -0.7343
  895TIP3   OH2 2641   6.427   3.908   3.016  0.1330 -0.1579 -0.2404
  895TIP3    H1 2642   6.369   3.979   3.043 -1.1226 -1.4467  0.5491
  895TIP3    H2 2643   6.386   3.829   3.049  2.5156 -1.1204  0.6653
  896TIP3   OH2 2644   3.548   1.034   3.535  0.5514 -0.5177 -0.4391
  896TIP3    H1 2645   3.456   1.018   3.513  0.1231  0.5692  0.4658
  896TIP3    H2 2646   3.567   1.120   3.499  1.5077 -1.1007 -1.3948
  897TIP3   OH2 2647   5.505   2.228   4.988 -0.0025 -0.2377 -0.2157
  897TIP3    H1 2648   5.589   2.258   5.022  0.7280 -2.1216 -0.1964
  897TIP3    H2 2649   5.487   2.285   4.913  0.5629  1.1033  0.6519
  898TIP3   OH2 2650   2.140   1.070   0.386 -0.0729 -0.2338 -0.4022
  898TIP3    H1 2651   2.101   1.142   0.435 -2.0980  0.9430 -3.4408
  898TIP3    H2 2652   2.066   1.016   0.360  0.4376  0.6016 -4.1609
  899TIP3   OH2 2653   3.270   2.473   4.362  0.3704  0.6439 -0.1680
  899TIP3    H1 2654   3.357   2.439   4.341  0.5398  0.0797  1.3166
  899TIP3    H2 2655   3.212   2.431   4.298  1.1490  0.8755 -1.0448
  900TIP3   OH2 2656   0.244   0.062   3.584  0.2869  0.0533 -0.5414
  900TIP3    H1 2657   0.216   0.122   3.515  1.0051  2.5050  1.1667
  900TIP3    H2 2658   0.164   0.043   3.633  0.4836  2.3353  0.8290
  901TIP3   OH2 2659   1.436   0.006   1.041  0.2461  0.4637 -0.3384
  901TIP3    H1 2660   1.348   0.040   1.022  0.1672 -0.0953 -1.0082
  901TIP3    H2 2661   1.463  -0.037   0.960  0.0349 -1.7172  0.6716
  902TIP3   OH2 2662   5.355   6.947   0.256  0.0688 -0.2551 -0.6455
  902TIP3    H1 2663   5.310   6.869   0.289 -0.8555 -0.4760 -2.3034
  902TIP3    H2 2664   5.345   6.942   0.161  0.2335  1.7482 -0.8178
  903TIP3   OH2 2665   4.031   3.612   0.150  0.2347  0.2781  0.0184
  903TIP3    H1 2666   4.063   3.588   0.236  1.3736  1.9599  0.1182
  903TIP3    H2 2667   4.086   3.564   0.089  1.0854  0.9553  0.2285
  904TIP3   OH2 2668   1.791   0.274   5.630 -0.3175 -0.2778 -0.7202
  904TIP3    H1 2669   1.872   0.256   5.678 -0.9921 -1.5749  0.0109
  904TIP3    H2 2670   1.790   0.207   5.562 -0.1939  0.5016 -1.4932
  905TIP3   OH2 2671   0.725   6.630   5.499 -0.2412 -0.2156  0.9419
  905TIP3    H1 2672   0.759   6.628   5.588  0.1218 -0.1605  0.8056
  905TIP3    H2 2673   0.728   6.538   5.470  2.9370  0.1339 -0.2394
  906TIP3   OH2 2674   5.750   0.465   4.395  0.0713 -0.1719  0.0434
  906TIP3    H1 2675   5.782   0.546   4.355  1.1624  0.2128  1.6160
  906TIP3    H2 2676   5.758   0.400   4.325 -0.7228  1.0303 -1.2104
  907TIP3   OH2 2677   2.227   1.958   2.976  0.0863 -0.4259 -0.0124
  907TIP3    H1 2678   2.232   1.899   2.901  1.2524 -1.1684  0.6319
  907TIP3    H2 2679   2.212   1.900   3.051 -3.7016  0.4428  0.1357
  908TIP3   OH2 2680   6.369   4.796   1.678 -0.4359  0.5634  0.5502
  908TIP3    H1 2681   6.300   4.792   1.612 -0.3771 -1.3262  0.5479
  908TIP3    H2 2682   6.450   4.798   1.627 -0.4364  1.3127  0.5671
  909TIP3   OH2 2683   6.805   5.442   4.673  0.4301 -0.1580  0.2984
  909TIP3    H1 2684   6.735   5.502   4.699  0.8604  0.2133  0.6272
  909TIP3    H2 2685   6.883   5.497   4.669  0.8940 -0.7537  0.9310
  910TIP3   OH2 2686   4.633   7.762   6.603  0.2118 -0.3799 -0.4906
  910TIP3    H1 2687   4.684   7.681   6.600 -0.5941 -0.9984  1.1669
  910TIP3    H2 2688   4.694   7.828   6.638  0.4954 -0.5794 -0.6050
  911TIP3   OH2 2689   2.071   3.106   6.365  0.1554 -0.2323  0.1010
  911TIP3    H1 2690   2.049   3.154   6.285  1.6163 -2.1390 -1.5608
  911TIP3    H2 2691   2.029   3.156   6.436  1.0999  3.1213 -1.5020
  912TIP3   OH2 2692   7.049   2.948   2.389 -0.3087 -0.4244  0.6050
  912TIP3    H1 2693   7.025   2.856   2.401  0.3020 -0.6105  0.4215
  912TIP3    H2 2694   7.138   2.954   2.423  0.0888 -0.1535 -0.4509
  913TIP3   OH2 2695   3.380   6.884   5.296 -0.1861 -0.6020 -0.1346
  913TIP3    H1 2696   3.442   6.956   5.306 -0.3936 -0.5499  0.8549
  913TIP3    H2 2697   3.388   6.859   5.204  0.4396  0.1795 -0.3091
  914TIP3   OH2 2698   2.625   6.091   1.092 -0.2561 -0.0154  0.7901
  914TIP3    H1 2699   2.629   6.092   0.997  0.9401 -0.1158  0.8216
  914TIP3    H2 2700   2.631   5.998   1.115  1.2988  0.1093  0.9964
  915TIP3   OH2 2701   4.287  -0.019   5.070 -0.3699  0.3239  0.8703
  915TIP3    H1 2702   4.222  -0.009   5.139 -0.3251  0.3110  0.9148
  915TIP3    H2 2703   4.301   0.070   5.037 -0.7208  0.2700  0.5727
  916TIP3   OH2 2704   6.202   3.389   3.518  0.1228  0.1410 -0.1698
  916TIP3    H1 2705   6.205   3.449   3.592 -0.2519  1.0731 -0.8877
  916TIP3    H2 2706   6.167   3.441   3.446  1.6016 -0.3938 -1.3336
  917TIP3   OH2 2707   4.521   2.385   1.139  0.0594 -0.3920  0.4506
  917TIP3    H1 2708   4.532   2.471   1.098 -1.3838  0.9330  2.5969
  917TIP3    H2 2709   4.445   2.346   1.095  1.6204 -1.3209 -1.5716
  918TIP3   OH2 2710   4.825   4.143   1.411  0.0339  0.2825  0.1200
  918TIP3    H1 2711   4.852   4.051   1.408 -2.1922 -0.4117 -0.8016
  918TIP3    H2 2712   4.854   4.175   1.496 -3.6218 -2.8276  2.8740
  919TIP3   OH2 2713   5.776   5.786   6.118 -0.3214  0.0710 -0.0619
  919TIP3    H1 2714   5.787   5.859   6.057 -1.0251  1.3919  1.3014
  919TIP3    H2 2715   5.847   5.798   6.182 -1.8415  1.0430  1.5324
  920TIP3   OH2 2716   4.083   3.852   4.705  0.2581  0.0792 -0.1266
  920TIP3    H1 2717   4.127   3.934   4.728  0.0341  0.2078 -0.1490
  920TIP3    H2 2718   4.152   3.786   4.707  0.3930  0.2281  0.1224
  921TIP3   OH2 2719   6.825   4.464   5.004  0.0475  0.3515  0.6977
  921TIP3    H1 2720   6.787   4.548   5.026 -0.5598  0.0924  0.6558
  921TIP3    H2 2721   6.755   4.416   4.959  0.4267 -0.1192  0.5932
  922TIP3   OH2 2722   2.063   6.986   2.570  0.6212 -0.1409 -0.4706
  922TIP3    H1 2723   1.982   6.944   2.541  0.1813 -0.0802  0.5912
  922TIP3    H2 2724   2.058   7.075   2.535  0.2667 -0.1630 -0.4855
  923TIP3   OH2 2725   4.740   3.458   1.004  0.1437 -0.0644  0.1804
  923TIP3    H1 2726   4.804   3.391   0.978  0.3450  0.4078 -0.5816
  923TIP3    H2 2727   4.757   3.532   0.945 -0.9057  0.1903  0.1740
  924TIP3   OH2 2728   2.233   2.886   6.570  0.2216 -0.2956  0.2324
  924TIP3    H1 2729   2.297   2.891   6.499 -0.0983 -1.8406 -0.2076
  924TIP3    H2 2730   2.226   2.976   6.602  0.7172  0.3639 -1.3871
  925TIP3   OH2 2731   6.926   7.710   2.141 -0.2455 -0.2236  0.3898
  925TIP3    H1 2732   6.838   7.673   2.133  0.5949 -2.0289 -1.5356
  925TIP3    H2 2733   6.947   7.741   2.052  0.4599  1.7333  1.1851
  926TIP3   OH2 2734   7.077   1.274   5.505 -0.0153  0.4431  0.1585
  926TIP3    H1 2735   7.152   1.215   5.515 -0.0442  0.5302  0.9877
  926TIP3    H2 2736   7.004   1.216   5.483  0.0091  0.1808  0.7262
  927TIP3   OH2 2737   5.857   1.816   6.417  0.4846 -0.1813  0.0323
  927TIP3    H1 2738   5.925   1.844   6.356  0.7254 -1.3879 -0.2868
  927TIP3    H2 2739   5.903   1.801   6.500  0.3071  0.6350  0.2818
  928TIP3   OH2 2740   4.356   1.756   4.376  0.3953  0.2465 -0.3062
  928TIP3    H1 2741   4.371   1.729   4.466  1.3561  2.3698  0.2233
  928TIP3    H2 2742   4.409   1.834   4.365 -1.6308  1.4981 -1.9320
  929TIP3   OH2 2743   3.023   4.984   3.918  0.7690  1.2108  0.0693
  929TIP3    H1 2744   3.051   4.898   3.888  1.0470  0.6962  1.7531
  929TIP3    H2 2745   3.046   5.043   3.846 -0.2621 -0.2162 -1.5035
  930TIP3   OH2 2746   5.535   6.318   4.485  0.6540  0.0106  0.4115
  930TIP3    H1 2747   5.565   6.301   4.395  0.2509 -1.3613  0.5212
  930TIP3    H2 2748   5.441   6.335   4.476  0.9325  1.8200  0.3751
  931TIP3   OH2 2749   7.388   6.279   5.764  0.4755 -0.1320  0.3143
  931TIP3    H1 2750   7.400   6.353   5.705  1.7978 -0.1588  0.5276
  931TIP3    H2 2751   7.433   6.207   5.721  1.6528 -0.0999  1.4463
  932TIP3   OH2 2752   1.697   6.314   6.396 -0.1407 -0.0381 -0.0981
  932TIP3    H1 2753   1.702   6.224   6.366 -1.0726 -0.3185  0.5634
  932TIP3    H2 2754   1.786   6.348   6.385 -0.0197 -0.7094 -1.3164
  933TIP3   OH2 2755   3.450   6.040   1.926  0.3554 -0.9032  0.4109
  933TIP3    H1 2756   3.358   6.043   1.901  0.3495 -0.6417  0.4594
  933TIP3    H2 2757   3.482   6.129   1.912 -0.1704 -0.1566  3.3034
  934TIP3   OH2 2758   1.096   5.004   0.552 -0.4654  0.2869  0.0309
  934TIP3    H1 2759   1.073   4.934   0.490  0.8269  0.6845 -0.9580
  934TIP3    H2 2760   1.175   4.971   0.596  0.3229  1.2059 -0.6429
  935TIP3   OH2 2761   1.366   2.659   1.585  0.5366  0.4127  0.2643
  935TIP3    H1 2762   1.327   2.745   1.568  0.3584 -0.0067 -1.7309
  935TIP3    H2 2763   1.294   2.607   1.622  0.4536  0.9150  0.8173
  936TIP3   OH2 2764   2.514   0.948   4.100  0.4188 -0.0423 -0.3656
  936TIP3    H1 2765   2.595   0.986   4.066  0.7515 -0.8010 -0.4436
  936TIP3    H2 2766   2.519   0.855   4.076 -1.2577  0.1996 -1.9252
  937TIP3   OH2 2767   5.662   1.550   5.096 -0.4729  0.1848  0.3402
  937TIP3    H1 2768   5.673   1.623   5.034  0.1729 -0.3067 -0.1474
  937TIP3    H2 2769   5.651   1.592   5.181 -1.4060  0.8771 -0.1077
  938TIP3   OH2 2770   4.382   3.733   6.358 -0.6328 -0.1772 -0.4702
  938TIP3    H1 2771   4.361   3.684   6.438 -0.4618 -1.7527 -1.3635
  938TIP3    H2 2772   4.386   3.667   6.289  1.6593  0.7998 -1.3668
  939TIP3   OH2 2773   4.021   6.102   2.582 -0.1466  0.0216  1.1556
  939TIP3    H1 2774   4.021   6.012   2.549  0.8567 -0.1253  1.5180
  939TIP3    H2 2775   3.947   6.144   2.538  0.8976 -0.2586 -0.9944
  940TIP3   OH2 2776   2.075   0.079   2.101  0.0325  0.4044 -0.3194
  940TIP3    H1 2777   2.016   0.082   2.176  0.4444 -0.2470  0.0399
  940TIP3    H2 2778   2.051  -0.001   2.055  1.8146 -0.8834  0.8419
  941TIP3   OH2 2779   3.249   4.842   2.031  0.0110 -1.1612  0.1116
  941TIP3    H1 2780   3.200   4.882   2.102 -0.5161 -1.7691  0.0954
  941TIP3    H2 2781   3.248   4.908   1.962  1.6282 -0.0359  1.0977
  942TIP3   OH2 2782   0.986   4.221   1.729  0.0361 -0.4028 -0.3023
  942TIP3    H1 2783   1.009   4.259   1.814  1.2917  0.4146 -0.9720
  942TIP3    H2 2784   1.070   4.190   1.693 -0.6150 -1.6016 -0.8410
  943TIP3   OH2 2785   8.243   0.862   2.327  0.0626 -0.3497 -0.3301
  943TIP3    H1 2786   8.228   0.874   2.421  2.3877 -0.2331  0.0738
  943TIP3    H2 2787   8.210   0.774   2.309 -1.6953  0.1348  0.2533
  944TIP3   OH2 2788   4.335   7.105   2.192 -0.2061 -0.4620 -0.2051
  944TIP3    H1 2789   4.331   7.074   2.102 -0.4455 -1.9137  0.2800
  944TIP3    H2 2790   4.243   7.111   2.219 -0.1249 -0.5352  0.0955
  945TIP3   OH2 2791   5.174   2.485   5.808 -0.2724  0.3201  0.1844
  945TIP3    H1 2792   5.143   2.550   5.746 -1.1891 -1.8928 -1.8023
  945TIP3    H2 2793   5.098   2.465   5.863 -0.4032 -0.0791 -0.1366
  946TIP3   OH2 2794   1.882   3.142   0.356 -0.1819  0.5500 -0.1616
  946TIP3    H1 2795   1.863   3.235   0.366  1.1084  0.6861  1.7233
  946TIP3    H2 2796   1.942   3.137   0.282 -0.6976  1.1439 -0.6222
  947TIP3   OH2 2797   5.033   7.296   6.618  0.1792 -0.1129 -0.3767
  947TIP3    H1 2798   5.051   7.271   6.528 -0.1486  0.3956 -0.5859
  947TIP3    H2 2799   5.116   7.335   6.649  0.8017 -1.7096  0.0604
  948TIP3   OH2 2800   0.180   2.826   4.840 -0.3665  0.1742  0.2907
  948TIP3    H1 2801   0.126   2.901   4.864  0.9764  1.4687 -0.5217
  948TIP3    H2 2802   0.133   2.784   4.768 -0.7392  0.7486  0.1939
  949TIP3   OH2 2803   4.950   6.063   1.590 -0.2171 -0.6537  0.0144
  949TIP3    H1 2804   4.986   5.994   1.534  0.9134 -0.1714  0.1187
  949TIP3    H2 2805   4.876   6.098   1.540 -0.2538 -1.3483 -0.4278
  950TIP3   OH2 2806   0.997   4.119   5.938  0.0708  0.2794 -0.3227
  950TIP3    H1 2807   0.919   4.065   5.944  0.9266 -0.8999  0.6390
  950TIP3    H2 2808   0.995   4.154   5.849 -2.1650  1.2714  0.0492
  951TIP3   OH2 2809   0.408   4.479   1.085  0.1550  0.8700 -0.3040
  951TIP3    H1 2810   0.344   4.408   1.092  0.8092  0.3299  0.4651
  951TIP3    H2 2811   0.367   4.553   1.129 -0.2338  0.7501 -0.4618
  952TIP3   OH2 2812   0.951   0.410   5.585 -0.0121  0.3764  0.8345
  952TIP3    H1 2813   0.983   0.391   5.496  0.2165  2.8351  0.3360
  952TIP3    H2 2814   1.030   0.417   5.638 -0.1207 -0.5161  1.1246
  953TIP3   OH2 2815   8.207   5.174   0.025 -0.3333  0.3154 -0.3742
  953TIP3    H1 2816   8.301   5.185   0.016 -0.4915  1.1558 -1.1110
  953TIP3    H2 2817   8.186   5.213   0.110  0.0574 -0.3670  0.0355
  954TIP3   OH2 2818   2.541   3.960   6.661  0.6810  0.1533 -0.5182
  954TIP3    H1 2819   2.545   4.046   6.619 -0.8197  0.7814  0.5705
  954TIP3    H2 2820   2.554   3.979   6.754  1.9399 -1.0044 -0.4264
  955TIP3   OH2 2821   6.078   1.075   4.535 -0.6969  0.1646 -0.0680
  955TIP3    H1 2822   5.998   1.044   4.577 -0.4106  1.1355  1.2601
  955TIP3    H2 2823   6.138   1.093   4.607  0.2280  0.8212 -0.9633
  956TIP3   OH2 2824   3.969   7.725   0.425  0.0332  0.2829  0.1909
  956TIP3    H1 2825   3.978   7.820   0.414 -1.6432  0.3353 -1.0378
  956TIP3    H2 2826   4.033   7.688   0.365 -0.7964  0.6440 -0.9401
  957TIP3   OH2 2827   5.441   4.466   0.748  0.1613  0.1426  0.2060
  957TIP3    H1 2828   5.450   4.535   0.683 -0.9005  0.6869  0.6124
  957TIP3    H2 2829   5.439   4.512   0.832  0.2431 -0.4437  0.5403
  958TIP3   OH2 2830   6.037   5.193   6.722 -0.6356  0.7401  0.5034
  958TIP3    H1 2831   6.006   5.278   6.754  0.8188  1.2109  0.7400
  958TIP3    H2 2832   6.100   5.165   6.788 -0.4564 -0.1084 -0.0216
  959TIP3   OH2 2833   3.669   6.889   6.158 -0.1107  0.0811  0.3150
  959TIP3    H1 2834   3.627   6.972   6.182  2.2874  1.2104  0.9745
  959TIP3    H2 2835   3.653   6.831   6.232 -2.8665 -0.5715 -0.6713
  960TIP3   OH2 2836   3.521   1.050  -0.031  0.4181 -1.1897 -0.4523
  960TIP3    H1 2837   3.610   1.017  -0.023  1.1519  0.9277  1.0098
  960TIP3    H2 2838   3.500   1.083   0.057 -0.8777  0.5279 -1.3510
  961TIP3   OH2 2839   8.014   2.170   1.210 -0.2832 -0.2196  0.4797
  961TIP3    H1 2840   7.929   2.203   1.180  0.2771 -1.2203 -2.5521
  961TIP3    H2 2841   7.992   2.108   1.280 -2.0152 -0.2288 -0.0179
  962TIP3   OH2 2842   3.229   2.530   6.569  0.0368 -0.2515  0.1806
  962TIP3    H1 2843   3.147   2.572   6.593 -0.4005 -0.9890  0.0023
  962TIP3    H2 2844   3.297   2.588   6.604 -0.5478  0.5869 -0.0428
  963TIP3   OH2 2845   1.845   4.504   2.194 -0.1596  0.5093  0.1108
  963TIP3    H1 2846   1.781   4.480   2.261  0.9522 -0.6780  0.7909
  963TIP3    H2 2847   1.846   4.600   2.195  0.8273  0.5632  2.8332
  964TIP3   OH2 2848   3.344   4.221   0.705 -0.1628  0.0714  0.3003
  964TIP3    H1 2849   3.404   4.296   0.706  0.3509 -0.3264  1.5993
  964TIP3    H2 2850   3.289   4.233   0.782 -0.0315 -0.8975  0.5642
  965TIP3   OH2 2851   3.400   4.177   6.361  0.7826  0.2500  0.1255
  965TIP3    H1 2852   3.337   4.134   6.303  2.5545 -2.5118  0.0375
  965TIP3    H2 2853   3.463   4.218   6.301  1.8104 -1.3759  0.0133
  966TIP3   OH2 2854   3.967   2.085   3.310 -0.4584 -0.3678  0.7619
  966TIP3    H1 2855   3.985   2.062   3.219 -1.4873  0.4926  0.3227
  966TIP3    H2 2856   4.012   2.169   3.323 -0.4899 -0.3831  0.9768
  967TIP3   OH2 2857   7.483   6.429   6.480  0.0835  0.0332  0.2321
  967TIP3    H1 2858   7.405   6.380   6.507 -1.3427  1.7383 -0.6266
  967TIP3    H2 2859   7.510   6.388   6.398  0.0973 -0.5555  0.5243
  968TIP3   OH2 2860   3.038   7.335   1.039  0.4678 -0.4554 -0.0752
  968TIP3    H1 2861   3.049   7.386   1.119  2.4272  0.2058 -0.7205
  968TIP3    H2 2862   3.104   7.370   0.978 -0.3194 -1.5776 -1.6600
  969TIP3   OH2 2863   2.878   5.199   5.777 -0.1251 -0.1014  0.0516
  969TIP3    H1 2864   2.899   5.108   5.798 -1.9278 -0.6153 -0.1689
  969TIP3    H2 2865   2.935   5.219   5.702  0.5336 -0.9268  0.3067
  970TIP3   OH2 2866   5.843   6.354   4.558  0.4438 -0.4984 -0.3647
  970TIP3    H1 2867   5.750   6.355   4.534  0.0674  1.9329  0.8755
  970TIP3    H2 2868   5.875   6.270   4.525 -1.1928  0.2470 -4.5188
  971TIP3   OH2 2869   0.654   6.976   0.330  0.2085  0.0230 -0.2326
  971TIP3    H1 2870   0.638   6.896   0.281  2.0211 -0.2032 -0.5100
  971TIP3    H2 2871   0.742   6.966   0.366  0.4920  1.8951 -0.2839
  972TIP3   OH2 2872   3.760   6.680   0.476 -0.1193  0.0422 -0.1060
  972TIP3    H1 2873   3.772   6.679   0.381  1.8785  0.6226  0.1040
  972TIP3    H2 2874   3.778   6.770   0.502  1.4005 -0.5443  1.0193
  973TIP3   OH2 2875   6.939   1.836   6.196 -0.1253  0.3769 -0.5676
  973TIP3    H1 2876   6.997   1.874   6.262  0.2420 -0.9177 -0.1186
  973TIP3    H2 2877   6.934   1.743   6.219 -0.8696  0.1132 -1.7182
  974TIP3   OH2 2878   6.934   4.202   0.992  0.0154 -0.1733 -0.5349
  974TIP3    H1 2879   6.927   4.225   0.899 -0.8554  0.4676 -0.3312
  974TIP3    H2 2880   6.843   4.190   1.020  0.1005  1.5733  0.6827
  975TIP3   OH2 2881   1.730   6.071   6.310  0.3563 -0.2150  0.2197
  975TIP3    H1 2882   1.694   6.005   6.369 -0.9214 -0.6584 -0.9774
  975TIP3    H2 2883   1.720   6.032   6.222 -1.5159  1.9600 -0.6334
  976TIP3   OH2 2884   4.935   5.885   6.049 -0.3606 -0.3891 -0.1120
  976TIP3    H1 2885   4.993   5.945   6.094  0.4496 -0.1524 -1.4230
  976TIP3    H2 2886   4.993   5.827   6.000 -1.1087 -2.4061  1.2757
  977TIP3   OH2 2887   1.904   7.004   2.044  0.8099  0.6530  0.1093
  977TIP3    H1 2888   1.925   6.974   1.956  2.6596  2.9704 -0.3284
  977TIP3    H2 2889   1.975   7.063   2.067 -1.1588  2.4886  1.9420
  978TIP3   OH2 2890   5.495   0.258   4.894 -0.0690  0.6860 -0.0574
  978TIP3    H1 2891   5.566   0.225   4.840  0.5235  1.7007  0.0666
  978TIP3    H2 2892   5.439   0.308   4.834 -0.5206  0.1325 -0.1017
  979TIP3   OH2 2893   5.711   1.811   4.960 -0.4440  0.1655  0.2202
  979TIP3    H1 2894   5.770   1.878   4.924 -1.6124 -0.5180 -3.3011
  979TIP3    H2 2895   5.624   1.851   4.957 -0.7596 -0.3966  1.2359
  980TIP3   OH2 2896   3.957   7.754   3.401  0.2361  0.5324 -0.3605
  980TIP3    H1 2897   3.975   7.838   3.359  3.2309  0.5854  0.8003
  980TIP3    H2 2898   3.946   7.776   3.494 -1.1942 -0.1635 -0.3273
  981TIP3   OH2 2899   6.277   3.598   5.234  0.5188  0.1271  0.2626
  981TIP3    H1 2900   6.256   3.538   5.306  0.2837 -0.4178 -0.2498
  981TIP3    H2 2901   6.197   3.600   5.181  0.0686  1.8991  0.9550
  982TIP3   OH2 2902   0.562   7.661   0.616 -0.4088 -0.2054 -0.4141
  982TIP3    H1 2903   0.561   7.674   0.711 -1.6003  0.4435 -0.4985
  982TIP3    H2 2904   0.566   7.566   0.605  1.7815 -0.2415  0.2543
  983TIP3   OH2 2905   1.307   2.009   0.972  0.7293 -0.0730 -0.6117
  983TIP3    H1 2906   1.383   2.019   1.028  0.7415  1.7494 -0.9110
  983TIP3    H2 2907   1.236   2.054   1.019 -0.2610 -1.8956 -0.2416
  984TIP3   OH2 2908   4.324   5.972   5.594 -0.1561  0.1082  0.3138
  984TIP3    H1 2909   4.344   5.883   5.564  0.7229  0.1269  0.8203
  984TIP3    H2 2910   4.242   5.962   5.643 -0.6526 -0.2221 -0.5455
  985TIP3   OH2 2911   4.998   5.408   0.288 -0.0427 -0.2002  0.5430
  985TIP3    H1 2912   4.904   5.394   0.302 -0.0200 -0.5536  0.3670
  985TIP3    H2 2913   5.006   5.418   0.193 -0.0117  0.7154  0.6331
  986TIP3   OH2 2914   5.758   7.506   0.399  0.5156 -0.1961 -0.2670
  986TIP3    H1 2915   5.774   7.412   0.401 -0.2866 -0.3330  1.3364
  986TIP3    H2 2916   5.701   7.522   0.475  0.1616  1.4893 -0.8504
  987TIP3   OH2 2917   6.944   3.871   6.348  0.4486  0.0849  0.4322
  987TIP3    H1 2918   7.000   3.799   6.378 -0.2066 -1.2588 -1.3528
  987TIP3    H2 2919   7.005   3.943   6.330  1.1944 -0.2115  1.6605
  988TIP3   OH2 2920   0.599   6.913   6.296 -0.5414 -0.2068  0.6115
  988TIP3    H1 2921   0.650   6.858   6.356 -0.5474 -1.8777 -0.8481
  988TIP3    H2 2922   0.652   6.918   6.217 -0.3004  2.3924  0.8449
  989TIP3   OH2 2923   0.555   2.704   1.250 -0.2541  0.2324 -0.0568
  989TIP3    H1 2924   0.550   2.796   1.273 -0.4847  0.4224 -0.8533
  989TIP3    H2 2925   0.534   2.658   1.332  0.2995  0.8648  0.4570
  990TIP3   OH2 2926   1.524   3.969   3.929 -0.0755 -0.3293 -0.3685
  990TIP3    H1 2927   1.495   3.906   3.863 -0.3305 -0.1067 -0.4737
  990TIP3    H2 2928   1.449   3.977   3.989 -0.7936  1.2897 -1.4128
  991TIP3   OH2 2929   0.057   1.345   1.212  0.7078  0.6820 -0.1228
  991TIP3    H1 2930   0.025   1.406   1.146  0.3466  0.3577 -0.2477
  991TIP3    H2 2931   0.089   1.270   1.162 -1.9069 -0.7082  0.1258
  992TIP3   OH2 2932   1.751   6.685   0.512 -0.4647 -0.5131 -0.6179
  992TIP3    H1 2933   1.721   6.661   0.425 -1.4453  1.8756 -1.0254
  992TIP3    H2 2934   1.814   6.756   0.498  1.9370 -2.2693  0.5057
  993TIP3   OH2 2935   2.599   2.332   5.026  0.0131  0.2298 -0.0082
  993TIP3    H1 2936   2.506   2.327   5.004 -0.1761 -0.9994  0.9716
  993TIP3    H2 2937   2.619   2.248   5.065  1.9028 -0.0687 -1.4630
  994TIP3   OH2 2938   3.014   1.845   5.755 -0.3482  0.4253 -0.0727
  994TIP3    H1 2939   2.971   1.792   5.687  1.1893 -2.1231  0.8035
  994TIP3    H2 2940   3.097   1.800   5.771 -0.2746  1.4301  2.9046
  995TIP3   OH2 2941   6.223   3.806   2.503 -0.1892  0.3381 -0.1938
  995TIP3    H1 2942   6.223   3.753   2.583  5.4550  0.0562  0.0655
  995TIP3    H2 2943   6.175   3.885   2.526 -1.1356 -0.9013  2.4838
  996TIP3   OH2 2944   6.116   3.725   4.119  0.3507  0.2935 -0.0684
  996TIP3    H1 2945   6.198   3.677   4.129  0.3826 -0.1902 -2.1104
  996TIP3    H2 2946   6.055   3.660   4.082 -0.7420  0.8456  0.7056
  997TIP3   OH2 2947   1.221   7.127   3.252 -0.2014  0.3167  0.3800
  997TIP3    H1 2948   1.157   7.061   3.226 -0.0947 -0.0148  0.9420
  997TIP3    H2 2949   1.273   7.084   3.320  0.0002  0.9123  0.6051
  998TIP3   OH2 2950   6.968   7.666   3.460  0.3957 -0.1764  0.2774
  998TIP3    H1 2951   7.040   7.613   3.495 -2.1410 -1.8202  3.4363
  998TIP3    H2 2952   6.937   7.616   3.384  1.2888 -0.4815  0.0975
  999TIP3   OH2 2953   4.987   2.486   2.569 -0.0374  0.0801  0.2086
  999TIP3    H1 2954   4.964   2.559   2.512 -1.9489 -0.3667  0.3443
  999TIP3    H2 2955   5.016   2.528   2.650  0.2182  0.7006 -0.1980
 1000TIP3   OH2 2956   1.424   6.410   1.489  0.4798  0.4300 -0.2883
 1000TIP3    H1 2957   1.403   6.319   1.510  0.3068  0.3023 -0.9742
 1000TIP3    H2 2958   1.481   6.439   1.560  2.8166 -1.0780 -1.4168
 1001TIP3   OH2 2959   5.132   7.594   1.033 -0.2038  0.0664 -0.1206
 1001TIP3    H1 2960   5.081   7.649   0.974  1.6000 -0.3713 -2.2166
 1001TIP3    H2 2961   5.067   7.550   1.088 -2.1288 -0.7488 -2.8581
 1002TIP3   OH2 2962   5.630   6.507   3.478  0.0759  0.5405 -0.0989
 1002TIP3    H1 2963   5.556   6.531   3.421 -1.0271 -1.3011  0.4483
 1002TIP3    H2 2964   5.590   6.496   3.564  1.5731  2.4294  0.9141
 1003TIP3   OH2 2965   5.337   7.685   6.078  0.3291  0.4747 -0.2536
 1003TIP3    H1 2966   5.355   7.733   6.158 -0.9394  0.7640 -0.1090
 1003TIP3    H2 2967   5.242   7.673   6.078  0.6165 -2.6020  0.0385
 1004TIP3   OH2 2968   1.081   0.615   1.096  0.1278  0.0301 -0.2986
 1004TIP3    H1 2969   1.057   0.688   1.039 -1.8627  0.0181  0.4651
 1004TIP3    H2 2970   1.166   0.640   1.132  0.1340  1.3031 -1.1392
 1005TIP3   OH2 2971   1.845   7.749   0.774 -0.1538 -0.1709  0.3660
 1005TIP3    H1 2972   1.832   7.700   0.855  0.5948  0.2310  0.7372
 1005TIP3    H2 2973   1.805   7.693   0.706 -1.7880  0.0152  1.1325
 1006TIP3   OH2 2974   7.231   3.325   4.290  0.1660  0.2904 -0.3580
 1006TIP3    H1 2975   7.216   3.365   4.204  2.2646  0.3142 -0.7700
 1006TIP3    H2 2976   7.255   3.398   4.347  1.0152 -0.0037 -0.3329
 1007TIP3   OH2 2977   1.564   0.588   3.596  0.1887 -0.1268 -0.3612
 1007TIP3    H1 2978   1.572   0.660   3.658  0.7938 -0.6706  0.2054
 1007TIP3    H2 2979   1.594   0.511   3.644 -0.0516 -0.6893 -1.0885
 1008TIP3   OH2 2980   0.790   3.718   1.873 -0.1103  0.4766  0.5022
 1008TIP3    H1 2981   0.745   3.766   1.803  0.6453 -0.4686 -0.6806
 1008TIP3    H2 2982   0.738   3.639   1.885  1.0190 -0.4816 -0.6664
 1009TIP3   OH2 2983   7.214   1.142   1.250  0.4156  0.3660 -0.2582
 1009TIP3    H1 2984   7.254   1.111   1.331 -1.2125 -0.6764  0.2037
 1009TIP3    H2 2985   7.212   1.065   1.193 -0.5517  0.4755 -0.3919
 1010TIP3   OH2 2986   0.193   1.045   3.114 -0.1929 -0.0865  0.6044
 1010TIP3    H1 2987   0.158   1.042   3.024 -0.9606  2.0488  0.7750
 1010TIP3    H2 2988   0.263   1.109   3.110  0.4220 -0.7005  1.3405
 1011TIP3   OH2 2989   7.222   1.932   3.774  0.3850  0.0538 -0.0165
 1011TIP3    H1 2990   7.145   1.987   3.761 -0.2373 -1.1108 -1.6424
 1011TIP3    H2 2991   7.279   1.984   3.830 -0.2578  2.2473 -1.2670
 1012TIP3   OH2 2992   6.668   2.976   4.772  0.1941 -0.2292  0.1619
 1012TIP3    H1 2993   6.613   3.035   4.719  0.0925 -0.6771 -0.2310
 1012TIP3    H2 2994   6.652   2.889   4.736  0.0977 -0.5482  0.9504
 1013TIP3   OH2 2995   4.310   5.156   1.805  0.5814 -0.0699  0.9569
 1013TIP3    H1 2996   4.363   5.208   1.744 -0.5742 -1.2846 -1.1789
 1013TIP3    H2 2997   4.241   5.216   1.833  0.3130  0.1147 -0.0532
 1014TIP3   OH2 2998   1.888   5.622   3.759  0.2300  0.0645 -0.5025
 1014TIP3    H1 2999   1.837   5.548   3.792 -0.3056  0.1933 -1.0289
 1014TIP3    H2 3000   1.919   5.594   3.673  0.3378  0.3098 -0.5454
 1015TIP3   OH2 3001   1.022   0.067   6.139  0.0289  0.5759 -0.3471
 1015TIP3    H1 3002   0.998  -0.015   6.181 -1.3661  0.8401 -0.5996
 1015TIP3    H2 3003   1.118   0.067   6.141  0.1146 -1.6577 -1.5013
 1016TIP3   OH2 3004   7.598   2.897   6.214  0.3454  0.2365 -0.3225
 1016TIP3    H1 3005   7.505   2.872   6.213  0.6878 -1.1142 -1.7380
 1016TIP3    H2 3006   7.611   2.946   6.133  0.4869  2.1479  0.7803
 1017TIP3   OH2 3007   3.449   5.680   1.783 -0.0687 -0.0531  0.1925
 1017TIP3    H1 3008   3.422   5.750   1.724  0.2698  1.0263  1.2931
 1017TIP3    H2 3009   3.544   5.688   1.787  0.1608 -1.6373 -0.9387
 1018TIP3   OH2 3010   3.079   2.332   4.227 -0.0634  0.3743 -0.6960
 1018TIP3    H1 3011   3.099   2.385   4.150 -2.3187 -1.9384 -3.0364
 1018TIP3    H2 3012   3.123   2.249   4.212  0.4959  0.2645  1.2001
 1019TIP3   OH2 3013   8.227   1.360   4.690 -0.4128 -0.4027 -0.3228
 1019TIP3    H1 3014   8.214   1.266   4.701  0.3524 -0.4985 -0.1324
 1019TIP3    H2 3015   8.236   1.372   4.595  1.0556 -0.7710 -0.2676
 1020TIP3   OH2 3016   2.741   2.830   4.180 -0.1456 -0.1591  0.1813
 1020TIP3    H1 3017   2.659   2.876   4.161 -0.1885 -0.1541  0.3684
 1020TIP3    H2 3018   2.772   2.798   4.096 -0.5889 -0.5748  0.1719
 1021TIP3   OH2 3019   3.100   5.370   1.717  0.3086  0.7955 -0.4004
 1021TIP3    H1 3020   3.108   5.442   1.655  0.3303  1.4730  0.3778
 1021TIP3    H2 3021   3.177   5.377   1.773 -0.4566  1.0921  0.6335
 1022TIP3   OH2 3022   5.089   2.646   5.187 -0.6963 -0.0481  0.2330
 1022TIP3    H1 3023   5.085   2.712   5.118 -2.1023 -0.2931  0.0581
 1022TIP3    H2 3024   5.038   2.683   5.259 -0.6704 -0.5287  0.5020
 1023TIP3   OH2 3025   2.541   3.401   2.939  0.1259  0.8880  0.5609
 1023TIP3    H1 3026   2.530   3.462   2.866  1.1804 -0.8387 -1.1235
 1023TIP3    H2 3027   2.618   3.350   2.916 -0.2939 -0.6029  2.2763
 1024TIP3   OH2 3028   2.798   5.361   1.509  0.4210 -0.3954  0.1975
 1024TIP3    H1 3029   2.802   5.457   1.515  1.8355 -0.5133  2.0497
 1024TIP3    H2 3030   2.873   5.338   1.454  0.8210 -0.4892  0.7758
 1025TIP3   OH2 3031   2.794   7.703   3.588 -0.3519  0.7373 -0.0097
 1025TIP3    H1 3032   2.805   7.754   3.668 -1.7416  0.6481  0.2576
 1025TIP3    H2 3033   2.794   7.767   3.518  1.4389  0.7691 -0.0165
 1026TIP3   OH2 3034   7.436   0.148   2.593 -0.3616  0.2455  0.1637
 1026TIP3    H1 3035   7.354   0.104   2.570 -0.7600  2.5623 -3.7631
 1026TIP3    H2 3036   7.416   0.241   2.587  1.8155  0.9649  2.5123
 1027TIP3   OH2 3037   3.234   6.463   5.043 -0.3568  0.2059 -0.3052
 1027TIP3    H1 3038   3.308   6.499   4.994  0.6915 -0.7252  0.5279
 1027TIP3    H2 3039   3.213   6.381   4.998 -0.1491 -0.0720  0.0924
 1028TIP3   OH2 3040   6.372   5.059   2.647 -0.4106 -0.2777  0.0573
 1028TIP3    H1 3041   6.461   5.083   2.672  1.3478 -4.8303 -0.8048
 1028TIP3    H2 3042   6.327   5.044   2.731  0.3653 -0.1738  0.5051
 1029TIP3   OH2 3043   4.137   4.137   1.329 -0.1342 -0.2376  0.3038
 1029TIP3    H1 3044   4.091   4.061   1.295 -1.3938 -0.9292  3.2111
 1029TIP3    H2 3045   4.230   4.116   1.318 -0.4395 -0.5807 -2.0718
 1030TIP3   OH2 3046   3.403   5.967   5.500 -0.1612  0.3362 -0.2580
 1030TIP3    H1 3047   3.321   5.921   5.519 -0.5887  1.2012  0.0529
 1030TIP3    H2 3048   3.379   6.032   5.434  0.7174 -0.7178 -1.6770
 1031TIP3   OH2 3049   0.166   4.849   5.922 -0.3063  0.0049 -0.6448
 1031TIP3    H1 3050   0.225   4.787   5.966  0.6041  0.5488 -1.0552
 1031TIP3    H2 3051   0.078   4.818   5.943  0.1185 -0.5584  0.3909
 1032TIP3   OH2 3052   1.181   7.652   1.385 -0.3647  0.1841 -0.1416
 1032TIP3    H1 3053   1.092   7.657   1.349 -0.0911  0.4534 -0.7907
 1032TIP3    H2 3054   1.175   7.586   1.454 -1.1571  0.4791  0.0890
 1033TIP3   OH2 3055   3.636   3.278   0.339 -0.8642  0.2178 -0.0624
 1033TIP3    H1 3056   3.595   3.212   0.395  1.1461 -0.6337  0.5025
 1033TIP3    H2 3057   3.562   3.325   0.299 -2.3537 -1.3149  0.7498
 1034TIP3   OH2 3058   5.476   4.646   4.280  0.1654  0.3993 -0.0601
 1034TIP3    H1 3059   5.471   4.716   4.345 -1.0457  0.6322 -0.3782
 1034TIP3    H2 3060   5.570   4.627   4.272  0.4744  1.6810  0.3468
 1035TIP3   OH2 3061   3.761   2.732   5.014  0.0002  0.2841  0.3745
 1035TIP3    H1 3062   3.700   2.708   5.084  0.4306  0.3604  0.7859
 1035TIP3    H2 3063   3.807   2.651   4.993  0.0164  0.3061  0.3241
 1036TIP3   OH2 3064   0.070   1.138   5.165 -0.4872  0.5068  0.0198
 1036TIP3    H1 3065   0.135   1.183   5.218 -1.8202  0.4403  1.8205
 1036TIP3    H2 3066   0.059   1.193   5.087  0.8286  1.1308  0.2575
 1037TIP3   OH2 3067   7.192   7.032   2.409 -0.0917  0.3078 -0.0768
 1037TIP3    H1 3068   7.173   6.980   2.331 -0.2732  0.2415  0.0114
 1037TIP3    H2 3069   7.150   7.117   2.391 -0.2077  0.2636 -0.0131
 1038TIP3   OH2 3070   0.163   7.066   5.584  0.6333 -0.4561  0.2846
 1038TIP3    H1 3071   0.158   6.972   5.596  1.2063 -0.8997 -2.3725
 1038TIP3    H2 3072   0.249   7.091   5.619  0.8736 -1.0683  0.1328
 1039TIP3   OH2 3073   1.043   7.733   3.699  0.1612 -0.0775 -0.3127
 1039TIP3    H1 3074   0.990   7.753   3.622 -0.8865 -1.7628 -0.0765
 1039TIP3    H2 3075   1.022   7.802   3.761 -1.2986 -0.3651 -0.4629
 1040TIP3   OH2 3076   4.542   0.067   3.151 -0.5205 -0.1700 -0.5282
 1040TIP3    H1 3077   4.546   0.050   3.057  1.1536  1.1690 -0.7514
 1040TIP3    H2 3078   4.477   0.136   3.161 -1.2971 -0.8751 -0.5797
 1041TIP3   OH2 3079   2.933   2.936   3.197  0.1257 -0.1596  0.6646
 1041TIP3    H1 3080   2.920   3.009   3.257 -0.6441 -0.4213  0.8228
 1041TIP3    H2 3081   2.952   2.861   3.253 -2.0212 -0.7300  0.7092
 1042TIP3   OH2 3082   1.367   1.951   0.014 -0.1952 -0.4783  0.0535
 1042TIP3    H1 3083   1.273   1.968   0.005 -0.1860 -0.4649 -0.0202
 1042TIP3    H2 3084   1.372   1.877   0.074 -0.1742  1.0815  2.0812
 1043TIP3   OH2 3085   0.897   3.958   4.448  0.2714  0.6115  0.1728
 1043TIP3    H1 3086   0.928   3.905   4.522 -0.1214 -0.5900 -0.5000
 1043TIP3    H2 3087   0.958   3.938   4.377  0.9862  2.1934  0.3043
 1044TIP3   OH2 3088   2.096   6.319   0.659 -0.1581  0.0353 -0.2946
 1044TIP3    H1 3089   2.074   6.353   0.572  4.3996  2.0750 -0.9550
 1044TIP3    H2 3090   2.017   6.332   0.711 -3.1632 -1.4030 -3.9924
 1045TIP3   OH2 3091   7.170   7.113   4.941 -0.0726 -0.4176 -0.0889
 1045TIP3    H1 3092   7.099   7.173   4.919 -0.7800 -1.6593 -1.3546
 1045TIP3    H2 3093   7.233   7.124   4.870 -0.5277 -1.6088 -0.7170
 1046TIP3   OH2 3094   1.434   4.857   4.308 -0.7051 -0.2531  0.2160
 1046TIP3    H1 3095   1.454   4.886   4.397 -1.7592 -1.4192  0.8677
 1046TIP3    H2 3096   1.401   4.936   4.264 -1.0018  0.1446  1.1221
 1047TIP3   OH2 3097   1.117   5.853   1.645 -0.2590  0.0173 -0.9307
 1047TIP3    H1 3098   1.184   5.868   1.713 -0.2018  0.5489 -1.0996
 1047TIP3    H2 3099   1.095   5.760   1.654  0.4782 -0.1611 -0.8461
 1048TIP3   OH2 3100   2.520   6.400   3.490  0.5634  0.0730 -0.1943
 1048TIP3    H1 3101   2.453   6.439   3.433 -0.7629 -0.3997  0.9834
 1048TIP3    H2 3102   2.562   6.334   3.435 -1.5138 -1.2230 -0.3438
 1049TIP3   OH2 3103   0.273   6.676   0.568 -0.1232 -0.3741 -0.0157
 1049TIP3    H1 3104   0.224   6.754   0.594 -1.1934 -1.0646  0.1124
 1049TIP3    H2 3105   0.241   6.607   0.627  0.9721 -0.8571  0.0331
 1050TIP3   OH2 3106   0.836   3.758   6.237  0.1649  0.4251 -0.0432
 1050TIP3    H1 3107   0.872   3.802   6.159  3.4450 -0.6021  0.7626
 1050TIP3    H2 3108   0.874   3.805   6.311 -1.9092  0.5844  0.9994
 1051TIP3   OH2 3109   5.485   7.767   3.234  0.1226  0.3192  0.0767
 1051TIP3    H1 3110   5.508   7.696   3.295  2.0517  1.6278  0.9684
 1051TIP3    H2 3111   5.564   7.781   3.182  0.1154  2.4087  0.5422
 1052TIP3   OH2 3112   2.003   7.242   1.865 -0.1893 -0.0760 -0.0363
 1052TIP3    H1 3113   2.089   7.280   1.882  0.4120 -0.4316 -2.0396
 1052TIP3    H2 3114   2.017   7.147   1.869 -0.5000 -0.1345 -0.3264
 1053TIP3   OH2 3115   4.135   3.289   3.296 -0.4015  0.9160  0.5270
 1053TIP3    H1 3116   4.176   3.360   3.344  0.3406 -0.2320  1.6679
 1053TIP3    H2 3117   4.209   3.239   3.260 -0.7259 -0.9526  2.2609
 1054TIP3   OH2 3118   3.690   4.973   4.442  0.2629 -0.5074 -0.2410
 1054TIP3    H1 3119   3.600   4.970   4.475  0.1965 -1.7324 -0.5123
 1054TIP3    H2 3120   3.705   5.066   4.425 -0.3050 -0.0374  1.5636
 1055TIP3   OH2 3121   7.198   7.629   2.673  0.2832 -0.3417 -0.2566
 1055TIP3    H1 3122   7.270   7.690   2.687 -0.0464  0.2516 -1.1119
 1055TIP3    H2 3123   7.201   7.570   2.749  0.5870  0.7388  0.5877
 1056TIP3   OH2 3124   2.236   6.928   1.672  0.5490  0.1808  0.5202
 1056TIP3    H1 3125   2.236   6.940   1.577 -1.0912 -0.7645  0.3636
 1056TIP3    H2 3126   2.189   7.004   1.706  1.1590  0.5324  0.5848
 1057TIP3   OH2 3127   4.041   4.416   6.377  0.0468 -0.4666 -0.8098
 1057TIP3    H1 3128   4.018   4.467   6.454  0.1614 -0.2812 -0.8978
 1057TIP3    H2 3129   4.128   4.380   6.397 -0.5732 -1.7017 -0.2066
 1058TIP3   OH2 3130   4.128   6.792   5.519  0.5677 -0.4851  0.6503
 1058TIP3    H1 3131   4.039   6.809   5.487  0.8727 -0.6754 -0.3439
 1058TIP3    H2 3132   4.128   6.699   5.540  0.2486 -0.2773  1.6363
 1059TIP3   OH2 3133   7.006   1.440   0.571  0.3731  0.1527 -0.3006
 1059TIP3    H1 3134   7.046   1.467   0.654 -1.4711 -0.7238  0.9193
 1059TIP3    H2 3135   6.933   1.500   0.559 -1.1920 -1.5675  0.2806
 1060TIP3   OH2 3136   5.444   7.686   1.186 -0.1371  0.1610 -0.2628
 1060TIP3    H1 3137   5.350   7.682   1.203 -0.1464  0.3756 -0.2629
 1060TIP3    H2 3138   5.453   7.753   1.118 -0.3437 -2.1570 -2.7729
 1061TIP3   OH2 3139   1.957   6.114   1.898  0.3867 -0.0805  0.0648
 1061TIP3    H1 3140   1.980   6.158   1.980 -1.9257 -0.3748  0.9505
 1061TIP3    H2 3141   1.931   6.026   1.925 -2.4384  0.4370 -0.6167
 1062TIP3   OH2 3142   0.235   1.898   0.188  0.4032 -0.0078 -0.1922
 1062TIP3    H1 3143   0.164   1.953   0.220 -0.1923 -1.3082  0.8306
 1062TIP3    H2 3144   0.222   1.893   0.094 -0.3149  0.5121 -0.1286
 1063TIP3   OH2 3145   7.016   4.037   1.965  0.1681 -0.0979  0.1368
 1063TIP3    H1 3146   7.056   4.038   2.051  1.6665 -1.3078 -0.5063
 1063TIP3    H2 3147   7.028   3.947   1.933 -0.6861  0.2173 -1.1806
 1064TIP3   OH2 3148   0.056   2.638   6.646  0.2925  0.2135  0.1102
 1064TIP3    H1 3149   0.150   2.626   6.632  0.3774  0.8935  0.0670
 1064TIP3    H2 3150   0.021   2.549   6.651  0.6073 -0.0764 -1.9911
 1065TIP3   OH2 3151   7.724   7.123   1.248 -0.2687  0.2654  0.2252
 1065TIP3    H1 3152   7.657   7.147   1.311 -1.1014 -0.3614 -0.3955
 1065TIP3    H2 3153   7.675   7.092   1.172  0.7358 -1.3125  0.1856
 1066TIP3   OH2 3154   3.728   4.195   0.450 -0.1599  0.5661  0.0021
 1066TIP3    H1 3155   3.698   4.106   0.464  0.4558  0.3238 -0.1899
 1066TIP3    H2 3156   3.757   4.226   0.536 -0.1717  0.5023  0.0285
 1067TIP3   OH2 3157   7.264   2.661   6.666 -0.2341  0.5107  0.2893
 1067TIP3    H1 3158   7.360   2.656   6.668 -0.1566  0.9117 -1.0529
 1067TIP3    H2 3159   7.242   2.731   6.727  0.4904  1.7242 -0.7799
 1068TIP3   OH2 3160   4.300   3.261   1.244  0.3780 -0.2357 -0.1539
 1068TIP3    H1 3161   4.325   3.251   1.336 -0.0348  1.5574  0.2021
 1068TIP3    H2 3162   4.372   3.313   1.206  0.4496 -0.7972 -0.8112
 1069TIP3   OH2 3163   5.378   5.759   3.440  0.2285  0.6641 -0.1107
 1069TIP3    H1 3164   5.300   5.798   3.399 -0.0710 -0.4457 -0.6413
 1069TIP3    H2 3165   5.361   5.665   3.439  2.0025  0.3080 -1.1519
 1070TIP3   OH2 3166   5.305   7.683   2.180  0.6292  0.1610 -0.7711
 1070TIP3    H1 3167   5.232   7.729   2.222  1.2923 -1.5626  2.5762
 1070TIP3    H2 3168   5.270   7.596   2.161  1.6918 -0.6497  0.7807
 1071TIP3   OH2 3169   5.023   4.608   4.449 -0.3389  0.4451 -0.0161
 1071TIP3    H1 3170   4.999   4.545   4.381 -0.9171  0.1996  0.4072
 1071TIP3    H2 3171   5.035   4.691   4.402 -0.1382  0.1468 -0.4979
 1072TIP3   OH2 3172   1.860   3.649   6.549 -0.5373 -0.4349  0.1854
 1072TIP3    H1 3173   1.840   3.561   6.582 -1.4440 -0.6271 -0.8230
 1072TIP3    H2 3174   1.928   3.635   6.484 -0.6582 -0.3851  0.0488
 1073TIP3   OH2 3175   3.118   5.208   1.114  0.6687  0.1278  0.0390
 1073TIP3    H1 3176   3.181   5.136   1.121  1.4959  0.8609  0.1566
 1073TIP3    H2 3177   3.040   5.176   1.160  0.6654 -1.0819 -0.7432
 1074TIP3   OH2 3178   3.905   2.539   4.214 -0.6225 -0.0395  0.4102
 1074TIP3    H1 3179   3.953   2.456   4.210 -1.6153 -0.5930 -0.3288
 1074TIP3    H2 3180   3.857   2.535   4.297 -0.1016  0.1265  0.7251
 1075TIP3   OH2 3181   0.817   0.167   5.651 -0.8594 -0.0374 -0.3305
 1075TIP3    H1 3182   0.857   0.131   5.730 -0.1125 -2.0712 -1.5251
 1075TIP3    H2 3183   0.860   0.251   5.638 -1.3497  0.5696  1.6463
 1076TIP3   OH2 3184   2.829   0.391   0.263 -0.4346  0.1600  0.1686
 1076TIP3    H1 3185   2.843   0.486   0.268  0.6825 -0.0051  0.4087
 1076TIP3    H2 3186   2.907   0.353   0.303 -1.7873 -0.8454  2.0222
 1077TIP3   OH2 3187   6.907   2.061   0.496 -0.2427 -0.0632 -0.7876
 1077TIP3    H1 3188   6.826   2.026   0.533 -0.6539  2.5900  1.1400
 1077TIP3    H2 3189   6.912   2.023   0.408 -3.2195 -0.8273 -0.7383
 1078TIP3   OH2 3190   5.113   0.040   5.346  0.0743  0.1115  0.3999
 1078TIP3    H1 3191   5.062  -0.040   5.356  1.1038 -0.4900  0.9716
 1078TIP3    H2 3192   5.055   0.100   5.299 -1.7450 -0.0167  2.3196
 1079TIP3   OH2 3193   7.228   3.116   3.108 -0.7085  0.0506  0.1681
 1079TIP3    H1 3194   7.169   3.192   3.105 -0.3684  0.2985 -0.3722
 1079TIP3    H2 3195   7.196   3.064   3.182  1.7132  2.9078  3.5372
 1080TIP3   OH2 3196   3.691   1.977   2.671  0.3141  0.2180  0.0895
 1080TIP3    H1 3197   3.673   1.941   2.584  0.9013 -0.4505  0.2305
 1080TIP3    H2 3198   3.622   1.941   2.727  0.4437 -0.0595  0.0718
 1081TIP3   OH2 3199   7.439   7.711   2.763  0.4671 -0.1335 -0.8302
 1081TIP3    H1 3200   7.490   7.674   2.835 -2.0576  0.5775  1.4913
 1081TIP3    H2 3201   7.486   7.685   2.684  2.9094 -1.7092  1.0078
 1082TIP3   OH2 3202   7.139   6.467  -0.018 -0.4139 -0.3435  0.4745
 1082TIP3    H1 3203   7.234   6.470  -0.007 -0.2978 -0.6889 -0.4140
 1082TIP3    H2 3204   7.105   6.508   0.062  0.5367  3.2820 -0.7550
 1083TIP3   OH2 3205   7.323   5.223   2.278  0.4360  0.1081 -0.3368
 1083TIP3    H1 3206   7.231   5.198   2.280 -0.1937  2.1470 -1.2431
 1083TIP3    H2 3207   7.332   5.286   2.350  1.0100  0.2806 -0.5545
 1084TIP3   OH2 3208   6.732   7.686   1.494  0.2824  0.0268  0.7174
 1084TIP3    H1 3209   6.820   7.703   1.461  0.3046 -0.8096  0.3424
 1084TIP3    H2 3210   6.678   7.752   1.450  0.5456 -0.1612  0.0935
 1085TIP3   OH2 3211   1.049   2.054   3.843  0.3996  0.6248  0.0283
 1085TIP3    H1 3212   1.080   2.029   3.929  2.3731 -0.2385 -0.8777
 1085TIP3    H2 3213   1.081   1.986   3.784 -2.4507  0.1737 -1.1961
 1086TIP3   OH2 3214   5.726   6.082   4.898 -0.0418 -0.3256  0.3391
 1086TIP3    H1 3215   5.766   6.002   4.863  2.3993  1.2356 -0.6738
 1086TIP3    H2 3216   5.659   6.105   4.834  1.9215  0.5189 -1.4997
 1087TIP3   OH2 3217   7.896   6.622   4.500  0.2970  0.0324 -0.3125
 1087TIP3    H1 3218   7.894   6.706   4.453 -0.1060 -0.3743 -1.0443
 1087TIP3    H2 3219   7.981   6.584   4.477  0.9680  0.7333  0.9306
 1088TIP3   OH2 3220   2.958   2.682   3.318  0.1834 -0.6249 -0.0480
 1088TIP3    H1 3221   2.932   2.715   3.403  1.3964  0.0761  0.0747
 1088TIP3    H2 3222   2.991   2.594   3.336  1.4863 -0.0702  0.4142
 1089TIP3   OH2 3223   2.297   1.837   1.146  0.0937 -0.0251  0.7393
 1089TIP3    H1 3224   2.279   1.820   1.238  0.6477 -0.3281  0.7938
 1089TIP3    H2 3225   2.308   1.932   1.141 -2.5483  0.3406  0.5112
 1090TIP3   OH2 3226   6.817   5.167   4.028 -0.1623 -0.2651 -0.4108
 1090TIP3    H1 3227   6.758   5.143   3.957 -1.8110  1.8436  0.1520
 1090TIP3    H2 3228   6.904   5.158   3.991 -0.9700  0.4398 -2.5813
 1091TIP3   OH2 3229   2.861   0.621   2.826 -0.2950 -0.3625 -0.7306
 1091TIP3    H1 3230   2.795   0.602   2.759  1.2342  1.9424 -3.1097
 1091TIP3    H2 3231   2.945   0.601   2.784  0.6806 -0.6100  1.2001
 1092TIP3   OH2 3232   6.319   2.223   3.889 -0.1935 -0.2158  0.0795
 1092TIP3    H1 3233   6.324   2.175   3.806 -0.4113  1.3706 -0.9028
 1092TIP3    H2 3234   6.386   2.182   3.944  0.7578 -0.5879 -1.2887
 1093TIP3   OH2 3235   6.072   6.152   5.343 -0.7320 -0.4828 -0.2414
 1093TIP3    H1 3236   6.049   6.093   5.415 -2.2669 -2.0061 -1.9040
 1093TIP3    H2 3237   6.149   6.111   5.302 -0.7593 -0.4100 -0.3648
 1094TIP3   OH2 3238   5.309   6.847   3.681 -0.2091  0.1993  0.1464
 1094TIP3    H1 3239   5.363   6.903   3.626  0.9106 -0.3267  0.6619
 1094TIP3    H2 3240   5.371   6.809   3.744 -1.1820 -0.4534  0.7401
 1095TIP3   OH2 3241   5.595   2.118   6.619  0.3102 -0.6203 -0.4461
 1095TIP3    H1 3242   5.616   2.077   6.535  0.1047 -0.4977 -0.5573
 1095TIP3    H2 3243   5.513   2.164   6.603 -0.3239 -1.5308  0.1216
 1096TIP3   OH2 3244   3.068   5.873   2.763  0.5632 -0.1844  0.0247
 1096TIP3    H1 3245   3.119   5.937   2.713  1.7868 -1.3432 -0.2643
 1096TIP3    H2 3246   3.091   5.788   2.725 -1.0214 -0.8293  0.3913
 1097TIP3   OH2 3247   2.403   7.278   1.663 -0.2262 -0.4549  0.2016
 1097TIP3    H1 3248   2.497   7.287   1.678 -0.3846  2.8307  0.0096
 1097TIP3    H2 3249   2.391   7.302   1.570 -1.3309  0.5900  0.5776
 1098TIP3   OH2 3250   7.401   1.674   3.803  0.5758  0.3074  0.0302
 1098TIP3    H1 3251   7.357   1.625   3.872  1.4169  0.1505  0.4662
 1098TIP3    H2 3252   7.372   1.633   3.721  1.3632 -1.0265  0.3836
 1099TIP3   OH2 3253   1.135   0.758   2.227 -0.7359  0.3055 -0.3387
 1099TIP3    H1 3254   1.196   0.770   2.300 -0.0451  1.7160 -1.0974
 1099TIP3    H2 3255   1.163   0.675   2.187  0.1437  0.4972 -0.1548
 1100TIP3   OH2 3256   4.694   2.543   0.137  0.1713 -0.2128  0.0405
 1100TIP3    H1 3257   4.633   2.576   0.203  0.0249 -0.9697  0.2896
 1100TIP3    H2 3258   4.697   2.448   0.152 -0.6397 -0.5515 -1.7083
 1101TIP3   OH2 3259   3.397   5.654   3.047  0.1355 -0.3398 -0.3387
 1101TIP3    H1 3260   3.452   5.576   3.055  0.4505 -0.0653  0.2768
 1101TIP3    H2 3261   3.330   5.644   3.115 -1.2559 -1.1861 -1.7630
 1102TIP3   OH2 3262   2.156   1.755   5.559  0.3593 -0.1743  0.4079
 1102TIP3    H1 3263   2.163   1.678   5.503 -2.5510  0.9557 -1.7727
 1102TIP3    H2 3264   2.243   1.796   5.555  0.7809 -1.1697 -1.7251
 1103TIP3   OH2 3265   6.692   2.701   2.455 -0.0021 -0.1931  0.5293
 1103TIP3    H1 3266   6.665   2.741   2.537  1.1799 -1.3593  1.5249
 1103TIP3    H2 3267   6.787   2.694   2.462 -0.1075 -2.7425  0.2204
 1104TIP3   OH2 3268   4.317   4.953   3.100 -0.8935 -0.0538  0.2818
 1104TIP3    H1 3269   4.259   4.934   3.026 -0.4194  0.0520 -0.1253
 1104TIP3    H2 3270   4.390   5.001   3.061  0.5454 -2.0303  0.3820
 1105TIP3   OH2 3271   7.939   1.775   4.750 -0.5216 -0.2877 -0.0222
 1105TIP3    H1 3272   7.926   1.686   4.783  0.7885 -1.6575 -2.8076
 1105TIP3    H2 3273   8.010   1.810   4.804  0.9543 -2.0970 -0.6647
 1106TIP3   OH2 3274   7.623   4.935   5.153  0.6673  0.2301 -0.4491
 1106TIP3    H1 3275   7.636   4.870   5.083  0.6593 -0.5213  0.2307
 1106TIP3    H2 3276   7.704   4.932   5.204  0.7194  0.8581 -0.4899
 1107TIP3   OH2 3277   3.575   3.907   5.239  0.7428 -0.3732  0.2251
 1107TIP3    H1 3278   3.577   3.970   5.311 -1.0772 -0.0690  0.0710
 1107TIP3    H2 3279   3.654   3.855   5.250 -0.0188 -1.0908  3.1706
 1108TIP3   OH2 3280   5.361   5.382   0.660 -0.5243 -0.3933  0.1709
 1108TIP3    H1 3281   5.362   5.338   0.575 -0.2529 -0.6589  0.3099
 1108TIP3    H2 3282   5.449   5.369   0.695  0.0614  1.5637 -0.4449
 1109TIP3   OH2 3283   7.175   0.570   0.778 -0.1713 -0.2764 -0.4501
 1109TIP3    H1 3284   7.096   0.619   0.801 -0.7299 -0.7029 -1.4270
 1109TIP3    H2 3285   7.144   0.484   0.750  0.7503 -0.9793  0.5591
 1110TIP3   OH2 3286   2.426   5.118   5.387 -0.0313  0.1341  0.2506
 1110TIP3    H1 3287   2.513   5.156   5.397 -0.2067  0.3046  1.3241
 1110TIP3    H2 3288   2.432   5.064   5.309  0.6009  1.3315 -0.5534
 1111TIP3   OH2 3289   6.624   5.674   1.645  0.1984 -0.1024  0.1893
 1111TIP3    H1 3290   6.714   5.685   1.676  0.5157 -1.5812 -0.1137
 1111TIP3    H2 3291   6.615   5.580   1.632 -2.1275 -0.3283  2.4479
 1112TIP3   OH2 3292   1.741   0.113   6.745  0.1013 -0.4843 -0.4596
 1112TIP3    H1 3293   1.815   0.090   6.688  2.1217  0.4063  1.6107
 1112TIP3    H2 3294   1.728   0.034   6.798  1.7237  0.3061  1.2488
 1113TIP3   OH2 3295   5.081   3.419   0.153 -0.0350  0.5272  0.1065
 1113TIP3    H1 3296   5.105   3.348   0.094  1.4678  1.2195 -0.1646
 1113TIP3    H2 3297   5.019   3.472   0.104 -0.5644 -0.1543  0.0251
 1114TIP3   OH2 3298   7.905   1.441   3.944  0.3087 -0.0383  0.7350
 1114TIP3    H1 3299   7.852   1.503   3.894 -0.3624 -0.1161  1.3299
 1114TIP3    H2 3300   7.982   1.426   3.889  0.5776  1.4632  0.6615
 1115TIP3   OH2 3301   2.416   0.781   0.760  0.3981  0.4411  0.4410
 1115TIP3    H1 3302   2.477   0.711   0.736  0.1719 -0.2263  1.7510
 1115TIP3    H2 3303   2.391   0.820   0.676  1.2889 -0.3945 -0.2390
 1116TIP3   OH2 3304   7.892   3.777   1.248 -0.1842  0.5145  0.0392
 1116TIP3    H1 3305   7.878   3.828   1.328 -2.3393  0.9701 -0.5625
 1116TIP3    H2 3306   7.975   3.731   1.263  0.5234  2.2006  1.6543
 1117TIP3   OH2 3307   3.909   0.771   0.710 -0.1923  0.6674 -0.1555
 1117TIP3    H1 3308   3.824   0.743   0.745 -0.3060  0.3233 -0.7045
 1117TIP3    H2 3309   3.962   0.789   0.788 -0.1827 -0.8507  0.2110
 1118TIP3   OH2 3310   6.552   1.708   5.073 -0.6606  0.1361  0.8396
 1118TIP3    H1 3311   6.644   1.686   5.088  0.2355  0.4771 -3.1977
 1118TIP3    H2 3312   6.514   1.628   5.038 -0.7434  1.0961 -1.4270
 1119TIP3   OH2 3313   6.778   1.329   2.118 -0.6096  0.2315 -0.4451
 1119TIP3    H1 3314   6.725   1.309   2.042  0.2493  3.2329 -1.9905
 1119TIP3    H2 3315   6.825   1.248   2.137 -1.9007 -0.9984 -2.2099
 1120TIP3   OH2 3316   4.398   3.631   5.535 -0.8335 -0.2025 -0.1463
 1120TIP3    H1 3317   4.437   3.686   5.603 -0.2918 -2.1880  1.2081
 1120TIP3    H2 3318   4.307   3.621   5.561 -1.0296  0.3287 -0.6018
 1121TIP3   OH2 3319   5.288   5.797   6.203 -0.1863  0.0950 -0.0494
 1121TIP3    H1 3320   5.228   5.842   6.263 -0.0050  1.6828 -0.9783
 1121TIP3    H2 3321   5.332   5.732   6.256  1.8682  3.1068  2.2692
 1122TIP3   OH2 3322   1.367   5.355   3.952  0.4933 -0.5094 -0.6890
 1122TIP3    H1 3323   1.451   5.374   3.993 -0.2620  1.3967  0.0586
 1122TIP3    H2 3324   1.310   5.330   4.025  0.2127 -1.1216 -1.1080
 1123TIP3   OH2 3325   7.553   2.073   4.643  0.4488  0.3683 -0.5572
 1123TIP3    H1 3326   7.620   2.025   4.690  0.9708  1.3674 -0.2538
 1123TIP3    H2 3327   7.511   2.008   4.587  0.2935 -0.6937  0.7601
 1124TIP3   OH2 3328   2.547   3.021   2.331 -0.4273 -0.1055  0.1121
 1124TIP3    H1 3329   2.576   3.022   2.422 -0.6918 -1.7912  0.2406
 1124TIP3    H2 3330   2.627   3.007   2.281 -0.3517  0.3148  0.1109
 1125TIP3   OH2 3331   3.167   5.048   1.858  0.3843  0.3521  0.1237
 1125TIP3    H1 3332   3.110   4.974   1.878  1.2793 -0.7142 -1.0493
 1125TIP3    H2 3333   3.108   5.118   1.829 -0.4298 -0.1543  0.5296
 1126TIP3   OH2 3334   2.522   4.551   2.325 -0.5232  0.0488 -0.5586
 1126TIP3    H1 3335   2.521   4.532   2.231  0.5656 -0.6672 -0.4502
 1126TIP3    H2 3336   2.434   4.527   2.355 -0.8988  0.3366 -1.3987
 1127TIP3   OH2 3337   6.891   6.783   2.037  0.1377 -0.3903 -0.3495
 1127TIP3    H1 3338   6.967   6.752   2.085 -0.0066  2.1690  1.8045
 1127TIP3    H2 3339   6.870   6.868   2.077 -2.3918  0.1365 -2.4540
 1128TIP3   OH2 3340   1.110   6.761   0.859  0.2447 -0.0050 -0.7041
 1128TIP3    H1 3341   1.202   6.761   0.886  0.3150 -1.5881 -0.8557
 1128TIP3    H2 3342   1.075   6.842   0.895  1.2087 -0.3410  1.1527
 1129TIP3   OH2 3343   4.727   0.679   4.245  0.2961  0.6668  0.4083
 1129TIP3    H1 3344   4.692   0.644   4.164  2.5174  2.0352 -1.2720
 1129TIP3    H2 3345   4.741   0.603   4.301  1.8468 -0.8083 -1.8105
 1130TIP3   OH2 3346   3.904   2.047   0.597  0.0041 -0.3053  0.1168
 1130TIP3    H1 3347   3.893   2.139   0.619  0.1361 -0.4203  0.6801
 1130TIP3    H2 3348   3.898   2.001   0.680  1.3213 -0.6820  0.0380
 1131TIP3   OH2 3349   3.368   1.573   0.510 -0.0676 -0.4896  0.3427
 1131TIP3    H1 3350   3.328   1.656   0.486  0.0018 -0.4977  0.1970
 1131TIP3    H2 3351   3.460   1.583   0.486 -0.3831 -1.2371 -1.3263
 1132TIP3   OH2 3352   1.175   2.089   6.543 -0.1225 -0.6984  0.6484
 1132TIP3    H1 3353   1.225   2.066   6.621 -1.0799 -0.6714  1.2778
 1132TIP3    H2 3354   1.238   2.136   6.488  1.0168 -2.1201  0.6701
 1133TIP3   OH2 3355   7.474   0.461   3.105 -0.1187 -0.4083 -0.0561
 1133TIP3    H1 3356   7.415   0.387   3.118  0.2041 -0.7042 -0.2757
 1133TIP3    H2 3357   7.437   0.508   3.030  0.6304 -1.3043 -1.0032
 1134TIP3   OH2 3358   7.359   1.585   2.740 -0.4594  0.3229  0.3990
 1134TIP3    H1 3359   7.415   1.627   2.675 -0.8388  1.6138  0.8650
 1134TIP3    H2 3360   7.418   1.530   2.791 -0.1439 -0.6626 -0.9709
 1135TIP3   OH2 3361   2.188   6.777   0.063  0.1674  0.1413  0.1805
 1135TIP3    H1 3362   2.238   6.853   0.093 -2.0213  1.7174  0.0817
 1135TIP3    H2 3363   2.186   6.786  -0.032 -0.1670  0.0109  0.1730
 1136TIP3   OH2 3364   2.000   5.207   6.589  0.1392 -0.1007  0.0221
 1136TIP3    H1 3365   2.073   5.250   6.634  0.8905 -2.0398  0.7900
 1136TIP3    H2 3366   1.941   5.278   6.565  2.1510  1.5195 -0.4192
 1137TIP3   OH2 3367   4.393   1.999   5.327 -0.1803 -0.2791 -0.2541
 1137TIP3    H1 3368   4.428   2.084   5.353 -1.7782  0.3597 -0.0709
 1137TIP3    H2 3369   4.437   1.936   5.383  1.8282  0.2693 -1.1084
 1138TIP3   OH2 3370   3.861   7.682   5.951 -0.1792  0.0599  0.5283
 1138TIP3    H1 3371   3.888   7.637   5.871  0.0447 -1.0434  1.1927
 1138TIP3    H2 3372   3.777   7.723   5.930  0.3249  0.5728 -0.5344
 1139TIP3   OH2 3373   3.251   4.961   5.821 -0.3845 -0.1416 -0.0258
 1139TIP3    H1 3374   3.214   4.888   5.770  0.3155 -1.3310  1.1208
 1139TIP3    H2 3375   3.342   4.936   5.837 -0.1498  0.9609  0.4403
 1140TIP3   OH2 3376   6.832   2.973   5.266 -0.0464  0.1837 -0.3530
 1140TIP3    H1 3377   6.821   3.067   5.281 -0.9141 -0.2360  2.1235
 1140TIP3    H2 3378   6.927   2.959   5.268  0.0475  0.8556  0.6547
 1141TIP3   OH2 3379   4.247   5.640   2.003  0.4312 -0.5423 -0.3572
 1141TIP3    H1 3380   4.177   5.618   2.063  0.9258 -0.3218  0.3147
 1141TIP3    H2 3381   4.322   5.658   2.059  0.6327  0.6688 -0.9830
 1142TIP3   OH2 3382   7.672   6.434   4.534 -0.3007 -0.2392  0.3423
 1142TIP3    H1 3383   7.717   6.352   4.516  0.2160  0.3951 -1.5439
 1142TIP3    H2 3384   7.742   6.499   4.537 -0.8923  0.4714 -0.6393
 1143TIP3   OH2 3385   5.833   0.663   1.443  0.3680 -0.1965 -0.2043
 1143TIP3    H1 3386   5.831   0.668   1.539  2.2062  1.1151 -0.1830
 1143TIP3    H2 3387   5.754   0.614   1.420  0.1129 -0.9292  1.9961
 1144TIP3   OH2 3388   8.247   4.118   0.914 -0.1318 -0.0376 -0.1818
 1144TIP3    H1 3389   8.237   4.145   1.005  1.6545  1.5453 -0.3978
 1144TIP3    H2 3390   8.170   4.156   0.870 -1.4173 -1.4586  0.7307
 1145TIP3   OH2 3391   2.713   0.147   1.285 -0.0014 -0.8274 -0.0627
 1145TIP3    H1 3392   2.740   0.062   1.249 -0.7308 -0.7806 -0.7218
 1145TIP3    H2 3393   2.794   0.199   1.286  0.4278 -1.4807  0.2405
 1146TIP3   OH2 3394   1.259   2.665   1.153 -0.0440  0.0172 -0.3528
 1146TIP3    H1 3395   1.324   2.734   1.167  0.6912 -0.7421  0.0684
 1146TIP3    H2 3396   1.176   2.704   1.182  0.5221  0.3931  0.8079
 1147TIP3   OH2 3397   4.848   1.523   3.193  0.1673  0.1532 -0.5188
 1147TIP3    H1 3398   4.879   1.450   3.139 -1.8621  0.0256 -1.6003
 1147TIP3    H2 3399   4.813   1.482   3.271  1.2190  0.1842 -0.0135
 1148TIP3   OH2 3400   7.704   7.546   1.417  0.3249 -0.1825  0.2521
 1148TIP3    H1 3401   7.782   7.577   1.463 -0.7343  0.4629  1.6639
 1148TIP3    H2 3402   7.631   7.592   1.458 -0.7218  0.2364 -1.9062
 1149TIP3   OH2 3403   3.429   3.286   5.599  0.3793  0.1559 -0.1877
 1149TIP3    H1 3404   3.348   3.294   5.649  0.4979  2.2171 -0.2610
 1149TIP3    H2 3405   3.403   3.239   5.519 -0.3071 -0.9439  0.6480
 1150TIP3   OH2 3406   3.863   0.897   2.441 -0.3941  0.2899  0.1007
 1150TIP3    H1 3407   3.842   0.978   2.487 -0.5726  0.2134  0.1565
 1150TIP3    H2 3408   3.879   0.834   2.512 -1.0433  0.0748  0.0633
 1151TIP3   OH2 3409   7.961   0.750   2.537  0.1235 -0.5614  0.3551
 1151TIP3    H1 3410   7.973   0.766   2.630  0.1330 -0.5783  0.3568
 1151TIP3    H2 3411   8.006   0.667   2.521  1.5698  0.2544  0.0111
 1152TIP3   OH2 3412   2.526   6.206   2.790  0.5902  0.5446  0.5684
 1152TIP3    H1 3413   2.452   6.253   2.751  0.4819  0.3303  0.5175
 1152TIP3    H2 3414   2.599   6.224   2.730  0.3450 -0.0624  0.0773
 1153TIP3   OH2 3415   1.234   5.679   2.731  0.7453  0.2137 -0.1476
 1153TIP3    H1 3416   1.157   5.628   2.756  0.5627 -0.2733 -1.5748
 1153TIP3    H2 3417   1.202   5.769   2.724  0.7643  0.3298  1.1108
 1154TIP3   OH2 3418   7.641   5.292   2.895 -0.3752 -0.3925  0.1186
 1154TIP3    H1 3419   7.678   5.332   2.974 -0.0573 -1.5121  0.5633
 1154TIP3    H2 3420   7.555   5.260   2.923 -0.4397 -0.4102 -0.1016
 1155TIP3   OH2 3421   2.946   3.485   5.826  0.7975  0.2654  0.4761
 1155TIP3    H1 3422   2.881   3.478   5.755  0.3378  0.1156  0.9100
 1155TIP3    H2 3423   2.967   3.394   5.847  0.9033  0.3113  0.5661
 1156TIP3   OH2 3424   0.249   2.398   0.469  0.1445  0.0577  0.1233
 1156TIP3    H1 3425   0.223   2.458   0.399 -1.9380 -1.4977 -0.5423
 1156TIP3    H2 3426   0.279   2.319   0.423  0.2501 -0.4053  0.9687
 1157TIP3   OH2 3427   7.606   1.997   3.108  0.6152  0.1254 -0.5423
 1157TIP3    H1 3428   7.557   1.950   3.175 -1.1051  0.9282 -1.1800
 1157TIP3    H2 3429   7.617   1.935   3.037 -1.6155  0.5858 -1.3674
 1158TIP3   OH2 3430   3.391   0.013   2.677  0.5895  0.2522  0.0655
 1158TIP3    H1 3431   3.405   0.080   2.610 -0.4475 -0.3936 -0.8383
 1158TIP3    H2 3432   3.359   0.061   2.753 -0.0691  0.7949 -0.5455
 1159TIP3   OH2 3433   7.891   5.444   0.733  0.4396 -0.3346 -0.2149
 1159TIP3    H1 3434   7.861   5.441   0.823  2.3140  0.8152  0.5135
 1159TIP3    H2 3435   7.852   5.525   0.698 -0.8122 -1.1091 -0.6827
 1160TIP3   OH2 3436   5.230   3.019   2.919 -0.0822  0.0194 -0.2544
 1160TIP3    H1 3437   5.187   3.093   2.961 -1.3049 -1.0420  0.4066
 1160TIP3    H2 3438   5.306   3.000   2.975  0.0226  0.5292 -0.2213
 1161TIP3   OH2 3439   0.414   1.215   3.181 -0.6451  0.2550  0.4121
 1161TIP3    H1 3440   0.358   1.197   3.256 -0.4580  0.5972  0.6349
 1161TIP3    H2 3441   0.503   1.197   3.212 -0.4978  1.1525  0.5094
 1162TIP3   OH2 3442   3.260   0.508   6.340  0.2739 -0.7914 -0.3576
 1162TIP3    H1 3443   3.179   0.474   6.302 -0.1901  0.4197 -0.4908
 1162TIP3    H2 3444   3.246   0.603   6.346  0.9920 -0.7656  1.2866
 1163TIP3   OH2 3445   7.704   2.235   6.446  0.2703  0.2237  0.1828
 1163TIP3    H1 3446   7.660   2.292   6.509  0.7678  0.0880  0.6629
 1163TIP3    H2 3447   7.772   2.190   6.497  1.5615  1.0916 -0.7191
 1164TIP3   OH2 3448   5.231   5.986   1.233  0.1189 -0.6642 -0.2972
 1164TIP3    H1 3449   5.280   6.006   1.313 -0.4946  0.0278 -0.0784
 1164TIP3    H2 3450   5.229   6.069   1.186 -2.3546 -0.1599  0.5408
 1165TIP3   OH2 3451   2.423   2.541   3.335 -0.1584 -0.0046 -0.6892
 1165TIP3    H1 3452   2.489   2.606   3.358 -0.0771 -0.2505 -0.2204
 1165TIP3    H2 3453   2.406   2.494   3.417 -2.8236  1.7570 -0.0888
 1166TIP3   OH2 3454   2.706   6.482   2.311  0.0458  0.4441  0.4104
 1166TIP3    H1 3455   2.615   6.511   2.307 -0.0704  0.1836  0.9926
 1166TIP3    H2 3456   2.733   6.502   2.401 -0.0261 -1.2058  0.8245
 1167TIP3   OH2 3457   4.934   2.786   2.741  0.2607 -0.3095 -0.1350
 1167TIP3    H1 3458   4.973   2.864   2.702  0.5145 -0.4077 -0.0832
 1167TIP3    H2 3459   4.983   2.774   2.823  0.2489 -0.5436 -0.1620
 1168TIP3   OH2 3460   1.841   0.611   2.540 -0.2853 -0.2995  0.0606
 1168TIP3    H1 3461   1.846   0.516   2.535 -1.0918 -0.3856  0.6808
 1168TIP3    H2 3462   1.869   0.632   2.629  1.2732  0.1689 -0.5120
 1169TIP3   OH2 3463   7.648   6.534   5.776 -0.0634 -0.4938 -0.1594
 1169TIP3    H1 3464   7.595   6.510   5.851 -0.8434  1.0763 -0.1692
 1169TIP3    H2 3465   7.722   6.582   5.813  0.3267 -0.9845 -0.2934
 1170TIP3   OH2 3466   4.443   7.539   6.457  0.2000  0.6166 -0.4864
 1170TIP3    H1 3467   4.531   7.503   6.457 -0.1186 -0.2508  1.1653
 1170TIP3    H2 3468   4.452   7.625   6.415  1.7727  0.4518 -0.5407
 1171TIP3   OH2 3469   0.107   0.253   4.077 -0.9842 -0.1626 -0.0213
 1171TIP3    H1 3470   0.059   0.332   4.054  0.0485  0.3006 -0.6967
 1171TIP3    H2 3471   0.189   0.261   4.028 -0.5685 -1.3085  0.4655
 1172TIP3   OH2 3472   8.111   2.409   6.268  0.4107  0.1104 -0.3051
 1172TIP3    H1 3473   8.185   2.379   6.320  1.7666  0.3482 -1.9863
 1172TIP3    H2 3474   8.145   2.411   6.178 -2.1821 -1.5701 -1.4287
 1173TIP3   OH2 3475   2.450   2.245   2.287 -0.2053  0.1380 -0.6141
 1173TIP3    H1 3476   2.371   2.299   2.294 -0.8922 -0.9344  0.0370
 1173TIP3    H2 3477   2.514   2.302   2.243 -0.8589  1.5375  0.1916
 1174TIP3   OH2 3478   6.716   6.564   3.029  0.4264 -0.1835  0.5578
 1174TIP3    H1 3479   6.735   6.614   2.949 -0.7231  1.9098  1.5006
 1174TIP3    H2 3480   6.802   6.546   3.066  0.9038  1.2835  0.2411
 1175TIP3   OH2 3481   1.575   1.893   2.710  0.1017 -0.2986  0.0777
 1175TIP3    H1 3482   1.593   1.924   2.621  0.3524  0.3840  0.3588
 1175TIP3    H2 3483   1.607   1.964   2.766  1.1712 -1.2935  0.7650
 1176TIP3   OH2 3484   8.013   0.214   5.452  0.2667  0.8129  0.2009
 1176TIP3    H1 3485   8.023   0.119   5.450  1.5877  0.8478  2.3164
 1176TIP3    H2 3486   8.089   0.247   5.404  1.0590  0.7905  1.3868
 1177TIP3   OH2 3487   2.788   2.815   1.271  0.0655  0.0010  0.0400
 1177TIP3    H1 3488   2.785   2.906   1.244 -1.8661 -0.2209 -0.6863
 1177TIP3    H2 3489   2.879   2.789   1.259  0.2348  1.2481 -1.8211
 1178TIP3   OH2 3490   6.566   4.476   6.446  0.0763 -0.4583  0.0299
 1178TIP3    H1 3491   6.652   4.437   6.428  0.4103 -0.1895  0.9679
 1178TIP3    H2 3492   6.509   4.400   6.463 -0.3022 -0.7327 -2.2011
 1179TIP3   OH2 3493   8.024   4.878   1.677  0.9008 -0.0565  0.6270
 1179TIP3    H1 3494   8.111   4.911   1.697  1.2987 -0.6548 -0.0369
 1179TIP3    H2 3495   8.007   4.909   1.588  0.7637 -0.5848  0.4642
 1180TIP3   OH2 3496   3.964   1.845   5.997 -0.0258  0.1684  0.0500
 1180TIP3    H1 3497   4.054   1.823   5.972  0.3729  1.7406 -0.0225
 1180TIP3    H2 3498   3.913   1.831   5.917  0.2235 -0.3275 -0.0266
 1181TIP3   OH2 3499   7.029   6.521   6.301 -0.1667  0.2318 -0.2053
 1181TIP3    H1 3500   7.028   6.606   6.256 -1.9351  0.1588 -0.3876
 1181TIP3    H2 3501   7.054   6.543   6.391  0.3057  0.8171 -0.4686
 1182TIP3   OH2 3502   5.224   0.137   4.198 -0.1764 -0.6115 -0.0209
 1182TIP3    H1 3503   5.139   0.144   4.243  0.2357  0.9292  0.5897
 1182TIP3    H2 3504   5.289   0.151   4.267  0.5898 -1.4481 -0.5407
 1183TIP3   OH2 3505   1.396   4.032   0.423  0.3552  0.3147 -0.3000
 1183TIP3    H1 3506   1.362   3.956   0.470  2.0323 -0.1514  0.2283
 1183TIP3    H2 3507   1.397   4.005   0.331  0.1379  0.0276 -0.2191
 1184TIP3   OH2 3508   2.072   1.136   5.629 -0.0677 -0.0509  0.1785
 1184TIP3    H1 3509   1.995   1.165   5.679 -0.6462  0.7140 -1.0890
 1184TIP3    H2 3510   2.041   1.061   5.579  0.0588  0.1150 -0.1556
 1185TIP3   OH2 3511   0.226   2.441   2.178 -0.0264  0.2278 -0.1060
 1185TIP3    H1 3512   0.287   2.369   2.161  0.3898  0.6255 -0.3271
 1185TIP3    H2 3513   0.200   2.430   2.269  0.5607  0.1801  0.0607
 1186TIP3   OH2 3514   4.904   0.124   3.197  0.0646 -0.2020 -0.1704
 1186TIP3    H1 3515   4.828   0.179   3.180  0.7426  0.0640 -2.8096
 1186TIP3    H2 3516   4.889   0.046   3.144  1.8872  0.1558 -1.3093
 1187TIP3   OH2 3517   2.268   2.677   3.017  0.5231 -0.2077  0.5972
 1187TIP3    H1 3518   2.233   2.641   3.099  0.3276  1.6278  1.3684
 1187TIP3    H2 3519   2.355   2.709   3.040  1.4339 -1.7254 -0.5146
 1188TIP3   OH2 3520   2.148   3.152   2.947 -0.4624  0.1773  0.7411
 1188TIP3    H1 3521   2.155   3.116   3.036  1.6809  0.1577  0.6205
 1188TIP3    H2 3522   2.132   3.245   2.960 -0.7328  0.0807  1.1352
 1189TIP3   OH2 3523   4.934   0.535   6.511  0.2566 -0.3552  0.2945
 1189TIP3    H1 3524   5.001   0.603   6.517 -0.6328  0.6420 -0.6429
 1189TIP3    H2 3525   4.973   0.459   6.554  1.5524  0.5276  0.7356
 1190TIP3   OH2 3526   0.149   2.340   5.875  0.0176 -0.2948 -0.0463
 1190TIP3    H1 3527   0.156   2.433   5.852 -1.1446 -0.0351  0.5539
 1190TIP3    H2 3528   0.219   2.326   5.939 -0.8515  0.6284  1.1701
 1191TIP3   OH2 3529   0.858   2.018   0.236  0.3768 -0.0277  0.4881
 1191TIP3    H1 3530   0.917   2.062   0.297  3.1280 -2.0480 -0.5503
 1191TIP3    H2 3531   0.860   2.073   0.158 -1.4227  1.3688  1.3274
 1192TIP3   OH2 3532   2.541   5.318   1.461  0.1753 -0.2886 -0.2596
 1192TIP3    H1 3533   2.631   5.339   1.485  0.4927 -1.8343 -0.0061
 1192TIP3    H2 3534   2.517   5.246   1.518 -1.8129  1.1198  0.8015
 1193TIP3   OH2 3535   8.122   4.273   5.297  0.3685 -0.2015  0.4613
 1193TIP3    H1 3536   8.078   4.356   5.315  1.1534  0.1136  0.9412
 1193TIP3    H2 3537   8.097   4.252   5.207  0.4391  0.7285  0.2167
 1194TIP3   OH2 3538   3.020   2.962   6.535  0.1911  0.2307 -0.3445
 1194TIP3    H1 3539   3.111   2.991   6.544  0.7607 -0.9173 -1.9660
 1194TIP3    H2 3540   3.017   2.879   6.583 -0.6726  1.3791  1.7419
 1195TIP3   OH2 3541   6.363   7.377   4.447  0.2045 -0.2629  0.0953
 1195TIP3    H1 3542   6.314   7.384   4.528 -0.7070 -0.6212 -0.4023
 1195TIP3    H2 3543   6.402   7.289   4.450 -0.6647 -0.6784 -0.2855
 1196TIP3   OH2 3544   4.071   1.054   0.604 -0.4105  0.1702  0.3575
 1196TIP3    H1 3545   4.066   0.964   0.572  1.8077 -0.7676  2.3529
 1196TIP3    H2 3546   4.154   1.059   0.651 -0.7123  3.1225  0.8048
 1197TIP3   OH2 3547   3.266   7.712   3.371  0.2863 -0.1989  0.4022
 1197TIP3    H1 3548   3.195   7.660   3.409 -0.2681 -1.8630 -2.6086
 1197TIP3    H2 3549   3.311   7.651   3.312  4.0590  0.8770  1.8583
 1198TIP3   OH2 3550   2.335   2.643   4.069 -0.4367 -0.4995  0.0753
 1198TIP3    H1 3551   2.257   2.600   4.036 -1.5082 -0.1126  2.0124
 1198TIP3    H2 3552   2.403   2.575   4.068 -1.4773 -1.5808  0.8557
 1199TIP3   OH2 3553   1.346   7.127   2.615  0.3635  0.4015 -0.0204
 1199TIP3    H1 3554   1.324   7.114   2.523 -0.3672  0.5655  0.1252
 1199TIP3    H2 3555   1.273   7.177   2.651  0.1517 -0.5067  0.8805
 1200TIP3   OH2 3556   0.946   3.990   6.735 -0.0848 -0.2936 -0.5996
 1200TIP3    H1 3557   0.870   3.933   6.730 -0.1764 -0.1865 -0.4048
 1200TIP3    H2 3558   0.976   3.983   6.825 -1.7218  2.0681  0.2337
 1201TIP3   OH2 3559   8.105   5.500   1.157  0.1523  0.2152  0.6257
 1201TIP3    H1 3560   8.140   5.586   1.180 -0.6881  0.7017  0.1480
 1201TIP3    H2 3561   8.163   5.469   1.087  1.9300 -0.7051  2.4403
 1202TIP3   OH2 3562   3.408   3.010   6.120 -0.0909  0.6511 -0.7111
 1202TIP3    H1 3563   3.375   3.021   6.209  2.2196  2.2033  0.0634
 1202TIP3    H2 3564   3.350   3.063   6.066  0.1205  1.9876  0.3277
 1203TIP3   OH2 3565   0.379   3.517   5.201 -0.0031  0.2722  0.3828
 1203TIP3    H1 3566   0.362   3.608   5.222 -1.7532  0.5858 -2.0347
 1203TIP3    H2 3567   0.340   3.468   5.274 -0.1970  1.4078  1.0650
 1204TIP3   OH2 3568   2.987   3.856   0.815 -0.1597 -0.3365 -0.2693
 1204TIP3    H1 3569   3.054   3.915   0.781  1.0934 -1.6543 -0.1863
 1204TIP3    H2 3570   2.908   3.909   0.820  0.9683  1.3774  0.0184
 1205TIP3   OH2 3571   3.612   3.292   4.470 -0.5023  0.4891  0.2797
 1205TIP3    H1 3572   3.573   3.218   4.424 -0.1676 -0.0026  0.7695
 1205TIP3    H2 3573   3.641   3.351   4.400  1.1060 -0.8019 -0.2329
 1206TIP3   OH2 3574   4.355   2.234   3.597  0.5100  0.2850 -0.0498
 1206TIP3    H1 3575   4.334   2.144   3.571  0.6245  0.7025 -1.7409
 1206TIP3    H2 3576   4.280   2.262   3.648 -1.0076  0.2082 -2.0915
 1207TIP3   OH2 3577   6.079   0.760   0.646  0.0550  0.3260  0.9067
 1207TIP3    H1 3578   6.082   0.664   0.648 -0.9042  0.1939 -1.5548
 1207TIP3    H2 3579   6.024   0.783   0.720 -3.6738 -1.3599 -1.0946
 1208TIP3   OH2 3580   5.792   0.107   0.357  0.5321  0.0200 -0.0445
 1208TIP3    H1 3581   5.758   0.138   0.274 -0.3812  0.3522  0.4438
 1208TIP3    H2 3582   5.837   0.025   0.335  0.7297  0.3558 -0.9344
 1209TIP3   OH2 3583   6.137   1.394   6.768  0.0246 -0.5536 -0.2425
 1209TIP3    H1 3584   6.216   1.445   6.751 -0.7645 -0.1255 -2.9944
 1209TIP3    H2 3585   6.169   1.306   6.789  1.2575 -0.1265 -0.2647
 1210TIP3   OH2 3586   3.909   3.163   0.353  0.3657 -0.1630  0.0735
 1210TIP3    H1 3587   3.818   3.181   0.374  0.0968 -0.4325 -0.7968
 1210TIP3    H2 3588   3.959   3.204   0.423 -0.3618  1.2061 -0.1738
 1211TIP3   OH2 3589   6.015   5.347   1.590  0.6102 -0.1822  0.0402
 1211TIP3    H1 3590   6.035   5.435   1.623  2.5196  0.1975 -1.8917
 1211TIP3    H2 3591   5.920   5.344   1.585  0.4731  1.4198  1.0198
 1212TIP3   OH2 3592   6.539   6.322   2.941 -0.0179  0.4682 -0.3351
 1212TIP3    H1 3593   6.478   6.332   2.868  0.5397 -0.8055 -1.0222
 1212TIP3    H2 3594   6.624   6.342   2.904  0.5452 -2.0599 -0.6402
 1213TIP3   OH2 3595   2.894   6.222   0.205 -0.2322 -0.1081  0.2377
 1213TIP3    H1 3596   2.968   6.277   0.231 -0.0740  0.3429 -1.0768
 1213TIP3    H2 3597   2.878   6.245   0.114 -0.6838 -1.6815 -0.1126
 1214TIP3   OH2 3598   3.985   4.860   0.359  0.3291 -0.4122 -0.4908
 1214TIP3    H1 3599   4.037   4.788   0.394  1.2061  1.2121  1.7673
 1214TIP3    H2 3600   3.894   4.832   0.372  0.6550 -0.9054  0.8223
 1215TIP3   OH2 3601   3.305   3.943   5.973 -0.4288  0.3802  0.1839
 1215TIP3    H1 3602   3.245   3.915   5.904 -1.1033  0.2044  0.8353
 1215TIP3    H2 3603   3.262   4.018   6.014  0.2712  0.8957 -0.0050
 1216TIP3   OH2 3604   4.900   6.107   3.304 -0.1530  0.3362 -0.1847
 1216TIP3    H1 3605   4.922   6.172   3.238  1.1886  0.4661  0.3472
 1216TIP3    H2 3606   4.846   6.154   3.367  0.7810  0.9565  0.1787
 1217TIP3   OH2 3607   4.437   3.267   2.151  0.8470  0.3930 -0.5218
 1217TIP3    H1 3608   4.359   3.317   2.129  1.2669  0.5290 -1.7714
 1217TIP3    H2 3609   4.463   3.299   2.237  0.8570  2.0252 -1.1032
 1218TIP3   OH2 3610   7.059   1.160   2.708 -0.1621 -0.1007  0.4539
 1218TIP3    H1 3611   7.150   1.170   2.682  0.3942 -2.7016  1.0901
 1218TIP3    H2 3612   7.018   1.243   2.685  1.7735  0.2502 -2.1989
 1219TIP3   OH2 3613   8.133   6.157   5.308 -0.1158  0.2450  0.2032
 1219TIP3    H1 3614   8.118   6.065   5.285 -0.4894 -0.4535  2.8808
 1219TIP3    H2 3615   8.047   6.190   5.333  0.0066  1.3829 -0.8014
 1220TIP3   OH2 3616   0.082   3.179   2.283 -0.2503 -0.0117  0.0104
 1220TIP3    H1 3617   0.079   3.140   2.196  1.1473 -1.0856  0.3984
 1220TIP3    H2 3618   0.168   3.154   2.317  1.8273  5.1968 -0.4870
 1221TIP3   OH2 3619   3.165   4.515   1.546  0.5512 -0.0700 -0.1357
 1221TIP3    H1 3620   3.122   4.571   1.610  1.0662  1.3145 -0.9482
 1221TIP3    H2 3621   3.134   4.427   1.566 -2.9139  0.8298 -0.8848
 1222TIP3   OH2 3622   0.850   4.670   6.403 -0.5747 -0.3766  0.8918
 1222TIP3    H1 3623   0.859   4.723   6.325  3.2118  1.6119  2.3873
 1222TIP3    H2 3624   0.883   4.583   6.377 -0.7723 -0.1747 -0.0515
 1223TIP3   OH2 3625   7.427   5.527   0.556 -0.5350 -0.2929  0.3263
 1223TIP3    H1 3626   7.366   5.544   0.485 -0.5264 -0.0153  0.3842
 1223TIP3    H2 3627   7.509   5.566   0.527  0.0223 -1.8931 -0.3816
 1224TIP3   OH2 3628   5.233   0.058   1.994  0.3343  0.6572 -0.1445
 1224TIP3    H1 3629   5.229   0.151   1.976  0.5912  0.8094  0.5521
 1224TIP3    H2 3630   5.324   0.033   1.974 -0.0730  0.2525 -1.6759
 1225TIP3   OH2 3631   4.561   1.076   2.419 -0.2215  0.0316  0.2523
 1225TIP3    H1 3632   4.622   1.067   2.347  0.0070  2.9108 -0.0397
 1225TIP3    H2 3633   4.612   1.118   2.489 -0.5160 -2.3938  2.0566
 1226TIP3   OH2 3634   0.847   3.395   2.228  0.5956 -0.3260 -0.2618
 1226TIP3    H1 3635   0.911   3.370   2.295  1.4201 -1.6603 -1.4754
 1226TIP3    H2 3636   0.858   3.489   2.218  1.1011 -0.2529  0.8175
 1227TIP3   OH2 3637   2.398   3.368   3.183 -0.1099 -0.4103  0.5289
 1227TIP3    H1 3638   2.443   3.411   3.255  1.8427 -0.2823 -0.7148
 1227TIP3    H2 3639   2.448   3.391   3.105 -2.4833 -0.0622 -1.0001
 1228TIP3   OH2 3640   5.321   7.471   0.398  0.4287  0.2740  0.4151
 1228TIP3    H1 3641   5.371   7.534   0.448  1.8001  0.0706 -0.6148
 1228TIP3    H2 3642   5.383   7.439   0.332 -0.3632 -1.7494  0.5756
 1229TIP3   OH2 3643   0.277   0.595   4.132  0.5197  0.1998 -0.1253
 1229TIP3    H1 3644   0.274   0.513   4.083  2.6044  0.3730 -0.6315
 1229TIP3    H2 3645   0.226   0.656   4.078 -1.7839 -0.8958  0.6785
 1230TIP3   OH2 3646   5.182   7.316   4.623 -0.4891  0.1357 -0.0961
 1230TIP3    H1 3647   5.165   7.266   4.702  0.2062  0.8730  0.5475
 1230TIP3    H2 3648   5.140   7.267   4.553 -1.2482 -0.4474  0.7539
 1231TIP3   OH2 3649   1.695   7.798   4.098 -0.3200  0.1832  0.1911
 1231TIP3    H1 3650   1.702   7.704   4.115 -0.9779 -0.1845 -1.3713
 1231TIP3    H2 3651   1.619   7.826   4.149 -2.9484 -1.1154 -2.6774
 1232TIP3   OH2 3652   3.466   4.368   0.397  0.2151  0.2034  0.0006
 1232TIP3    H1 3653   3.515   4.364   0.479 -1.2115 -1.7531  0.8513
 1232TIP3    H2 3654   3.465   4.277   0.366 -2.3995  0.2307 -0.1981
 1233TIP3   OH2 3655   5.264   3.873   5.408  0.2806 -0.4363 -0.1583
 1233TIP3    H1 3656   5.193   3.809   5.411 -0.0191 -0.0823  1.5399
 1233TIP3    H2 3657   5.275   3.894   5.315 -0.1231 -2.3679 -0.6756
 1234TIP3   OH2 3658   0.499   2.059   4.218  0.2674  0.7052  0.5299
 1234TIP3    H1 3659   0.507   2.134   4.159 -1.3886  0.5672  0.0826
 1234TIP3    H2 3660   0.474   1.986   4.161  3.7870 -0.7466  0.6353
 1235TIP3   OH2 3661   7.559   6.717   0.314 -0.0996  0.4112  0.0709
 1235TIP3    H1 3662   7.517   6.632   0.301 -2.7631  1.2544  2.1522
 1235TIP3    H2 3663   7.496   6.780   0.278 -0.0574  1.6889  2.0907
 1236TIP3   OH2 3664   7.744   6.941   5.759  0.2887  0.2279  0.1953
 1236TIP3    H1 3665   7.791   7.017   5.793  0.1016  0.3638  0.1520
 1236TIP3    H2 3666   7.652   6.967   5.762  0.3171  0.6708 -1.4248
 1237TIP3   OH2 3667   5.051   7.284   1.263  0.0444  0.6214 -0.0864
 1237TIP3    H1 3668   5.060   7.199   1.219 -2.3371  0.1478  0.1760
 1237TIP3    H2 3669   5.136   7.299   1.303  0.2730 -2.1612  0.7161
 1238TIP3   OH2 3670   6.284   3.151   4.842  0.6208 -0.3800 -0.3118
 1238TIP3    H1 3671   6.289   3.240   4.808  1.0712 -0.2937 -0.0344
 1238TIP3    H2 3672   6.338   3.153   4.921 -0.2398 -0.6237  0.3005
 1239TIP3   OH2 3673   0.507   3.199   6.505 -0.1793  1.1145  0.0273
 1239TIP3    H1 3674   0.596   3.169   6.486 -0.0834  2.0982 -1.2154
 1239TIP3    H2 3675   0.473   3.136   6.568  1.0127  0.0868 -0.3249
 1240TIP3   OH2 3676   6.606   5.019   3.365  0.8571  0.4190  0.5228
 1240TIP3    H1 3677   6.609   4.932   3.326  1.9330 -0.0299  1.5539
 1240TIP3    H2 3678   6.521   5.055   3.338 -0.5273 -1.7436  1.7516
 1241TIP3   OH2 3679   6.546   0.222   0.251  0.0655  0.5933  0.2665
 1241TIP3    H1 3680   6.508   0.141   0.287  1.0871  0.4662  1.0958
 1241TIP3    H2 3681   6.525   0.289   0.316  0.7674  0.6308  0.4590
 1242TIP3   OH2 3682   4.787   2.118   2.818  0.1208 -0.0629  0.0402
 1242TIP3    H1 3683   4.716   2.180   2.832 -0.3275 -0.7563  0.9501
 1242TIP3    H2 3684   4.751   2.033   2.844  0.6545 -0.7516 -1.3321
 1243TIP3   OH2 3685   3.344   0.443   0.832 -0.4454  0.1786 -0.5289
 1243TIP3    H1 3686   3.415   0.417   0.890 -1.7117 -0.6016  0.7246
 1243TIP3    H2 3687   3.389   0.478   0.754  1.3466  2.5946  1.4040
 1244TIP3   OH2 3688   7.729   3.962   0.014 -0.0695 -0.4059 -0.7431
 1244TIP3    H1 3689   7.645   3.926   0.043  0.8151 -1.4279  0.6908
 1244TIP3    H2 3690   7.766   3.895  -0.043  0.1049 -0.3092 -0.7444
 1245TIP3   OH2 3691   2.572   1.411   5.598 -0.2716  0.1194 -0.1410
 1245TIP3    H1 3692   2.477   1.403   5.607 -0.5181  2.5519  0.3031
 1245TIP3    H2 3693   2.592   1.367   5.515 -1.9578  0.4961 -0.8058
 1246TIP3   OH2 3694   2.115   6.180   4.627  0.3759  0.3979  0.2917
 1246TIP3    H1 3695   2.179   6.242   4.662 -0.4681  0.1075  2.5252
 1246TIP3    H2 3696   2.091   6.126   4.702 -0.5506 -1.2227 -1.0961
 1247TIP3   OH2 3697   7.568   0.535   3.493  0.4200 -0.3657  0.5904
 1247TIP3    H1 3698   7.555   0.474   3.567 -0.9012 -0.9128 -0.0560
 1247TIP3    H2 3699   7.506   0.606   3.510  0.9824  0.1190  0.6275
 1248TIP3   OH2 3700   0.653   4.779   4.288  0.0473  0.1311  0.1213
 1248TIP3    H1 3701   0.707   4.719   4.237 -1.5690 -0.1275 -1.3597
 1248TIP3    H2 3702   0.631   4.850   4.227 -1.8907 -0.1582  0.4110
 1249TIP3   OH2 3703   5.341   1.424   3.868 -0.0663 -0.1943 -1.1055
 1249TIP3    H1 3704   5.375   1.351   3.921 -0.3287  0.3857 -0.1179
 1249TIP3    H2 3705   5.404   1.495   3.882 -1.3082  0.6952  0.2576
 1250TIP3   OH2 3706   7.422   2.030   3.960  0.5154 -0.3337 -0.2909
 1250TIP3    H1 3707   7.463   2.117   3.966  0.0263 -0.0485 -0.9384
 1250TIP3    H2 3708   7.473   1.985   3.893 -0.8417  0.3998 -1.8923
 1251TIP3   OH2 3709   6.272   5.858   4.669  0.1107  0.0189 -0.4872
 1251TIP3    H1 3710   6.301   5.767   4.671 -0.0054 -0.0199 -0.5523
 1251TIP3    H2 3711   6.353   5.909   4.668  0.1819 -0.1007 -1.2608
 1252TIP3   OH2 3712   4.183   3.082   6.197 -0.3992  0.6644 -0.0816
 1252TIP3    H1 3713   4.125   3.145   6.153 -0.6557 -1.4893 -3.1774
 1252TIP3    H2 3714   4.157   2.997   6.161  1.6985 -0.9338  1.8939
 1253TIP3   OH2 3715   0.043   3.882   2.113 -0.4331 -0.2345 -0.2558
 1253TIP3    H1 3716   0.085   3.831   2.182  0.3991  0.9318  0.1327
 1253TIP3    H2 3717   0.106   3.882   2.041 -0.8390 -0.5556 -0.6114
 1254TIP3   OH2 3718   3.578   7.305   1.830 -0.0540 -0.0372 -0.1265
 1254TIP3    H1 3719   3.553   7.261   1.911  0.9477  1.0248  0.8066
 1254TIP3    H2 3720   3.503   7.361   1.809 -0.9686 -1.4502 -0.8414
 1255TIP3   OH2 3721   3.618   2.917   6.279 -0.6609 -0.4846 -0.0253
 1255TIP3    H1 3722   3.698   2.963   6.253 -0.2239 -2.0866 -1.7783
 1255TIP3    H2 3723   3.550   2.953   6.221 -1.1994  0.7264  1.3192
 1256TIP3   OH2 3724   1.664   1.675   3.615  0.5194 -0.0769  0.1655
 1256TIP3    H1 3725   1.601   1.693   3.684 -0.1599 -2.4056  0.2469
 1256TIP3    H2 3726   1.613   1.629   3.547  2.0762 -2.2422  0.3433
 1257TIP3   OH2 3727   1.787   7.756   0.113  0.0341 -0.4027  0.2790
 1257TIP3    H1 3728   1.711   7.744   0.170 -0.5396  0.8343 -0.2041
 1257TIP3    H2 3729   1.750   7.780   0.028  0.9724  0.3255  0.0675
 1258TIP3   OH2 3730   6.274   5.358   4.506 -0.4389  0.1898  0.3276
 1258TIP3    H1 3731   6.256   5.283   4.448  1.7397  0.0638 -0.3022
 1258TIP3    H2 3732   6.326   5.321   4.577 -2.3582  0.5157  1.9810
 1259TIP3   OH2 3733   3.956   0.386   5.554  0.1705  0.3547 -0.2625
 1259TIP3    H1 3734   3.919   0.357   5.637 -2.0534 -0.6145 -1.5033
 1259TIP3    H2 3735   3.993   0.472   5.573 -2.1882  1.1278  1.2977
 1260TIP3   OH2 3736   7.279   7.639   6.198  0.0808 -0.2976 -0.1782
 1260TIP3    H1 3737   7.316   7.556   6.166 -0.8852 -0.9258  0.3158
 1260TIP3    H2 3738   7.189   7.618   6.222 -0.1877  0.9096 -0.0694
 1261TIP3   OH2 3739   3.102   6.189   1.658  0.2691  0.2238 -0.1517
 1261TIP3    H1 3740   3.050   6.173   1.579 -0.8702  1.8451  0.2200
 1261TIP3    H2 3741   3.048   6.248   1.711  1.1749 -0.5007  1.6785
 1262TIP3   OH2 3742   3.188   7.780   6.449  0.2410  0.0723 -0.3974
 1262TIP3    H1 3743   3.258   7.782   6.514 -0.7464 -0.2128  0.7172
 1262TIP3    H2 3744   3.227   7.817   6.370  1.6524 -0.1311  0.1734
 1263TIP3   OH2 3745   6.690   2.759   1.021 -0.3880  0.4374 -0.1773
 1263TIP3    H1 3746   6.692   2.844   0.978  0.2872  0.3915 -0.2520
 1263TIP3    H2 3747   6.646   2.775   1.105  0.8113  1.1264  0.3527
 1264TIP3   OH2 3748   2.573   3.304   0.673 -0.7024 -0.3328  0.1523
 1264TIP3    H1 3749   2.556   3.210   0.675 -0.6282 -0.3322  1.4895
 1264TIP3    H2 3750   2.494   3.343   0.711 -0.8646  0.1790 -0.6823
 1265TIP3   OH2 3751   7.691   5.800   4.301  0.6775  0.1574  0.3046
 1265TIP3    H1 3752   7.712   5.858   4.374  1.5305 -1.0111  1.0361
 1265TIP3    H2 3753   7.596   5.805   4.293  0.6483  0.9381  0.9574
 1266TIP3   OH2 3754   0.600   0.112   4.828  0.4028  0.2402  0.0959
 1266TIP3    H1 3755   0.693   0.125   4.809  0.1715  1.5669 -0.2596
 1266TIP3    H2 3756   0.555   0.154   4.755 -0.4748  0.4120  0.7237
 1267TIP3   OH2 3757   6.166   1.157   5.921 -0.4031  0.3427 -0.9044
 1267TIP3    H1 3758   6.100   1.213   5.881 -0.2932 -0.3289 -2.0691
 1267TIP3    H2 3759   6.249   1.196   5.897 -0.3583  0.6927 -0.1851
 1268TIP3   OH2 3760   2.808   1.968   2.132 -0.5165 -0.1885 -0.3999
 1268TIP3    H1 3761   2.732   1.986   2.076 -2.1978 -2.1316  1.0925
 1268TIP3    H2 3762   2.828   1.875   2.116 -0.6984 -0.6499  1.7268
 1269TIP3   OH2 3763   5.104   0.588   2.558  0.1028  0.3315  0.3557
 1269TIP3    H1 3764   5.185   0.538   2.564  1.2677  1.8910 -1.5435
 1269TIP3    H2 3765   5.127   0.676   2.585 -0.8121  0.9510 -0.8108
 1270TIP3   OH2 3766   3.692   1.216   1.764  0.2464  0.0912 -0.2879
 1270TIP3    H1 3767   3.654   1.131   1.789  0.8878  0.1757  1.0417
 1270TIP3    H2 3768   3.760   1.193   1.700  0.9972 -0.5215  0.6831
 1271TIP3   OH2 3769   1.326   0.932   1.350  0.3023 -0.8558  0.2278
 1271TIP3    H1 3770   1.401   0.906   1.403  1.4097 -1.6093 -1.6008
 1271TIP3    H2 3771   1.325   1.028   1.355  0.2859 -0.9021  1.6428
 1272TIP3   OH2 3772   1.325   6.125   0.409  0.2498 -0.5904 -0.3452
 1272TIP3    H1 3773   1.370   6.132   0.324  0.5066 -2.6734 -0.4210
 1272TIP3    H2 3774   1.387   6.162   0.472  0.3149  0.3890 -0.9491
 1273TIP3   OH2 3775   2.583   2.337   1.684  0.1197 -0.5918  0.5079
 1273TIP3    H1 3776   2.617   2.376   1.603  0.5822 -1.3760  0.3102
 1273TIP3    H2 3777   2.579   2.243   1.665 -0.5114 -0.6968  1.1353
 1274TIP3   OH2 3778   1.626   3.361   2.665  0.0313 -0.2317  0.1112
 1274TIP3    H1 3779   1.655   3.368   2.575 -0.4281  0.9449  0.0396
 1274TIP3    H2 3780   1.646   3.271   2.690  0.9961 -0.3026 -0.8643
 1275TIP3   OH2 3781   5.936   2.760   4.751  0.3384  0.3254 -0.2926
 1275TIP3    H1 3782   5.852   2.806   4.757  0.1815  0.1278 -0.9007
 1275TIP3    H2 3783   5.999   2.819   4.791 -0.2515  0.0447  1.1313
 1276TIP3   OH2 3784   4.122   4.739   4.388 -0.6966  0.4168 -0.3335
 1276TIP3    H1 3785   4.039   4.774   4.420  0.1423  0.3194  2.2158
 1276TIP3    H2 3786   4.119   4.646   4.410  0.0683  0.4090 -0.2296
 1277TIP3   OH2 3787   3.825   0.070   6.177  0.2408  0.0484 -0.1097
 1277TIP3    H1 3788   3.737   0.040   6.153  0.3616  0.5806 -1.2728
 1277TIP3    H2 3789   3.841   0.031   6.263 -0.9027 -0.5198 -0.1371
 1278TIP3   OH2 3790   0.382   5.728   3.103  0.5172  0.3702  0.0440
 1278TIP3    H1 3791   0.360   5.724   3.010  1.3645 -0.7183 -0.1274
 1278TIP3    H2 3792   0.394   5.636   3.128  2.6928  0.7638  0.6352
 1279TIP3   OH2 3793   5.416   0.739   0.132  0.2491  0.4527 -0.1108
 1279TIP3    H1 3794   5.424   0.721   0.225  0.4264 -2.5195 -0.5822
 1279TIP3    H2 3795   5.465   0.820   0.118  2.2028 -0.2537  2.0295
 1280TIP3   OH2 3796   1.163   6.661   5.505  0.1045 -0.4406  0.1806
 1280TIP3    H1 3797   1.143   6.697   5.592  2.1786 -1.2265  1.0582
 1280TIP3    H2 3798   1.163   6.566   5.518 -2.0233 -0.7318 -1.3308
 1281TIP3   OH2 3799   1.947   0.383   4.075 -0.3257 -0.5927  0.3967
 1281TIP3    H1 3800   1.909   0.365   4.161  0.5029 -0.8099  0.7333
 1281TIP3    H2 3801   1.981   0.298   4.046  0.7305 -0.2364  0.5358
 1282TIP3   OH2 3802   3.969   1.988   2.068 -0.3788  0.6797 -0.0427
 1282TIP3    H1 3803   4.058   1.976   2.101 -0.1664  0.1197 -0.8035
 1282TIP3    H2 3804   3.914   1.980   2.146  0.2485  1.4449  0.5039
 1283TIP3   OH2 3805   0.263   5.180   2.052 -0.2622  0.1380  0.3072
 1283TIP3    H1 3806   0.357   5.179   2.036 -0.5335  0.8655 -1.5547
 1283TIP3    H2 3807   0.253   5.221   2.138  1.0833  0.6337  0.2437
 1284TIP3   OH2 3808   0.575   4.887   2.172 -0.1818 -0.4841 -0.2132
 1284TIP3    H1 3809   0.572   4.792   2.181 -2.8385 -0.3659  1.2255
 1284TIP3    H2 3810   0.621   4.918   2.250 -2.0325 -0.5193  0.9464
 1285TIP3   OH2 3811   0.372   5.501   4.996  0.1373 -0.2963 -0.1125
 1285TIP3    H1 3812   0.314   5.548   5.056  0.8418 -0.5355  0.7644
 1285TIP3    H2 3813   0.340   5.410   4.998 -2.3949  0.3140 -3.1756
 1286TIP3   OH2 3814   6.182   0.117   5.558 -0.2525 -0.2018 -0.3328
 1286TIP3    H1 3815   6.259   0.077   5.598 -0.4938 -0.1104  0.2290
 1286TIP3    H2 3816   6.123   0.043   5.542  0.4900 -0.4749 -2.0486
 1287TIP3   OH2 3817   0.249   1.848   4.561 -0.8154 -0.0017  0.1600
 1287TIP3    H1 3818   0.161   1.885   4.566 -0.9863  0.3118 -3.1774
 1287TIP3    H2 3819   0.304   1.921   4.533  0.3587 -0.4714  1.1299
 1288TIP3   OH2 3820   6.006   3.117   6.601 -0.0317  0.2055  0.2069
 1288TIP3    H1 3821   5.958   3.187   6.645 -0.0919 -0.7276  1.7022
 1288TIP3    H2 3822   5.938   3.067   6.555  0.0347  1.2044 -1.0240
 1289TIP3   OH2 3823   3.947   4.160   6.667 -0.0212 -0.3871  0.0082
 1289TIP3    H1 3824   3.966   4.217   6.741  0.8962 -1.5904  0.7397
 1289TIP3    H2 3825   3.853   4.171   6.652 -0.3491 -0.5533  1.7376
 1290TIP3   OH2 3826   5.991   0.517   5.662 -0.2026 -0.2291 -0.0616
 1290TIP3    H1 3827   5.977   0.509   5.756 -0.2307  0.9886  0.0566
 1290TIP3    H2 3828   6.075   0.562   5.654 -0.3428 -0.0551 -0.6007
 1291TIP3   OH2 3829   6.066   3.273   3.255  0.2535 -0.0157  0.6793
 1291TIP3    H1 3830   6.092   3.257   3.164  0.8629 -0.1114  0.8641
 1291TIP3    H2 3831   6.076   3.367   3.267 -1.0329  0.1943  0.2919
 1292TIP3   OH2 3832   2.633   4.778   0.459  0.2060 -0.0673 -0.5999
 1292TIP3    H1 3833   2.540   4.799   0.451  0.4099  0.5132 -1.6655
 1292TIP3    H2 3834   2.675   4.863   0.475  0.6267 -0.2293 -0.8422
 1293TIP3   OH2 3835   2.228   6.023   5.107  0.1292 -0.1583  0.2296
 1293TIP3    H1 3836   2.321   6.015   5.129  0.7145 -0.3566 -2.0768
 1293TIP3    H2 3837   2.219   6.111   5.072 -0.0014 -0.9021 -1.7266
 1294TIP3   OH2 3838   4.000   1.436   4.438  0.1928 -0.0863  0.1303
 1294TIP3    H1 3839   4.092   1.459   4.453  0.3629 -0.8548  0.3039
 1294TIP3    H2 3840   3.979   1.476   4.354  0.5429  0.5028  0.3179
 1295TIP3   OH2 3841   7.884   6.661   5.866  0.0653  0.3303 -0.3688
 1295TIP3    H1 3842   7.854   6.751   5.875 -1.7821 -0.4044  1.5330
 1295TIP3    H2 3843   7.938   6.645   5.944  0.1833 -0.2616 -0.5619
 1296TIP3   OH2 3844   7.834   2.029   4.679  0.7216  0.0752  0.6978
 1296TIP3    H1 3845   7.816   2.038   4.585  2.1114  1.2939  0.5023
 1296TIP3    H2 3846   7.875   1.943   4.688 -1.4602 -1.0513  0.5849
 1297TIP3   OH2 3847   0.143   2.407   2.453 -0.3156 -0.2371 -0.3746
 1297TIP3    H1 3848   0.061   2.405   2.502  1.2474  0.7938  2.5594
 1297TIP3    H2 3849   0.190   2.328   2.481  0.7287  0.5102  0.0642
 1298TIP3   OH2 3850   0.597   7.028   0.759  0.2462  0.3752  0.2366
 1298TIP3    H1 3851   0.627   7.063   0.843  1.6808 -0.6321  0.1852
 1298TIP3    H2 3852   0.638   6.941   0.754  0.2016  0.4363 -1.5100
 1299TIP3   OH2 3853   1.067   7.390   0.053 -0.6493 -0.8403 -0.5906
 1299TIP3    H1 3854   1.105   7.478   0.040 -1.1066 -0.5910 -0.2540
 1299TIP3    H2 3855   0.988   7.390  -0.001 -1.2866 -0.6244  0.3193
 1300TIP3   OH2 3856   7.876   5.438   1.037  0.2962 -0.2710 -0.2352
 1300TIP3    H1 3857   7.811   5.505   1.058  0.9179  1.4571 -3.2636
 1300TIP3    H2 3858   7.958   5.473   1.073  0.2943 -0.3474 -0.1562
 1301TIP3   OH2 3859   4.656   1.203   2.642 -0.2283  0.5361  0.1140
 1301TIP3    H1 3860   4.751   1.202   2.640 -0.2203 -1.5596 -0.5234
 1301TIP3    H2 3861   4.634   1.250   2.723  1.2703  2.1605 -0.3596
 1302TIP3   OH2 3862   0.916   2.331   2.776 -0.0619  0.4006 -0.5348
 1302TIP3    H1 3863   0.884   2.267   2.839  1.7572  0.4172  0.4616
 1302TIP3    H2 3864   1.011   2.318   2.774  0.3854  3.0318 -0.2824
 1303TIP3   OH2 3865   1.274   5.508   6.048 -0.1000  0.7152  0.0438
 1303TIP3    H1 3866   1.200   5.463   6.008 -1.1491  2.0145  0.4752
 1303TIP3    H2 3867   1.236   5.561   6.117  1.2291  1.4618  0.2395
 1304TIP3   OH2 3868   2.535   6.091   1.843 -0.3669  0.2768  0.3085
 1304TIP3    H1 3869   2.445   6.064   1.830 -0.0609 -0.0126 -1.4326
 1304TIP3    H2 3870   2.532   6.187   1.839 -0.2849  0.2410 -2.5734
 1305TIP3   OH2 3871   6.420   4.272   2.732  0.7280 -0.2120  0.2109
 1305TIP3    H1 3872   6.459   4.250   2.817 -0.0095 -0.5193  0.4803
 1305TIP3    H2 3873   6.407   4.187   2.689  2.5640  0.0167 -0.8974
 1306TIP3   OH2 3874   6.977   0.556   1.813 -0.2148  0.3890  0.0851
 1306TIP3    H1 3875   6.918   0.631   1.817 -0.9967 -0.0637 -1.8887
 1306TIP3    H2 3876   6.921   0.481   1.835 -0.3056  0.0075 -1.3787
 1307TIP3   OH2 3877   0.338   6.338   0.915  0.6720 -1.0487 -0.1138
 1307TIP3    H1 3878   0.245   6.341   0.937  0.7833 -0.5638  0.3222
 1307TIP3    H2 3879   0.360   6.245   0.918  0.1413 -1.1909 -0.4894
 1308TIP3   OH2 3880   4.625   4.128   3.939 -0.2579  0.1989 -0.1673
 1308TIP3    H1 3881   4.581   4.050   3.972 -0.9577  1.1285  1.1777
 1308TIP3    H2 3882   4.717   4.116   3.962 -0.1915 -0.6400 -0.8190
 1309TIP3   OH2 3883   3.667   2.604   3.475 -0.1776  1.1417 -0.3697
 1309TIP3    H1 3884   3.740   2.657   3.445  2.0067 -1.0977  0.6673
 1309TIP3    H2 3885   3.654   2.539   3.405 -1.6402  1.8732 -0.8249
 1310TIP3   OH2 3886   2.559   0.911   3.399  0.1035  0.4001  0.7996
 1310TIP3    H1 3887   2.528   0.996   3.366 -1.3351  0.6419  2.6387
 1310TIP3    H2 3888   2.575   0.926   3.492  0.4892 -1.1959  1.0120
 1311TIP3   OH2 3889   6.645   0.609   1.732  0.1951 -0.5011 -0.7244
 1311TIP3    H1 3890   6.592   0.565   1.798 -0.7469  1.3191 -0.1934
 1311TIP3    H2 3891   6.608   0.582   1.648  0.9342 -2.2582 -0.5228
 1312TIP3   OH2 3892   1.175   1.647   0.166  0.3535 -0.3012  0.3541
 1312TIP3    H1 3893   1.102   1.591   0.192 -0.0654  0.1163  0.0796
 1312TIP3    H2 3894   1.144   1.736   0.181  0.2105 -0.0500 -1.2516
 1313TIP3   OH2 3895   0.002   0.364   1.578 -0.2513 -0.2840  0.0319
 1313TIP3    H1 3896  -0.028   0.421   1.507 -0.3525 -1.3354 -0.7997
 1313TIP3    H2 3897   0.097   0.362   1.568 -0.3227 -1.0844 -0.6152
 1314TIP3   OH2 3898   0.387   6.447   2.133 -0.4134  0.4314 -0.6077
 1314TIP3    H1 3899   0.393   6.387   2.207  0.4170  0.3631 -0.7256
 1314TIP3    H2 3900   0.352   6.394   2.062 -0.1810  0.2217 -0.5658
 1315TIP3   OH2 3901   5.479   3.289   0.858  0.0771  0.9278 -0.0658
 1315TIP3    H1 3902   5.516   3.293   0.770  0.9509  0.7151  0.2760
 1315TIP3    H2 3903   5.395   3.245   0.847  0.7586 -0.3085 -0.6439
 1316TIP3   OH2 3904   3.302   5.257   6.323 -0.0885 -0.6731  0.1409
 1316TIP3    H1 3905   3.212   5.237   6.348 -0.2522 -1.2328 -0.8264
 1316TIP3    H2 3906   3.293   5.324   6.255  0.3573  1.0946  1.7552
 1317TIP3   OH2 3907   0.213   5.840   1.954 -0.1987 -0.8702 -0.0528
 1317TIP3    H1 3908   0.169   5.819   1.871  0.5673  0.0334 -0.7155
 1317TIP3    H2 3909   0.302   5.864   1.928  0.2575 -1.2262  1.1138
 1318TIP3   OH2 3910   0.396   1.420   4.233  0.4392  0.1969 -0.2709
 1318TIP3    H1 3911   0.448   1.428   4.313 -0.7943  1.8910  0.4112
 1318TIP3    H2 3912   0.361   1.331   4.236  1.6750 -0.2955  0.2493
 1319TIP3   OH2 3913   3.165   0.155   6.519 -0.0025  0.3807 -0.4108
 1319TIP3    H1 3914   3.191   0.093   6.451  1.5601  0.5960 -0.0401
 1319TIP3    H2 3915   3.223   0.137   6.593 -0.7990  1.0250  0.3987
 1320TIP3   OH2 3916   8.134   1.958   4.335 -0.1421 -0.1619  0.0163
 1320TIP3    H1 3917   8.083   2.008   4.271 -2.0956  2.2703  3.1641
 1320TIP3    H2 3918   8.083   1.878   4.348 -0.4975 -0.0072 -0.3962
 1321TIP3   OH2 3919   7.275   1.136   0.301  0.2884  0.7755  0.3447
 1321TIP3    H1 3920   7.235   1.178   0.378  0.6390  1.2545  0.2669
 1321TIP3    H2 3921   7.201   1.120   0.242 -0.2720 -1.1788  1.4758
 1322TIP3   OH2 3922   6.527   0.738   2.994 -0.2977  0.0174 -0.1602
 1322TIP3    H1 3923   6.554   0.816   2.946 -1.6785  1.1300  0.7887
 1322TIP3    H2 3924   6.495   0.771   3.078  0.7206 -1.7397  0.9888
 1323TIP3   OH2 3925   0.203   3.197   6.045 -0.0743  0.3433 -0.2197
 1323TIP3    H1 3926   0.290   3.187   6.084 -0.4122  1.1033  0.7995
 1323TIP3    H2 3927   0.143   3.190   6.119 -0.7324  2.0761 -0.5271
 1324TIP3   OH2 3928   2.305   5.460   1.740  0.6021  0.5458 -0.6810
 1324TIP3    H1 3929   2.373   5.483   1.803 -0.5737  1.0265  0.4592
 1324TIP3    H2 3930   2.326   5.371   1.712  1.1273  0.3070  0.4384
 1325TIP3   OH2 3931   7.143   4.791   3.167 -0.0707  1.1976 -0.1190
 1325TIP3    H1 3932   7.206   4.778   3.096 -0.5126  0.7638 -0.4397
 1325TIP3    H2 3933   7.065   4.744   3.139  0.2237 -0.2459  1.3103
 1326TIP3   OH2 3934   2.955   1.379   6.400 -0.2279 -0.4031  0.2273
 1326TIP3    H1 3935   2.862   1.356   6.408 -1.0772  1.3245 -3.0829
 1326TIP3    H2 3936   2.993   1.309   6.348 -0.2514  0.0768 -0.4445
 1327TIP3   OH2 3937   4.279   0.483   5.414 -0.3411  0.0508 -0.3740
 1327TIP3    H1 3938   4.264   0.576   5.392  2.6073  0.7589  0.2020
 1327TIP3    H2 3939   4.291   0.483   5.509  3.5818 -0.1264 -0.7073
 1328TIP3   OH2 3940   4.235   6.494   5.415 -0.3977 -0.3955  0.3466
 1328TIP3    H1 3941   4.148   6.522   5.385  0.2894  1.7323  0.2260
 1328TIP3    H2 3942   4.235   6.513   5.509  0.6110  1.5637 -0.0099
 1329TIP3   OH2 3943   3.716   0.110   2.352 -0.2049  0.0307  0.5679
 1329TIP3    H1 3944   3.629   0.144   2.372 -0.1292  0.3447  0.3755
 1329TIP3    H2 3945   3.740   0.059   2.429 -0.3913  0.2714  0.7898
 1330TIP3   OH2 3946   1.096   7.186   2.257  0.2767  0.1390 -0.0275
 1330TIP3    H1 3947   1.095   7.136   2.338 -0.7122  0.5358  0.2203
 1330TIP3    H2 3948   1.109   7.121   2.188  2.2786 -0.0879  0.5018
 1331TIP3   OH2 3949   3.627   0.407   5.199 -0.0040 -0.0490 -0.4606
 1331TIP3    H1 3950   3.604   0.411   5.106 -1.4559 -0.7899 -0.1550
 1331TIP3    H2 3951   3.718   0.436   5.202 -0.1648  0.7236 -2.0200
 1332TIP3   OH2 3952   0.466   3.099   2.201 -0.5194  0.1702 -0.2356
 1332TIP3    H1 3953   0.535   3.160   2.174 -2.2795  2.7240  0.6353
 1332TIP3    H2 3954   0.463   3.106   2.296 -2.4271  0.7456 -0.2845
 1333TIP3   OH2 3955   4.975   0.396   5.057 -0.1323  0.2453  0.3376
 1333TIP3    H1 3956   4.980   0.377   5.151  0.1969  0.7866  0.4338
 1333TIP3    H2 3957   4.893   0.444   5.047  1.0241  2.4679  0.7830
 1334TIP3   OH2 3958   2.416   5.573   2.884  0.0568  0.3435 -0.4405
 1334TIP3    H1 3959   2.438   5.630   2.811 -0.0220  0.9978  0.0405
 1334TIP3    H2 3960   2.473   5.497   2.873  1.3685  1.2625 -0.1443
 1335TIP3   OH2 3961   0.581   3.453   6.580 -0.3550  0.7321 -0.0732
 1335TIP3    H1 3962   0.533   3.389   6.526 -0.7500  2.4997 -1.9323
 1335TIP3    H2 3963   0.665   3.410   6.598 -0.2606 -0.0128 -1.9942
 1336TIP3   OH2 3964   5.302   1.538   6.385 -0.0739  0.0146  0.6193
 1336TIP3    H1 3965   5.326   1.630   6.372 -3.9503  1.0245 -0.7165
 1336TIP3    H2 3966   5.220   1.541   6.434 -0.5554 -2.7306  0.1458
 1337TIP3   OH2 3967   1.989   6.108   3.678  0.3045 -0.7530  0.2604
 1337TIP3    H1 3968   2.047   6.137   3.747 -1.4933  1.2000  1.0781
 1337TIP3    H2 3969   1.905   6.092   3.722 -0.6056 -0.4571 -1.2725
 1338TIP3   OH2 3970   6.523   5.559   4.829  0.2888  0.1341 -0.2517
 1338TIP3    H1 3971   6.449   5.563   4.769 -1.3785  1.6406  1.7823
 1338TIP3    H2 3972   6.526   5.468   4.858 -0.3762 -0.0772 -0.8279
 1339TIP3   OH2 3973   5.963   1.687   6.689  0.4963  0.4069 -0.4537
 1339TIP3    H1 3974   5.983   1.600   6.655  1.9583 -0.0539  1.3975
 1339TIP3    H2 3975   6.034   1.743   6.655  1.2318  0.2101  0.6736
 1340TIP3   OH2 3976   5.917   7.016   3.456  0.6554 -0.2969  0.3738
 1340TIP3    H1 3977   5.930   7.048   3.366 -0.5496 -0.0684  0.2662
 1340TIP3    H2 3978   5.854   7.077   3.494 -0.4760 -1.6142  0.6818
 1341TIP3   OH2 3979   2.885   3.331   6.574  0.0188  0.2030  0.0402
 1341TIP3    H1 3980   2.891   3.338   6.669 -0.3180 -0.0846  0.0851
 1341TIP3    H2 3981   2.818   3.394   6.548 -1.1752 -0.9549  0.1850
 1342TIP3   OH2 3982   2.218   0.914   2.349 -0.1952  0.1389 -0.4601
 1342TIP3    H1 3983   2.134   0.870   2.361 -0.5053  1.0146  0.8061
 1342TIP3    H2 3984   2.245   0.939   2.437  0.5120  1.4725 -1.0247
 1343TIP3   OH2 3985   4.966   7.620   1.277  0.1831  0.0459  0.2698
 1343TIP3    H1 3986   5.041   7.602   1.334 -0.8375 -0.2492  1.5830
 1343TIP3    H2 3987   4.894   7.639   1.338 -1.2978 -1.5640 -0.8731
 1344TIP3   OH2 3988   4.240   6.510   5.898 -0.0563 -0.3829  0.3656
 1344TIP3    H1 3989   4.202   6.500   5.985 -0.9584 -0.3129  0.0024
 1344TIP3    H2 3990   4.334   6.517   5.912 -0.2499  0.2883  1.3817
 1345TIP3   OH2 3991   7.000   7.011   0.440  0.2906 -0.2881  0.1652
 1345TIP3    H1 3992   6.945   6.935   0.424 -0.6133  0.4342 -0.2421
 1345TIP3    H2 3993   7.084   6.974   0.469  0.5704 -1.5312 -1.9788
 1346TIP3   OH2 3994   5.832   0.484   2.889 -0.5493  0.1235 -0.1759
 1346TIP3    H1 3995   5.758   0.524   2.841  0.5588  1.2456 -1.0109
 1346TIP3    H2 3996   5.792   0.452   2.970 -2.3331 -1.0915 -1.4509
 1347TIP3   OH2 3997   5.942   4.917   4.212 -0.3739 -0.1785  0.2352
 1347TIP3    H1 3998   5.935   4.951   4.123  1.3209 -0.8508 -0.1811
 1347TIP3    H2 3999   5.887   4.838   4.212  0.5349 -0.8313 -0.5796
 1348TIP3   OH2 4000   1.170   3.370   6.753  0.4087  0.2326  0.0098
 1348TIP3    H1 4001   1.087   3.354   6.709 -0.5866  0.3540  1.7496
 1348TIP3    H2 4002   1.192   3.287   6.795  1.3494  0.1040 -0.7081
 1349TIP3   OH2 4003   2.517   6.617   5.759 -0.0497 -0.1272 -0.6473
 1349TIP3    H1 4004   2.512   6.614   5.663  0.7780  0.6299 -0.7315
 1349TIP3    H2 4005   2.543   6.707   5.779 -0.7813 -0.1165  0.3282
 1350TIP3   OH2 4006   6.751   1.970   4.180  0.2753 -0.5779 -0.0806
 1350TIP3    H1 4007   6.759   2.059   4.147 -3.3288 -0.5267 -1.1415
 1350TIP3    H2 4008   6.820   1.921   4.133 -0.5434  0.7919 -2.9097
 1351TIP3   OH2 4009   4.980   0.650   6.181 -0.4649 -0.2087 -0.3943
 1351TIP3    H1 4010   5.002   0.569   6.226  0.6904  0.8474  1.0278
 1351TIP3    H2 4011   4.988   0.629   6.088 -1.8981 -2.1550 -0.1500
 1352TIP3   OH2 4012   6.127   0.417   3.596  0.5716  0.0862 -0.0609
 1352TIP3    H1 4013   6.157   0.390   3.510 -0.9416  2.3549 -1.3947
 1352TIP3    H2 4014   6.191   0.483   3.624 -0.2535  1.1303 -0.5797
 1353TIP3   OH2 4015   0.138   7.677   4.625  0.5272 -0.0594 -0.1629
 1353TIP3    H1 4016   0.094   7.735   4.688  0.3507 -0.4185  0.0504
 1353TIP3    H2 4017   0.207   7.731   4.586 -0.3203  0.6130 -0.7527
 1354TIP3   OH2 4018   4.571   7.664   3.223  0.2207  0.1121 -0.2021
 1354TIP3    H1 4019   4.502   7.598   3.211 -1.3914  1.7398 -0.3673
 1354TIP3    H2 4020   4.603   7.681   3.135 -1.3765  1.5426 -0.5651
 1355TIP3   OH2 4021   5.421   5.132   1.646 -0.0896  0.5089 -0.2223
 1355TIP3    H1 4022   5.406   5.221   1.614  0.3394  0.1085 -1.6234
 1355TIP3    H2 4023   5.510   5.112   1.619  0.0459 -0.1120  0.6711
 1356TIP3   OH2 4024   2.390   6.189   2.122 -0.1031  0.1364 -0.2438
 1356TIP3    H1 4025   2.425   6.278   2.127 -0.1657  0.2167 -1.2187
 1356TIP3    H2 4026   2.353   6.182   2.035 -0.9847 -0.5306  0.1696
 1357TIP3   OH2 4027   3.508   0.336   3.517 -0.3504 -0.9106 -0.0180
 1357TIP3    H1 4028   3.542   0.333   3.428  0.2929 -0.7457  0.2215
 1357TIP3    H2 4029   3.414   0.349   3.506  0.0195  1.8966 -0.6491
 1358TIP3   OH2 4030   3.360   7.500   4.898  0.2279  0.2842  0.0099
 1358TIP3    H1 4031   3.405   7.528   4.978  0.7697  0.4852 -0.3609
 1358TIP3    H2 4032   3.352   7.579   4.846 -0.7702  0.2981  0.1574
 1359TIP3   OH2 4033   7.529   2.532   4.780 -0.3130  0.2203  0.0683
 1359TIP3    H1 4034   7.513   2.446   4.819 -1.6549  0.9524  1.2321
 1359TIP3    H2 4035   7.448   2.551   4.731  0.5325  0.2253 -1.3825
 1360TIP3   OH2 4036   4.525   3.280   4.943 -0.2931  0.6548  0.3022
 1360TIP3    H1 4037   4.439   3.322   4.945  0.2977  2.0459 -1.1541
 1360TIP3    H2 4038   4.587   3.353   4.937  0.7994 -0.3538 -1.8921
 1361TIP3   OH2 4039   1.412   7.051   0.163 -0.0019 -0.2046 -0.1681
 1361TIP3    H1 4040   1.409   6.990   0.090  3.4278 -0.2973 -0.3904
 1361TIP3    H2 4041   1.425   6.995   0.240  0.0538  0.0959  0.0412
 1362TIP3   OH2 4042   0.059   5.701   1.734 -0.4093  0.0114  0.2072
 1362TIP3    H1 4043   0.116   5.749   1.674 -0.4998  1.7980  1.4707
 1362TIP3    H2 4044   0.040   5.619   1.688  0.0839  0.9895 -1.8871
 1363TIP3   OH2 4045   2.765   3.044   6.615  0.5909  0.0312  0.3164
 1363TIP3    H1 4046   2.850   3.002   6.627  0.4697  0.1712  1.7889
 1363TIP3    H2 4047   2.784   3.126   6.569  1.1640 -0.2486  0.0515
 1364TIP3   OH2 4048   4.330   7.126  -0.006 -0.3612  0.0449 -0.2512
 1364TIP3    H1 4049   4.280   7.187   0.049  0.2768  0.2814  0.0820
 1364TIP3    H2 4050   4.367   7.064   0.057  0.3781  0.3194 -0.4098
 1365TIP3   OH2 4051   1.898   3.421   0.365 -0.0598 -0.8417 -0.3719
 1365TIP3    H1 4052   1.977   3.444   0.316  0.6656 -1.9346  0.2454
 1365TIP3    H2 4053   1.834   3.488   0.339  1.3053  0.5823 -0.2415
 1366TIP3   OH2 4054   5.041   7.468   4.028  0.2478  0.3716 -0.2178
 1366TIP3    H1 4055   4.965   7.446   3.975  0.6121  0.8005 -0.9223
 1366TIP3    H2 4056   5.030   7.414   4.107 -1.2413  1.0815  0.0995
 1367TIP3   OH2 4057   1.643   1.367   2.478 -0.2470  0.5343 -0.2928
 1367TIP3    H1 4058   1.556   1.352   2.442 -0.9347 -0.9919  1.8023
 1367TIP3    H2 4059   1.690   1.285   2.463  0.3814  0.8719 -0.2128
 1368TIP3   OH2 4060   6.375   0.065   4.173 -0.6105 -0.4879 -0.1753
 1368TIP3    H1 4061   6.437   0.092   4.106  1.4216 -2.0206  0.9870
 1368TIP3    H2 4062   6.367  -0.030   4.162  0.4368 -0.9134  2.2042
 1369TIP3   OH2 4063   1.681   5.167   4.386  0.4789  0.4590 -0.3455
 1369TIP3    H1 4064   1.615   5.101   4.364  1.1945  0.0207 -1.2596
 1369TIP3    H2 4065   1.685   5.223   4.309 -0.4745  1.9102  0.6111
 1370TIP3   OH2 4066   6.694   7.570   2.752 -0.2834  0.1470  0.0034
 1370TIP3    H1 4067   6.647   7.629   2.694  1.1397  0.2486 -1.1188
 1370TIP3    H2 4068   6.638   7.562   2.829 -0.9991  2.1005 -0.2568
 1371TIP3   OH2 4069   6.677   5.777   6.471 -0.0462  0.4467  0.2002
 1371TIP3    H1 4070   6.628   5.709   6.517 -0.3427 -0.0454 -0.8178
 1371TIP3    H2 4071   6.687   5.743   6.382  0.8072  1.2294 -0.0160
 1372TIP3   OH2 4072   1.469   5.550   2.690 -0.2969  0.2434  0.3629
 1372TIP3    H1 4073   1.438   5.460   2.684 -0.5513  0.3439  0.1119
 1372TIP3    H2 4074   1.399   5.597   2.735  0.7505 -0.0948  2.4572
 1373TIP3   OH2 4075   3.967   0.325   0.045 -0.3014 -0.5129  0.1231
 1373TIP3    H1 4076   3.943   0.375   0.124 -2.2403 -1.9631  0.5213
 1373TIP3    H2 4077   3.945   0.384  -0.027 -1.2466 -0.2235  0.6194
 1374TIP3   OH2 4078   6.257   5.635   5.959 -0.5930 -0.2480 -0.1675
 1374TIP3    H1 4079   6.274   5.706   5.896  0.8883  1.0659  1.6186
 1374TIP3    H2 4080   6.163   5.642   5.976 -0.8137  0.0797 -1.4015
 1375TIP3   OH2 4081   4.816   5.107   5.388  1.0174 -0.2133  0.5898
 1375TIP3    H1 4082   4.861   5.102   5.472  1.9342 -0.9526  0.0647
 1375TIP3    H2 4083   4.832   5.023   5.346  0.3541  0.0505 -0.2251
 1376TIP3   OH2 4084   4.458   2.099   4.020  0.6808  0.1824  0.9762
 1376TIP3    H1 4085   4.500   2.098   3.934  1.3246 -0.5884  1.2962
 1376TIP3    H2 4086   4.392   2.169   4.013 -0.1563 -0.7022 -0.5645
 1377TIP3   OH2 4087   5.924   5.717   0.973 -0.2673  0.0675  0.7007
 1377TIP3    H1 4088   5.979   5.780   1.020 -0.5557  0.1851  0.8818
 1377TIP3    H2 4089   5.834   5.743   0.994 -0.3965 -1.2305  1.9280
 1378TIP3   OH2 4090   6.210   4.538   3.446  0.4125  0.4793  0.2452
 1378TIP3    H1 4091   6.127   4.580   3.422  0.9802  2.3296  1.3040
 1378TIP3    H2 4092   6.249   4.511   3.363 -0.5924  0.8861 -0.3720
 1379TIP3   OH2 4093   5.659   7.614   2.558  0.4163  0.5208 -0.0052
 1379TIP3    H1 4094   5.701   7.696   2.530 -0.3124  0.7000 -0.5876
 1379TIP3    H2 4095   5.582   7.605   2.502 -1.7875  1.5073  2.5987
 1380TIP3   OH2 4096   4.830   3.975   5.418  0.3833 -0.3026 -0.3566
 1380TIP3    H1 4097   4.911   3.923   5.419  0.0806 -0.8043  1.3094
 1380TIP3    H2 4098   4.839   4.035   5.493 -0.2674  0.4837 -0.8877
 1381TIP3   OH2 4099   2.729   3.670   1.840  0.3074  0.3675  0.2876
 1381TIP3    H1 4100   2.817   3.707   1.842 -0.0235  1.2182 -0.4576
 1381TIP3    H2 4101   2.730   3.603   1.908  1.2466  1.0192  0.9403
 1382TIP3   OH2 4102   5.448   1.275   5.344  0.5272  0.2623  0.1059
 1382TIP3    H1 4103   5.415   1.242   5.427 -1.3712  1.8157  0.0500
 1382TIP3    H2 4104   5.542   1.289   5.358  0.5874 -1.2470  1.3556
 1383TIP3   OH2 4105   6.877   7.092   2.113 -0.2410 -0.0029 -0.1917
 1383TIP3    H1 4106   6.894   7.144   2.035 -0.2168  0.9997  0.4731
 1383TIP3    H2 4107   6.781   7.083   2.115 -0.3193  0.8439  0.2091
 1384TIP3   OH2 4108   3.517   6.306   2.588 -0.0316 -0.0969 -0.0690
 1384TIP3    H1 4109   3.477   6.273   2.508  0.4748  0.4483 -0.5505
 1384TIP3    H2 4110   3.453   6.286   2.656  0.2880 -2.1498 -0.3120
 1385TIP3   OH2 4111   2.252   2.520   0.198 -0.2855 -0.1327 -0.3678
 1385TIP3    H1 4112   2.222   2.429   0.201  1.4410 -0.8933 -3.0830
 1385TIP3    H2 4113   2.171   2.570   0.186 -1.2864 -1.2225  1.2847
 1386TIP3   OH2 4114   3.080   5.102   2.649 -0.1103  0.1069  0.1484
 1386TIP3    H1 4115   3.028   5.044   2.705 -0.0959 -0.1126 -0.0618
 1386TIP3    H2 4116   3.091   5.182   2.700 -0.2468 -0.0264  0.3873
 1387TIP3   OH2 4117   4.988   1.303   5.758  0.5059 -0.3035 -0.0730
 1387TIP3    H1 4118   4.930   1.240   5.715  1.8813 -0.6197 -1.5464
 1387TIP3    H2 4119   4.984   1.381   5.703  1.7058 -0.4400 -0.3798
 1388TIP3   OH2 4120   0.410   3.348   3.192 -0.7481  0.3578 -0.0557
 1388TIP3    H1 4121   0.452   3.262   3.195 -0.1268  0.6772  2.2387
 1388TIP3    H2 4122   0.351   3.343   3.117 -2.5147 -2.9294  1.3422
 1389TIP3   OH2 4123   5.290   0.781   4.186 -0.6279 -0.3405 -0.1555
 1389TIP3    H1 4124   5.211   0.736   4.154 -0.6480 -0.4235  0.0058
 1389TIP3    H2 4125   5.355   0.769   4.117 -0.8164 -0.1048 -0.3758
 1390TIP3   OH2 4126   2.186   3.623   3.267 -0.3975 -0.4587  0.1017
 1390TIP3    H1 4127   2.180   3.536   3.307  0.5071  0.1500  1.6654
 1390TIP3    H2 4128   2.261   3.663   3.311  0.1876  0.5403 -1.7341
 1391TIP3   OH2 4129   3.573   6.129   5.935 -0.3714  0.3298 -0.1023
 1391TIP3    H1 4130   3.535   6.211   5.902  0.4952  0.6086 -0.4412
 1391TIP3    H2 4131   3.666   6.150   5.948 -0.1575 -0.5809 -0.1175
 1392TIP3   OH2 4132   7.961   6.418   6.764 -0.1500 -0.3935  0.2340
 1392TIP3    H1 4133   7.896   6.472   6.809  1.5101  1.3948  0.5733
 1392TIP3    H2 4134   7.969   6.457   6.677  0.0432 -0.9963 -0.0277
 1393TIP3   OH2 4135   6.910   7.558   3.203  0.0015 -0.3721  0.1099
 1393TIP3    H1 4136   6.922   7.574   3.109  2.8923 -0.8072  0.3024
 1393TIP3    H2 4137   6.953   7.474   3.218  2.6533  1.1993  2.3013
 1394TIP3   OH2 4138   5.075   5.347   4.786  0.6540 -0.2246 -0.0476
 1394TIP3    H1 4139   5.043   5.374   4.872  0.3355  1.4492 -0.6476
 1394TIP3    H2 4140   4.996   5.344   4.731  1.2761  4.1009 -1.5877
 1395TIP3   OH2 4141   5.074   6.476   0.331 -0.0710 -0.0087  0.2094
 1395TIP3    H1 4142   5.015   6.552   0.335 -0.7472 -0.5603  1.1247
 1395TIP3    H2 4143   5.016   6.400   0.325  0.5560 -0.5311  0.6043
 1396TIP3   OH2 4144   2.038   4.300   5.953 -0.0298 -0.5211 -0.3263
 1396TIP3    H1 4145   2.029   4.375   6.012 -0.4373  0.0635 -1.1155
 1396TIP3    H2 4146   1.971   4.239   5.983  0.6351 -0.8044  0.6378
 1397TIP3   OH2 4147   7.148   6.463   1.944  0.5369 -0.9134  0.5291
 1397TIP3    H1 4148   7.073   6.508   1.905  1.2629  0.9263  1.1311
 1397TIP3    H2 4149   7.110   6.396   2.000 -0.7431  0.7256  1.7113
 1398TIP3   OH2 4150   3.001   1.372   6.739 -0.5915  0.0794 -0.2572
 1398TIP3    H1 4151   3.070   1.439   6.745 -1.2544  0.7077  0.5868
 1398TIP3    H2 4152   3.046   1.295   6.703  0.4566  0.6045 -0.1164
 1399TIP3   OH2 4153   1.730   0.262   4.762  0.1973 -0.3783  0.5516
 1399TIP3    H1 4154   1.640   0.255   4.732  1.4278 -2.8245 -3.2816
 1399TIP3    H2 4155   1.740   0.192   4.827 -1.0261  1.1968  2.5653
 1400TIP3   OH2 4156   3.408   4.708   0.627 -0.4176  0.0497 -0.0137
 1400TIP3    H1 4157   3.433   4.796   0.654 -0.4455 -0.0552  0.3573
 1400TIP3    H2 4158   3.312   4.709   0.632 -0.3723 -0.9156  2.9828
 1401TIP3   OH2 4159   2.052   2.459   5.293 -0.3322  0.5620 -0.2693
 1401TIP3    H1 4160   2.110   2.451   5.217  2.1312 -3.1847  1.6783
 1401TIP3    H2 4161   1.989   2.387   5.283 -0.6209  0.6634  0.7220
 1402TIP3   OH2 4162   0.340   4.755   2.997 -0.5989  0.1677 -0.1492
 1402TIP3    H1 4163   0.339   4.699   2.919  0.8304  1.0250 -0.8177
 1402TIP3    H2 4164   0.314   4.697   3.068  0.6338 -1.3079 -0.8475
 1403TIP3   OH2 4165   3.501   2.365   4.267 -0.1004  0.5311 -0.6845
 1403TIP3    H1 4166   3.484   2.340   4.177 -1.8819 -2.2311  0.2777
 1403TIP3    H2 4167   3.540   2.287   4.307 -0.9657  1.0439  1.2957
 1404TIP3   OH2 4168   1.991   4.875   4.578 -0.3808 -0.6368 -0.4285
 1404TIP3    H1 4169   1.904   4.914   4.581 -1.0411 -2.0174 -0.6211
 1404TIP3    H2 4170   2.028   4.892   4.665 -0.5175  0.6176 -0.5962
 1405TIP3   OH2 4171   7.574   5.275   5.755 -0.1345 -0.2337 -0.1452
 1405TIP3    H1 4172   7.666   5.266   5.730 -0.4413 -0.2568 -1.3285
 1405TIP3    H2 4173   7.563   5.368   5.775  0.0095 -0.1144 -0.6052
 1406TIP3   OH2 4174   4.149   7.524   1.646 -0.0551  0.0815 -0.5488
 1406TIP3    H1 4175   4.115   7.566   1.725  1.3715  0.8227 -0.2977
 1406TIP3    H2 4176   4.191   7.595   1.597  0.5249 -0.6694 -1.1661
 1407TIP3   OH2 4177   4.724   2.906   1.303 -0.1978  0.0867 -0.1741
 1407TIP3    H1 4178   4.635   2.872   1.309  0.0586 -0.6172 -0.2491
 1407TIP3    H2 4179   4.776   2.831   1.272  0.1390  0.9197 -1.7457
 1408TIP3   OH2 4180   7.689   7.469   4.972  0.3953  0.0209 -0.6285
 1408TIP3    H1 4181   7.725   7.542   5.022 -0.0017  0.1669 -0.5509
 1408TIP3    H2 4182   7.599   7.461   5.003  0.4469 -0.5275 -0.6080
 1409TIP3   OH2 4183   6.447   1.226   2.567 -0.0246  0.4367  0.4263
 1409TIP3    H1 4184   6.406   1.312   2.577 -0.4908  0.1475  1.1427
 1409TIP3    H2 4185   6.411   1.175   2.640 -1.2076 -0.9376 -1.0458
 1410TIP3   OH2 4186   5.626   2.051   1.486 -0.0100  0.3730  0.1143
 1410TIP3    H1 4187   5.591   1.991   1.419  1.7468  0.2976 -0.7931
 1410TIP3    H2 4188   5.568   2.038   1.561  0.4190 -2.6821  0.0652
 1411TIP3   OH2 4189   5.108   6.619   5.350  0.0061 -0.3072  0.2629
 1411TIP3    H1 4190   5.063   6.629   5.433 -1.3277  1.6697 -0.6311
 1411TIP3    H2 4191   5.104   6.525   5.331  1.0231 -0.9129  2.7313
 1412TIP3   OH2 4192   5.491   2.094   2.556  0.1899 -0.7175  0.1607
 1412TIP3    H1 4193   5.481   2.149   2.634  1.4421 -0.3193  0.0509
 1412TIP3    H2 4194   5.531   2.152   2.491 -2.3726 -0.5192 -1.3853
 1413TIP3   OH2 4195   7.249   3.775   2.814 -0.1448  0.6007 -0.2806
 1413TIP3    H1 4196   7.290   3.690   2.831 -0.0480  1.1057  2.5230
 1413TIP3    H2 4197   7.165   3.753   2.774 -0.6157 -0.9412  1.4354
 1414TIP3   OH2 4198   1.167   2.884   0.062  0.1740 -0.0211  0.1148
 1414TIP3    H1 4199   1.169   2.917   0.152 -0.8112  1.1220 -0.2622
 1414TIP3    H2 4200   1.109   2.808   0.066  1.3450 -0.9234  0.7163
 1415TIP3   OH2 4201   0.797   2.795   2.212 -0.5152  0.3192 -0.4035
 1415TIP3    H1 4202   0.717   2.813   2.163 -0.6742 -0.1839 -0.3272
 1415TIP3    H2 4203   0.770   2.735   2.281 -0.0468  0.0662 -0.4396
 1416TIP3   OH2 4204   8.256   0.865   0.824 -0.4178  0.2351 -0.3915
 1416TIP3    H1 4205   8.241   0.773   0.803  0.5772  0.0798 -0.5130
 1416TIP3    H2 4206   8.335   0.888   0.775  1.9413 -0.0790  2.9138
 1417TIP3   OH2 4207   6.510   2.622   2.870 -0.1844  0.1393 -0.3570
 1417TIP3    H1 4208   6.422   2.627   2.905 -0.9149 -0.4903 -2.0101
 1417TIP3    H2 4209   6.519   2.532   2.838  1.2735  0.0207  0.2705
 1418TIP3   OH2 4210   2.553   3.385   4.544  0.0674 -0.2165 -0.2422
 1418TIP3    H1 4211   2.642   3.369   4.574  0.3196  1.7846  0.2294
 1418TIP3    H2 4212   2.501   3.386   4.624  0.0642  1.0695 -0.2358
 1419TIP3   OH2 4213   4.489   3.913   2.252  0.5312 -0.0597  0.1540
 1419TIP3    H1 4214   4.404   3.936   2.289 -0.0040  0.2574 -1.1790
 1419TIP3    H2 4215   4.537   3.996   2.247  0.9660 -0.2521  0.9847
 1420TIP3   OH2 4216   3.194   6.557   5.948  0.1074  0.1709 -0.1096
 1420TIP3    H1 4217   3.146   6.580   5.868  1.3183 -1.3843 -1.3257
 1420TIP3    H2 4218   3.135   6.585   6.019 -1.6550  0.2544 -1.5194
 1421TIP3   OH2 4219   5.866   6.841   4.725 -0.1900  0.2647  0.0282
 1421TIP3    H1 4220   5.837   6.750   4.738 -0.0816  0.5589  2.8469
 1421TIP3    H2 4221   5.937   6.835   4.662 -0.0845 -1.6463  0.2777
 1422TIP3   OH2 4222   3.987   7.114   4.747  0.7279  0.0266  0.4770
 1422TIP3    H1 4223   4.072   7.073   4.765 -0.1495 -1.3122  1.7907
 1422TIP3    H2 4224   3.985   7.123   4.652  2.1891 -0.2549  0.3939
 1423TIP3   OH2 4225   3.859   3.638   4.439 -0.3173 -0.0392  0.0416
 1423TIP3    H1 4226   3.839   3.619   4.530  0.3581  1.1206  0.4651
 1423TIP3    H2 4227   3.825   3.727   4.426  3.3254  1.6187  0.4984
 1424TIP3   OH2 4228   8.041   1.155   4.263  0.7057 -0.3465  0.8474
 1424TIP3    H1 4229   8.090   1.078   4.236  1.8293  1.0159 -1.2825
 1424TIP3    H2 4230   7.984   1.175   4.189  0.1878  0.6922  1.4942
 1425TIP3   OH2 4231   7.057   2.980   0.753  0.3558  0.0533  0.4448
 1425TIP3    H1 4232   7.011   3.056   0.788 -2.1209 -0.6010 -1.1558
 1425TIP3    H2 4233   7.123   3.017   0.694 -0.8065  1.0148 -0.3072
 1426TIP3   OH2 4234   1.431   7.027   3.430 -0.2303 -0.2017 -0.1242
 1426TIP3    H1 4235   1.516   7.063   3.454 -0.9987  2.6726 -1.3151
 1426TIP3    H2 4236   1.452   6.948   3.380  1.8998  1.3993 -2.0027
 1427TIP3   OH2 4237   7.026   1.028   1.764 -0.2474 -0.2216  0.0818
 1427TIP3    H1 4238   7.025   1.045   1.859 -1.2464  0.8306 -0.0960
 1427TIP3    H2 4239   6.978   0.946   1.754 -0.9987  0.1681  0.4094
 1428TIP3   OH2 4240   1.645   2.949   1.802  0.1216  0.0468 -0.5608
 1428TIP3    H1 4241   1.678   3.037   1.816  0.3867 -0.0492 -0.5632
 1428TIP3    H2 4242   1.553   2.960   1.781  0.0860  0.2985 -0.2644
 1429TIP3   OH2 4243   2.375   4.807   0.475  0.2520  0.8995 -0.1189
 1429TIP3    H1 4244   2.312   4.824   0.405 -1.8336  1.3942  1.7695
 1429TIP3    H2 4245   2.377   4.712   0.485  0.4362  0.8388 -0.7297
 1430TIP3   OH2 4246   1.437   5.264   5.704 -0.0478 -0.1799 -0.8289
 1430TIP3    H1 4247   1.496   5.281   5.777 -0.4168 -0.9206 -0.3522
 1430TIP3    H2 4248   1.442   5.169   5.691  0.1398 -0.0388 -1.8745
 1431TIP3   OH2 4249   0.301   3.814   2.941 -0.8330 -0.2118 -0.1882
 1431TIP3    H1 4250   0.388   3.830   2.977  0.2918 -0.6952 -2.4438
 1431TIP3    H2 4251   0.292   3.719   2.943 -0.3997 -0.3235 -1.7500
 1432TIP3   OH2 4252   7.287   3.249   1.570 -0.0848 -0.4234  0.3104
 1432TIP3    H1 4253   7.257   3.225   1.482 -0.1820 -0.5963  0.3898
 1432TIP3    H2 4254   7.355   3.185   1.590 -0.2835 -0.5829  0.4879
 1433TIP3   OH2 4255   7.594   7.689   0.444  0.2751  0.4032  0.0191
 1433TIP3    H1 4256   7.625   7.778   0.456  0.8699  0.9284 -3.9170
 1433TIP3    H2 4257   7.498   7.696   0.449  0.3000  1.3846 -0.5881
 1434TIP3   OH2 4258   4.770   0.661   3.475 -0.1687  0.4723  0.1181
 1434TIP3    H1 4259   4.842   0.693   3.530  0.3285  0.6819 -0.6309
 1434TIP3    H2 4260   4.699   0.723   3.490  0.0498  0.6743  0.3318
 1435TIP3   OH2 4261   1.884   4.715   0.782  0.3427  0.2679 -0.1285
 1435TIP3    H1 4262   1.858   4.663   0.706  0.9241 -0.3387  0.0825
 1435TIP3    H2 4263   1.944   4.658   0.831 -1.9417 -0.3870  2.1483
 1436TIP3   OH2 4264   1.962   1.517   0.043  0.3279  0.5365  0.4063
 1436TIP3    H1 4265   1.954   1.491  -0.048 -0.2256 -0.0600  0.6173
 1436TIP3    H2 4266   1.872   1.513   0.077  0.5736  0.4287  1.0605
 1437TIP3   OH2 4267   3.313   0.109   0.506 -0.1596 -0.6526  0.4070
 1437TIP3    H1 4268   3.327   0.168   0.580 -2.6255 -0.7949  1.0534
 1437TIP3    H2 4269   3.347   0.025   0.536  1.3167 -0.1355  0.3065
 1438TIP3   OH2 4270   4.470   4.492   3.696 -0.5211  0.0409 -0.0588
 1438TIP3    H1 4271   4.416   4.415   3.709  2.5539 -2.1887  0.7223
 1438TIP3    H2 4272   4.520   4.473   3.616 -1.6314  2.5674 -1.4701
 1439TIP3   OH2 4273   6.640   3.474   4.992  0.4485 -0.0553 -0.3479
 1439TIP3    H1 4274   6.706   3.542   4.980  0.3999  0.0524 -0.0135
 1439TIP3    H2 4275   6.670   3.401   4.938  1.7261 -0.6442  1.1259
 1440TIP3   OH2 4276   2.437   0.439   0.771  0.0526  0.2847  0.5149
 1440TIP3    H1 4277   2.494   0.509   0.740 -1.8473  0.8614 -1.9747
 1440TIP3    H2 4278   2.401   0.400   0.692 -1.8767 -1.0123  1.9255
 1441TIP3   OH2 4279   2.603   5.280   5.057  0.2150 -0.4686 -0.2655
 1441TIP3    H1 4280   2.661   5.343   5.014 -0.5659 -0.6477 -1.6563
 1441TIP3    H2 4281   2.544   5.251   4.987  1.0153 -3.3112  0.1127
 1442TIP3   OH2 4282   5.569   6.224   6.447 -0.3392  0.7340 -0.1739
 1442TIP3    H1 4283   5.496   6.216   6.386 -1.4880  1.1289  1.0935
 1442TIP3    H2 4284   5.607   6.136   6.451  0.4364  0.9358 -2.2283
 1443TIP3   OH2 4285   6.710   1.070   6.741 -0.1662 -0.8343  0.5193
 1443TIP3    H1 4286   6.731   1.049   6.650 -0.8335 -1.8504  0.5812
 1443TIP3    H2 4287   6.656   0.997   6.771  0.7086 -0.9108  1.9909
 1444TIP3   OH2 4288   7.536   7.123   4.954 -0.1846  0.0457  0.2209
 1444TIP3    H1 4289   7.537   7.029   4.934  1.8722  0.0589  0.0360
 1444TIP3    H2 4290   7.524   7.127   5.049  0.5759 -0.4432  0.3450
 1445TIP3   OH2 4291   0.203   0.750   2.282 -0.3251  0.0106  0.0186
 1445TIP3    H1 4292   0.255   0.793   2.351  0.1081  0.0448 -0.3226
 1445TIP3    H2 4293   0.117   0.791   2.287  0.4473  1.9120 -1.1791
 1446TIP3   OH2 4294   6.238   2.003   0.598 -0.2975 -0.7833  0.3524
 1446TIP3    H1 4295   6.320   2.051   0.605 -0.3643 -0.3441 -1.5163
 1446TIP3    H2 4296   6.170   2.071   0.590 -0.7139 -1.1567  0.6214
 1447TIP3   OH2 4297   4.657   7.057   0.070  0.6300  0.1974  0.2613
 1447TIP3    H1 4298   4.651   6.964   0.093  1.3648  0.3549  1.1634
 1447TIP3    H2 4299   4.631   7.102   0.151  0.4940  0.7781 -0.1056
 1448TIP3   OH2 4300   0.129   2.922   0.207  0.7105 -0.6215 -0.4754
 1448TIP3    H1 4301   0.080   2.842   0.189  0.4916 -0.3854 -0.9469
 1448TIP3    H2 4302   0.174   2.943   0.125  0.3201  0.0380 -0.5298
 1449TIP3   OH2 4303   2.652   0.146   3.687 -0.3025  0.0661 -0.1998
 1449TIP3    H1 4304   2.639   0.054   3.709  0.0032 -0.1626 -0.9340
 1449TIP3    H2 4305   2.565   0.184   3.691 -0.5321 -0.4126 -0.5627
 1450TIP3   OH2 4306   5.512   3.138   4.399 -0.1917  0.2005 -0.1640
 1450TIP3    H1 4307   5.461   3.071   4.355  0.3797  0.6226 -1.5166
 1450TIP3    H2 4308   5.529   3.102   4.486 -1.4786 -0.5856 -0.2170
 1451TIP3   OH2 4309   5.733   4.847   1.199 -0.4161  0.9147  0.2658
 1451TIP3    H1 4310   5.737   4.880   1.109 -0.5703 -2.6538 -1.2520
 1451TIP3    H2 4311   5.816   4.799   1.210 -0.4137  1.2609  2.0511
 1452TIP3   OH2 4312   2.079   5.595   1.261  0.1233 -0.4014  0.2330
 1452TIP3    H1 4313   2.028   5.584   1.342  0.1814  0.4869  0.4024
 1452TIP3    H2 4314   2.167   5.564   1.284 -0.4611 -2.6235 -0.2689
 1453TIP3   OH2 4315   3.292   7.580   1.933 -0.0541 -0.3308 -0.1975
 1453TIP3    H1 4316   3.364   7.536   1.978  0.0340 -0.9460 -0.9150
 1453TIP3    H2 4317   3.219   7.578   1.996  0.5068  0.1879  0.4837
 1454TIP3   OH2 4318   2.671   4.328   4.068 -0.5003  0.3668 -0.0903
 1454TIP3    H1 4319   2.731   4.365   4.133 -0.4396  0.6300 -0.2948
 1454TIP3    H2 4320   2.622   4.261   4.116 -2.0269  2.0416  0.8505
 1455TIP3   OH2 4321   7.205   4.927   5.291 -0.0806 -0.1118 -0.9170
 1455TIP3    H1 4322   7.168   4.843   5.318  1.0414 -0.7622 -1.3178
 1455TIP3    H2 4323   7.148   4.956   5.220  0.0055 -0.9646 -1.3534
 1456TIP3   OH2 4324   3.197   5.936   3.182  0.2546 -0.0259  0.6015
 1456TIP3    H1 4325   3.166   5.845   3.176 -3.1727  1.0386  0.0400
 1456TIP3    H2 4326   3.168   5.965   3.269  0.8948  0.7063  0.5829
 1457TIP3   OH2 4327   4.124   1.835   3.762  0.2006 -0.0901 -0.3866
 1457TIP3    H1 4328   4.178   1.779   3.706 -1.1886  0.3286 -2.2572
 1457TIP3    H2 4329   4.060   1.874   3.702 -1.3546  0.4344  1.5121
 1458TIP3   OH2 4330   4.098   3.075   2.231  0.1095 -0.1849  0.6454
 1458TIP3    H1 4331   4.121   3.167   2.240  0.6066  0.0548 -2.1217
 1458TIP3    H2 4332   4.179   3.033   2.201 -0.5741 -1.1506  0.0991
 1459TIP3   OH2 4333   7.651   7.130   6.015 -0.3284  0.1723 -0.2039
 1459TIP3    H1 4334   7.586   7.127   5.945  0.3396  1.4115 -0.8969
 1459TIP3    H2 4335   7.728   7.170   5.975  0.0767  0.8854  1.2232
 1460TIP3   OH2 4336   5.344   0.738   3.184 -0.3816  0.3548  0.0224
 1460TIP3    H1 4337   5.387   0.719   3.267 -0.2963  0.5320  0.0183
 1460TIP3    H2 4338   5.250   0.731   3.203 -0.3626  0.4263  0.1402
 1461TIP3   OH2 4339   6.180   7.607   6.491  0.0271 -0.4443 -0.2150
 1461TIP3    H1 4340   6.262   7.601   6.540  1.0196  2.4088 -1.2920
 1461TIP3    H2 4341   6.198   7.560   6.409  0.8728  0.6808 -0.7080
 1462TIP3   OH2 4342   0.874   7.411   3.653  0.2519  0.3596 -0.3415
 1462TIP3    H1 4343   0.840   7.405   3.564 -0.5493 -1.0343  0.0188
 1462TIP3    H2 4344   0.969   7.409   3.642  0.1744  0.7715 -1.1856
 1463TIP3   OH2 4345   0.278   6.778   3.019  0.1551  0.0180 -0.3438
 1463TIP3    H1 4346   0.213   6.843   3.045 -0.5098 -1.0677  0.7572
 1463TIP3    H2 4347   0.327   6.821   2.948 -0.2527  1.7198  0.3557
 1464TIP3   OH2 4348   4.023   3.518   3.592  0.0413 -0.1829 -0.0792
 1464TIP3    H1 4349   4.047   3.605   3.624  2.1360 -0.4080 -0.9039
 1464TIP3    H2 4350   3.985   3.475   3.668  1.6679  0.4885  1.1865
 1465TIP3   OH2 4351   4.074   2.634   2.187  0.2095  0.3805 -0.4932
 1465TIP3    H1 4352   4.162   2.653   2.220  0.6136 -0.1394 -1.2396
 1465TIP3    H2 4353   4.030   2.590   2.260  0.5799  0.6051 -0.1325
 1466TIP3   OH2 4354   8.209   4.925   0.969  0.4359  0.3440 -0.1108
 1466TIP3    H1 4355   8.253   4.962   0.892 -0.8962  1.1383 -0.5122
 1466TIP3    H2 4356   8.159   4.998   1.005 -0.6062 -0.5571  0.2968
 1467TIP3   OH2 4357   2.338   0.994   2.598  0.9393  0.3853  0.4205
 1467TIP3    H1 4358   2.369   0.908   2.625 -0.8734 -0.5809 -0.3706
 1467TIP3    H2 4359   2.285   1.025   2.672 -1.7441 -1.0416 -0.7668
 1468TIP3   OH2 4360   2.057   4.546   3.003 -0.1383  0.2582  0.7721
 1468TIP3    H1 4361   2.027   4.513   3.088 -0.5979  0.0804  0.5458
 1468TIP3    H2 4362   1.978   4.545   2.949  0.0787  0.7120  0.4486
 1469TIP3   OH2 4363   3.812   1.506   3.720 -1.4892 -0.1435 -0.4171
 1469TIP3    H1 4364   3.905   1.523   3.710 -1.1128 -1.9427 -0.2256
 1469TIP3    H2 4365   3.769   1.584   3.684  0.0718  1.3707  0.8263
 1470TIP3   OH2 4366   6.406   0.388   6.290 -0.4314  0.7644  0.1958
 1470TIP3    H1 4367   6.378   0.456   6.229 -1.7259  0.8104  0.8103
 1470TIP3    H2 4368   6.329   0.371   6.345 -0.5492 -1.9955 -0.6612
 1471TIP3   OH2 4369   4.486   4.980   6.255 -0.1094 -0.0347 -0.2114
 1471TIP3    H1 4370   4.572   4.989   6.214 -0.1708 -3.4452 -1.3953
 1471TIP3    H2 4371   4.425   5.013   6.189  0.1368 -0.2271 -0.5401
 1472TIP3   OH2 4372   1.276   3.186   1.920  0.9059 -0.3374  0.2120
 1472TIP3    H1 4373   1.211   3.120   1.945  1.3395 -0.4585  1.0438
 1472TIP3    H2 4374   1.350   3.170   1.978  1.1707  0.6250  0.1570
 1473TIP3   OH2 4375   5.264   0.247   6.783 -0.8674  0.4312  0.9263
 1473TIP3    H1 4376   5.296   0.327   6.742 -1.0187  0.8986  1.7074
 1473TIP3    H2 4377   5.171   0.244   6.761 -0.5596 -0.3460 -0.3983
 1474TIP3   OH2 4378   7.690   4.331   6.339  0.0293 -0.5016  0.0403
 1474TIP3    H1 4379   7.714   4.313   6.248 -1.2086 -1.1990 -0.1746
 1474TIP3    H2 4380   7.772   4.355   6.382  0.5502  0.2950 -1.3635
 1475TIP3   OH2 4381   0.656   6.977   3.600 -0.7604  0.3517 -0.2127
 1475TIP3    H1 4382   0.705   6.999   3.521 -0.4807 -0.6123 -0.3236
 1475TIP3    H2 4383   0.588   7.044   3.606 -1.3304 -0.0617 -1.7483
 1476TIP3   OH2 4384   4.568   1.683   2.568 -0.2591  0.0329 -0.2107
 1476TIP3    H1 4385   4.575   1.591   2.542  0.1503  0.2022 -0.7190
 1476TIP3    H2 4386   4.524   1.681   2.653 -1.8907 -0.5363 -1.0193
 1477TIP3   OH2 4387   2.368   5.763   5.415  0.0206  0.3246  0.1803
 1477TIP3    H1 4388   2.294   5.719   5.373  0.8963 -0.4379 -0.6043
 1477TIP3    H2 4389   2.344   5.855   5.416 -1.6788 -0.0654  1.4896
 1478TIP3   OH2 4390   6.380   1.829   1.220  0.0622 -0.3293  0.2307
 1478TIP3    H1 4391   6.406   1.855   1.132  1.7429 -1.8309  0.2304
 1478TIP3    H2 4392   6.304   1.885   1.240  0.7671  1.3315 -1.4230
 1479TIP3   OH2 4393   7.820   1.694   0.800  0.0493 -0.0455 -0.2855
 1479TIP3    H1 4394   7.873   1.624   0.839 -1.0410  0.1098  1.5809
 1479TIP3    H2 4395   7.881   1.767   0.791  1.1546 -1.1059 -2.0686
 1480TIP3   OH2 4396   6.687   5.443   1.896  0.7684 -0.2809 -0.1252
 1480TIP3    H1 4397   6.780   5.428   1.881  0.9414 -2.9040  2.6611
 1480TIP3    H2 4398   6.684   5.518   1.956  1.0668 -0.0353 -0.4190
 1481TIP3   OH2 4399   7.530   6.174   0.346 -0.3083 -0.0319  0.0717
 1481TIP3    H1 4400   7.541   6.262   0.382 -1.6591  0.0230  0.4040
 1481TIP3    H2 4401   7.447   6.179   0.298  0.7281 -0.5038 -1.8541
 1482TIP3   OH2 4402   2.407   7.122   2.813 -0.3615  0.0012  0.1298
 1482TIP3    H1 4403   2.318   7.155   2.803 -0.3126 -0.2905 -1.4917
 1482TIP3    H2 4404   2.454   7.193   2.858 -0.6156  1.5995 -1.9597
 1483TIP3   OH2 4405   0.355   1.322   1.444  0.0011 -0.0683 -0.0326
 1483TIP3    H1 4406   0.439   1.287   1.413 -0.6263 -0.7198 -1.0329
 1483TIP3    H2 4407   0.291   1.290   1.382 -1.0687  0.0529  0.9745
 1484TIP3   OH2 4408   2.107   0.883   1.138  0.4542 -0.2253 -0.8918
 1484TIP3    H1 4409   2.187   0.833   1.156  1.5615  2.4451  3.2029
 1484TIP3    H2 4410   2.038   0.836   1.184  0.3969 -0.6689 -1.4269
 1485TIP3   OH2 4411   4.873   5.439   2.518  0.2015 -0.3768  0.5297
 1485TIP3    H1 4412   4.940   5.419   2.583 -0.3517  1.7881  1.8769
 1485TIP3    H2 4413   4.923   5.465   2.440  0.9176 -0.2279  1.0286
 1486TIP3   OH2 4414   7.742   1.447   3.173 -0.4653 -0.0754  0.3649
 1486TIP3    H1 4415   7.688   1.474   3.247 -2.6066  1.3158 -1.5870
 1486TIP3    H2 4416   7.716   1.356   3.156 -1.6455  0.3132 -0.0228
 1487TIP3   OH2 4417   7.043   7.227   5.586  0.0052 -0.0040 -0.6015
 1487TIP3    H1 4418   6.985   7.283   5.534  0.1068  2.8621  2.0711
 1487TIP3    H2 4419   6.994   7.146   5.598 -0.9545  0.1182 -3.1236
 1488TIP3   OH2 4420   6.126   7.341   1.827 -0.8439  0.5414 -0.3641
 1488TIP3    H1 4421   6.147   7.256   1.866  1.0852 -0.5358 -3.4200
 1488TIP3    H2 4422   6.190   7.352   1.756 -2.4318  3.5350 -1.5249
 1489TIP3   OH2 4423   1.804   0.332   2.000 -0.5523 -0.7466 -0.2148
 1489TIP3    H1 4424   1.831   0.243   1.978 -3.3402 -2.0071  0.9545
 1489TIP3    H2 4425   1.804   0.378   1.916  2.0622 -1.4115 -0.6861
 1490TIP3   OH2 4426   2.807   3.617  -0.030  0.4701 -0.0028  0.3601
 1490TIP3    H1 4427   2.784   3.588   0.058 -0.6675  0.3338  0.1882
 1490TIP3    H2 4428   2.825   3.710  -0.020 -0.0285  0.1171  0.1846
 1491TIP3   OH2 4429   1.878   2.848   1.035  0.3891 -0.1156  0.0047
 1491TIP3    H1 4430   1.948   2.796   0.996  0.8944  1.1921 -0.9031
 1491TIP3    H2 4431   1.798   2.818   0.993  0.5878 -0.6196 -0.0117
 1492TIP3   OH2 4432   5.982   6.273   2.747 -1.1471 -0.4412 -0.6456
 1492TIP3    H1 4433   5.913   6.292   2.683 -2.3681 -0.6008  0.5968
 1492TIP3    H2 4434   5.985   6.351   2.803  1.1135  0.4568 -1.8591
 1493TIP3   OH2 4435   7.723   3.633   4.510  0.0496 -0.0484  0.6001
 1493TIP3    H1 4436   7.651   3.689   4.481  0.1372 -0.7486 -1.0756
 1493TIP3    H2 4437   7.798   3.693   4.517  0.0335  0.1384 -0.7109
 1494TIP3   OH2 4438   8.004   6.919   3.827  0.0762  0.3518  0.5371
 1494TIP3    H1 4439   8.079   6.861   3.840 -1.6404 -1.8776  0.9883
 1494TIP3    H2 4440   7.973   6.938   3.916 -0.7292  0.1053  0.3135
 1495TIP3   OH2 4441   7.293   4.254   0.504  0.1886 -0.1329  0.0907
 1495TIP3    H1 4442   7.220   4.310   0.530  0.3751 -0.6277  1.8697
 1495TIP3    H2 4443   7.362   4.314   0.478 -0.9732  0.3383 -2.1509
 1496TIP3   OH2 4444   0.256   6.412   4.359  0.6294 -0.1394  0.4589
 1496TIP3    H1 4445   0.340   6.386   4.322  1.4065  0.5484  1.6908
 1496TIP3    H2 4446   0.247   6.360   4.439  0.7970  1.1467  1.3438
 1497TIP3   OH2 4447   1.491   0.480   4.497  0.2194 -0.0758 -0.2230
 1497TIP3    H1 4448   1.568   0.516   4.452  1.9896 -1.3516  1.5783
 1497TIP3    H2 4449   1.483   0.534   4.576 -2.7217  2.0172 -1.7606
 1498TIP3   OH2 4450   7.120   7.506   3.679 -0.1261  0.5897  0.5555
 1498TIP3    H1 4451   7.054   7.478   3.743 -1.1978 -0.2109 -0.8500
 1498TIP3    H2 4452   7.199   7.520   3.731 -1.4812  2.0368  2.3805
 1499TIP3   OH2 4453   4.339   1.372   2.791 -0.1954  0.3502  0.3021
 1499TIP3    H1 4454   4.257   1.326   2.774  0.7299 -0.6544 -1.6976
 1499TIP3    H2 4455   4.314   1.465   2.794 -1.5265  0.0084  0.7525
 1500TIP3   OH2 4456   6.514   6.357   0.224  0.4149  0.0261 -0.0081
 1500TIP3    H1 4457   6.564   6.383   0.301 -1.4863 -0.3077  1.4172
 1500TIP3    H2 4458   6.488   6.267   0.241 -3.1609  1.0405  0.8665
 1501TIP3   OH2 4459   7.933   5.253   4.645  0.1105  0.2021 -0.5509
 1501TIP3    H1 4460   7.924   5.168   4.601 -1.0083  0.1886 -0.3219
 1501TIP3    H2 4461   8.010   5.293   4.604  0.1508 -0.5594 -1.2521
 1502TIP3   OH2 4462   3.371   5.011   6.444 -0.3713  0.0246  0.1628
 1502TIP3    H1 4463   3.434   5.026   6.515 -0.2605  0.1234  0.0449
 1502TIP3    H2 4464   3.346   5.100   6.416 -0.3983 -0.0143  0.0635
 1503TIP3   OH2 4465   0.232   3.410   5.403  0.2144  0.1460  0.0390
 1503TIP3    H1 4466   0.250   3.426   5.496  0.5646 -0.5870  0.1035
 1503TIP3    H2 4467   0.144   3.445   5.389 -0.6676 -1.5282  1.1242
 1504TIP3   OH2 4468   1.822   1.937   1.158  0.2097  0.3253 -0.1411
 1504TIP3    H1 4469   1.846   1.987   1.235 -1.0047 -0.1537  0.5735
 1504TIP3    H2 4470   1.745   1.981   1.123 -0.7576 -0.8775  0.3847
 1505TIP3   OH2 4471   3.582   7.050   3.765  1.0754 -0.4372 -0.4115
 1505TIP3    H1 4472   3.650   7.108   3.800 -0.0715  0.7044  0.0440
 1505TIP3    H2 4473   3.503   7.075   3.814  0.2123 -1.3420 -1.3023
 1506TIP3   OH2 4474   7.160   0.558   3.873  0.5527 -0.0450  0.3974
 1506TIP3    H1 4475   7.156   0.556   3.777  1.2021 -0.4461  0.3741
 1506TIP3    H2 4476   7.080   0.603   3.899 -0.6394 -1.6940 -0.2583
 1507TIP3   OH2 4477   0.046   2.345   6.711  0.1810 -0.1387  0.6843
 1507TIP3    H1 4478  -0.023   2.362   6.647 -1.0896  0.8136  2.2361
 1507TIP3    H2 4479   0.104   2.283   6.667 -2.5680 -2.3841 -0.1096
 1508TIP3   OH2 4480   1.454   0.490   2.609  0.0415  0.0351  0.0074
 1508TIP3    H1 4481   1.506   0.426   2.658  0.1858 -2.1742 -2.7695
 1508TIP3    H2 4482   1.367   0.485   2.647  0.6746  0.1934  1.5486
 1509TIP3   OH2 4483   5.007   7.049   4.405  0.6505 -0.0185  0.0802
 1509TIP3    H1 4484   4.960   7.086   4.480  0.0849  0.5966 -0.5637
 1509TIP3    H2 4485   5.084   7.008   4.443  0.2460  0.0747  1.0279
 1510TIP3   OH2 4486   0.223   2.639   3.812  0.1594 -0.7578  0.3292
 1510TIP3    H1 4487   0.233   2.581   3.887 -1.6317  0.1602  1.3398
 1510TIP3    H2 4488   0.133   2.669   3.816  0.4070  0.4141 -1.4188
 1511TIP3   OH2 4489   6.630   2.736   0.538  0.0034  0.2619  0.4957
 1511TIP3    H1 4490   6.643   2.755   0.446  1.5520  0.7262  0.7779
 1511TIP3    H2 4491   6.694   2.791   0.584 -0.7860  0.1100  1.8546
 1512TIP3   OH2 4492   4.484   0.482   2.727 -0.4262  0.3378 -0.7935
 1512TIP3    H1 4493   4.565   0.467   2.679 -1.3049  0.5676 -2.4121
 1512TIP3    H2 4494   4.481   0.412   2.792  1.0853  0.3714 -0.6667
 1513TIP3   OH2 4495   2.601   2.075   0.316  0.1326 -0.4109 -0.0620
 1513TIP3    H1 4496   2.589   2.159   0.273 -0.0793  0.7516  2.1183
 1513TIP3    H2 4497   2.547   2.014   0.265  0.1060  0.7955 -1.5403
 1514TIP3   OH2 4498   0.754   5.129   4.002  0.2793 -0.4058 -0.4365
 1514TIP3    H1 4499   0.801   5.183   4.065 -1.2596 -0.4654  0.8115
 1514TIP3    H2 4500   0.817   5.062   3.976  0.9390 -0.4354  1.1285
 1515TIP3   OH2 4501   4.522   2.636   0.994 -0.0162 -0.1539  0.0750
 1515TIP3    H1 4502   4.526   2.710   0.934 -1.9059 -0.2672 -0.2554
 1515TIP3    H2 4503   4.449   2.656   1.052 -2.3268 -2.8632 -1.6395
 1516TIP3   OH2 4504   0.875   2.444   5.076  0.8141  0.0213  0.3142
 1516TIP3    H1 4505   0.964   2.473   5.057  0.5119  0.2735 -0.8353
 1516TIP3    H2 4506   0.819   2.505   5.027  0.0183 -0.2664  0.8386
 1517TIP3   OH2 4507   7.883   6.899   2.055  0.0217 -0.2719 -0.5987
 1517TIP3    H1 4508   7.861   6.954   2.130 -1.2296 -0.3565 -0.8883
 1517TIP3    H2 4509   7.958   6.848   2.085  1.0998  1.4190 -0.2490
 1518TIP3   OH2 4510   3.533   1.543   5.987  0.2575  0.0279 -0.3926
 1518TIP3    H1 4511   3.467   1.524   6.053  1.0040 -1.3598 -0.0151
 1518TIP3    H2 4512   3.591   1.467   5.988  1.0870  0.6084 -1.6644
 1519TIP3   OH2 4513   6.320   7.060   3.700  0.0914 -0.7246 -0.1994
 1519TIP3    H1 4514   6.350   7.038   3.789 -1.0109 -0.3687  0.2804
 1519TIP3    H2 4515   6.275   6.981   3.670 -1.4064 -0.1470  0.4221
 1520TIP3   OH2 4516   7.702   1.746   5.934 -0.0620 -0.0215  0.3915
 1520TIP3    H1 4517   7.640   1.787   5.995 -0.1116  0.9674 -0.2927
 1520TIP3    H2 4518   7.788   1.769   5.968 -0.0901  0.5118  0.1252
 1521TIP3   OH2 4519   1.384   3.142   2.354  0.5723  0.2072  0.1548
 1521TIP3    H1 4520   1.442   3.080   2.397  1.9344  1.0466 -0.4235
 1521TIP3    H2 4521   1.361   3.205   2.422 -0.0613 -0.3919  0.5037
 1522TIP3   OH2 4522   5.116   5.212   0.794 -0.2412  0.6314  0.0917
 1522TIP3    H1 4523   5.139   5.133   0.745 -1.5959  0.7127 -0.7259
 1522TIP3    H2 4524   5.200   5.246   0.825  0.5145 -0.2647 -0.8836
 1523TIP3   OH2 4525   7.485   3.166   3.132  0.1002  0.4026 -0.3495
 1523TIP3    H1 4526   7.403   3.135   3.092  0.2990 -0.3814 -0.1714
 1523TIP3    H2 4527   7.458   3.202   3.216  0.1584 -1.9419  0.7573
 1524TIP3   OH2 4528   1.468   3.878   3.562 -0.3903 -0.5537  0.4004
 1524TIP3    H1 4529   1.374   3.862   3.572 -0.2714 -0.6023  1.5510
 1524TIP3    H2 4530   1.509   3.812   3.618  0.3688 -1.0661 -0.7229
 1525TIP3   OH2 4531   1.844   1.550   5.200 -0.6394 -0.0979  0.0749
 1525TIP3    H1 4532   1.866   1.506   5.282  1.2057 -1.2854 -1.0029
 1525TIP3    H2 4533   1.879   1.493   5.131  0.0996  2.0956 -1.4740
 1526TIP3   OH2 4534   7.349   7.015   1.736  0.3296 -0.2626  0.0732
 1526TIP3    H1 4535   7.402   6.941   1.707 -0.9200 -0.7636 -1.0954
 1526TIP3    H2 4536   7.412   7.081   1.766  1.6237 -0.6327 -1.6854
 1527TIP3   OH2 4537   5.633   5.835   3.571 -0.3042 -0.3698 -0.7141
 1527TIP3    H1 4538   5.544   5.826   3.536  0.1267 -2.5504 -1.4292
 1527TIP3    H2 4539   5.688   5.844   3.493  0.1426  0.5171 -0.2979
 1528TIP3   OH2 4540   7.411   1.822   1.968  0.3343  0.3176 -0.1708
 1528TIP3    H1 4541   7.486   1.770   1.938 -0.7500 -1.7368  0.4223
 1528TIP3    H2 4542   7.353   1.828   1.892  0.2537  0.2294 -0.1178
 1529TIP3   OH2 4543   2.507   0.082   1.092 -0.0075  0.0348 -0.2933
 1529TIP3    H1 4544   2.497  -0.011   1.074  0.3667  0.1016 -0.8605
 1529TIP3    H2 4545   2.588   0.088   1.143  1.0809  0.2391 -1.9689
 1530TIP3   OH2 4546   3.731   3.018   1.725 -0.4903 -0.6504  0.5015
 1530TIP3    H1 4547   3.647   3.062   1.734 -0.7190 -1.0856  0.5143
 1530TIP3    H2 4548   3.722   2.966   1.645 -0.5011 -1.2854  0.9137
 1531TIP3   OH2 4549   4.173   2.165   6.503 -0.0737  0.1810  0.5494
 1531TIP3    H1 4550   4.227   2.150   6.580 -0.7626 -1.0467  0.8096
 1531TIP3    H2 4551   4.151   2.259   6.507  2.9662  1.0241 -0.2107
 1532TIP3   OH2 4552   4.341   5.281   4.507  0.1593 -0.6099 -0.3236
 1532TIP3    H1 4553   4.420   5.273   4.455 -0.4194 -0.1673 -1.3010
 1532TIP3    H2 4554   4.297   5.359   4.472 -0.4909 -0.5861  0.4987
 1533TIP3   OH2 4555   7.614   1.801   1.260  0.0184  0.1262  0.3757
 1533TIP3    H1 4556   7.535   1.770   1.215 -1.8582  2.1840  2.0184
 1533TIP3    H2 4557   7.595   1.793   1.353  2.5556 -1.0782  0.8866
 1534TIP3   OH2 4558   0.681   6.231   6.277  0.5764  0.3437 -0.5870
 1534TIP3    H1 4559   0.679   6.247   6.183  0.0070  1.2669 -0.4267
 1534TIP3    H2 4560   0.589   6.221   6.302  0.6717  0.8723 -0.0044
 1535TIP3   OH2 4561   8.153   1.970   0.020  1.4127 -0.2241  0.1820
 1535TIP3    H1 4562   8.059   1.957   0.034  0.9699  1.0418 -1.3944
 1535TIP3    H2 4563   8.188   1.987   0.108  0.4474 -2.1101  0.9901
 1536TIP3   OH2 4564   3.084   1.022   0.618  0.5004  0.6897  0.3122
 1536TIP3    H1 4565   3.168   1.065   0.605  0.7590  0.3659  0.8792
 1536TIP3    H2 4566   3.025   1.066   0.557  0.8544  1.5557  0.5856
 1537TIP3   OH2 4567   4.763   7.555   0.547  0.2799  0.6759  0.1028
 1537TIP3    H1 4568   4.844   7.582   0.590  0.3099 -0.0083  0.4747
 1537TIP3    H2 4569   4.706   7.525   0.618 -1.6387  4.2994  0.3451
 1538TIP3   OH2 4570   0.643   4.095   3.117 -0.2008  0.1673 -0.1323
 1538TIP3    H1 4571   0.580   4.024   3.133  1.0788 -0.9799 -0.0248
 1538TIP3    H2 4572   0.706   4.058   3.055  1.3332  0.6769  1.0511
 1539TIP3   OH2 4573   7.537   0.270   2.223 -0.1162  0.2789  0.2098
 1539TIP3    H1 4574   7.519   0.177   2.205 -0.1899  0.5380 -1.1743
 1539TIP3    H2 4575   7.457   0.303   2.263  0.1856 -0.4277  1.4323
 1540TIP3   OH2 4576   2.011   3.211   2.687  0.0531  0.2394 -0.5180
 1540TIP3    H1 4577   1.962   3.293   2.680  1.4762  1.0857 -1.0963
 1540TIP3    H2 4578   2.096   3.237   2.723  0.7629 -0.8683 -1.3198
 1541TIP3   OH2 4579   7.267   6.978   5.557 -0.2166  0.1603 -0.0275
 1541TIP3    H1 4580   7.338   6.919   5.533 -1.4022 -2.0368  1.5133
 1541TIP3    H2 4581   7.193   6.951   5.502 -1.0225 -0.4706  1.3073
 1542TIP3   OH2 4582   2.668   6.366   0.435 -0.5152  0.2079 -0.0399
 1542TIP3    H1 4583   2.585   6.397   0.399 -0.9391  0.4200  1.0788
 1542TIP3    H2 4584   2.707   6.315   0.365 -1.1497  0.8994 -0.9156
 1543TIP3   OH2 4585   1.230   2.485   0.109  0.2032 -0.0795 -1.1268
 1543TIP3    H1 4586   1.268   2.521   0.029  0.7049  1.7760 -0.1430
 1543TIP3    H2 4587   1.301   2.493   0.174 -1.2537  1.8633  0.3499
 1544TIP3   OH2 4588   7.322   1.738   6.230 -0.1977  0.2066 -0.3974
 1544TIP3    H1 4589   7.253   1.798   6.259  1.8336  2.5281 -0.0089
 1544TIP3    H2 4590   7.380   1.730   6.306  0.2388 -1.2858 -0.8610
 1545TIP3   OH2 4591   6.320   4.289   2.126  0.1224 -0.0372 -0.4341
 1545TIP3    H1 4592   6.239   4.326   2.162  0.8458  1.0591  0.1387
 1545TIP3    H2 4593   6.309   4.195   2.135 -1.0565  0.0879 -0.3061
 1546TIP3   OH2 4594   3.731   1.051   4.545  0.1312 -0.1673 -0.4401
 1546TIP3    H1 4595   3.768   1.134   4.517 -1.4763  0.4283 -0.8582
 1546TIP3    H2 4596   3.660   1.033   4.484 -1.3969 -0.4082  1.3296
 1547TIP3   OH2 4597   6.417   7.113   1.266  0.1988 -0.0012 -0.0351
 1547TIP3    H1 4598   6.453   7.200   1.283  0.8467 -0.4680  1.0451
 1547TIP3    H2 4599   6.338   7.130   1.215  0.9421  1.1490 -0.8689
 1548TIP3   OH2 4600   2.198   0.965   3.061 -0.3588  0.1903  0.6249
 1548TIP3    H1 4601   2.291   0.988   3.065 -0.5866  1.0074  2.2891
 1548TIP3    H2 4602   2.197   0.870   3.063  0.4621  0.1534 -0.2039
 1549TIP3   OH2 4603   6.556   0.300   2.796  0.1918  0.0339  0.3294
 1549TIP3    H1 4604   6.513   0.386   2.792 -1.6565 -0.8836 -1.6876
 1549TIP3    H2 4605   6.505   0.251   2.861 -0.5963 -0.4237 -0.6167
 1550TIP3   OH2 4606   6.115   4.148   0.750  0.6618 -0.0050  0.0139
 1550TIP3    H1 4607   6.158   4.185   0.827  1.6441  0.1111 -0.5703
 1550TIP3    H2 4608   6.022   4.148   0.772  0.9806 -0.5831  1.4481
 1551TIP3   OH2 4609   1.781   5.661   0.872  0.3107  0.1176 -0.0289
 1551TIP3    H1 4610   1.787   5.571   0.904 -0.8205  0.3440  0.8470
 1551TIP3    H2 4611   1.867   5.677   0.833  0.1177 -1.7655 -1.3749
 1552TIP3   OH2 4612   4.412   1.576   1.955 -0.1320  0.2201 -0.1968
 1552TIP3    H1 4613   4.384   1.666   1.936  0.5585  0.1288 -1.8158
 1552TIP3    H2 4614   4.351   1.522   1.905  1.9466 -0.0225 -2.7300
 1553TIP3   OH2 4615   6.810   7.212   4.350 -0.6361 -0.1910 -0.0178
 1553TIP3    H1 4616   6.857   7.165   4.419 -0.4843  1.1008  0.7968
 1553TIP3    H2 4617   6.772   7.288   4.395 -0.7879  0.5130 -1.3037
 1554TIP3   OH2 4618   1.675   5.986   6.051 -0.1604 -0.0068 -0.9254
 1554TIP3    H1 4619   1.590   5.994   6.007 -0.3069  0.8137 -0.5052
 1554TIP3    H2 4620   1.731   6.050   6.007  0.1150 -0.2283 -0.9000
 1555TIP3   OH2 4621   7.359   0.051   3.434 -0.0884  0.1399 -0.0375
 1555TIP3    H1 4622   7.453   0.032   3.430 -0.4496 -1.6966 -0.4896
 1555TIP3    H2 4623   7.319  -0.013   3.376 -1.6891  0.5492  0.5694
 1556TIP3   OH2 4624   6.478   1.354   1.576  0.2801  0.6682  0.5446
 1556TIP3    H1 4625   6.554   1.332   1.522 -0.4346 -0.7272  0.0390
 1556TIP3    H2 4626   6.438   1.429   1.532 -0.7512 -0.9313 -1.4212
 1557TIP3   OH2 4627   7.738   6.672   4.950 -0.5461 -0.0984  0.1335
 1557TIP3    H1 4628   7.770   6.581   4.947  1.6912  0.6468 -0.9704
 1557TIP3    H2 4629   7.793   6.714   5.016 -1.7132  0.4437  0.7914
 1558TIP3   OH2 4630   3.942   6.334   6.272  0.3013  0.3086 -0.3076
 1558TIP3    H1 4631   3.978   6.265   6.217 -1.1604 -0.4262 -0.4052
 1558TIP3    H2 4632   3.940   6.296   6.360  2.3782  1.3796  0.2452
 1559TIP3   OH2 4633   8.266   3.192   2.005 -0.5683  0.5812 -0.0487
 1559TIP3    H1 4634   8.307   3.114   1.968  0.2996  1.7310 -1.6240
 1559TIP3    H2 4635   8.230   3.238   1.930 -0.7190  1.8944  0.7986
 1560TIP3   OH2 4636   8.214   4.952   4.400 -0.2765 -0.7484  0.3868
 1560TIP3    H1 4637   8.234   4.975   4.491 -1.4180 -0.8241  0.6747
 1560TIP3    H2 4638   8.296   4.965   4.353 -0.5324  3.0403  0.6570
 1561TIP3   OH2 4639   2.320   6.402   2.856 -0.9600 -0.0316 -0.1471
 1561TIP3    H1 4640   2.282   6.471   2.801 -1.0499 -0.2768 -0.3971
 1561TIP3    H2 4641   2.357   6.448   2.931  0.0489  0.4108 -0.9066
 1562TIP3   OH2 4642   3.658   6.587   1.981 -0.6682 -0.5423 -0.1015
 1562TIP3    H1 4643   3.692   6.676   1.977 -0.8217 -0.3023  2.3911
 1562TIP3    H2 4644   3.646   6.562   1.889  1.2173  1.2593 -0.9291
 1563TIP3   OH2 4645   4.433   6.590   6.435  0.0144 -0.1910  0.2352
 1563TIP3    H1 4646   4.448   6.677   6.471 -0.1485 -0.2948  0.5686
 1563TIP3    H2 4647   4.500   6.535   6.476  0.5492 -0.0898 -0.5016
 1564TIP3   OH2 4648   2.319   1.094   6.409  0.1847 -0.0340 -0.2698
 1564TIP3    H1 4649   2.242   1.109   6.355  1.1238  0.4724 -1.5260
 1564TIP3    H2 4650   2.346   1.004   6.390 -0.7921 -0.6509  1.1264
 1565TIP3   OH2 4651   4.282   3.076   4.000 -0.1630  0.0281  0.0881
 1565TIP3    H1 4652   4.188   3.064   4.013 -0.1657 -0.3769 -0.2926
 1565TIP3    H2 4653   4.299   3.166   4.027 -0.7474  0.2567 -0.3012
 1566TIP3   OH2 4654   0.661   3.524   0.622 -0.2712 -0.2457  0.4173
 1566TIP3    H1 4655   0.566   3.525   0.611 -0.7334 -2.7493  3.0050
 1566TIP3    H2 4656   0.693   3.470   0.549 -0.9900 -0.5683  0.3343
 1567TIP3   OH2 4657   0.094   4.805   1.435 -0.7339 -0.0492 -0.6651
 1567TIP3    H1 4658   0.010   4.791   1.391 -0.1292 -0.4165 -1.7512
 1567TIP3    H2 4659   0.127   4.887   1.397 -0.9174  0.4962  0.3041
 1568TIP3   OH2 4660   7.860   1.535   6.408 -0.3585 -0.2061  0.3465
 1568TIP3    H1 4661   7.793   1.578   6.355 -1.8733 -2.2008  0.5428
 1568TIP3    H2 4662   7.871   1.449   6.368  1.0636 -0.4557  1.2011
 1569TIP3   OH2 4663   7.200   3.325   3.680  0.1453  0.6217 -0.4299
 1569TIP3    H1 4664   7.153   3.279   3.750 -0.4592  0.9783 -0.6010
 1569TIP3    H2 4665   7.239   3.255   3.627  0.6658  0.3468  0.2938
 1570TIP3   OH2 4666   6.118   4.345   3.045 -0.0999  0.0674  0.1093
 1570TIP3    H1 4667   6.172   4.389   2.978  1.1901 -1.8433 -0.1729
 1570TIP3    H2 4668   6.028   4.354   3.012  0.4360 -0.2187 -1.5303
 1571TIP3   OH2 4669   5.894  -0.009   5.829 -0.2698  0.0900  0.4656
 1571TIP3    H1 4670   5.963   0.009   5.893  2.1839 -0.7773 -1.7386
 1571TIP3    H2 4671   5.907   0.057   5.761 -1.8777  0.1019  0.1202
 1572TIP3   OH2 4672   3.861   2.540   6.686 -0.6849  0.2165  0.5676
 1572TIP3    H1 4673   3.913   2.503   6.757  0.9886  1.9501  0.3110
 1572TIP3    H2 4674   3.773   2.503   6.699  0.3465 -2.1434  1.5235
 1573TIP3   OH2 4675   8.164   7.372   4.044  0.1640 -0.1534 -0.3128
 1573TIP3    H1 4676   8.244   7.348   3.997  0.1855 -0.6190 -0.0406
 1573TIP3    H2 4677   8.093   7.347   3.985  0.1574 -1.6872  0.3071
 1574TIP3   OH2 4678   0.175   3.225   2.772 -0.1532 -0.0101  0.0540
 1574TIP3    H1 4679   0.091   3.186   2.749  0.3228 -1.4516  0.6941
 1574TIP3    H2 4680   0.217   3.161   2.829  1.4528  0.6260 -0.3730
 1575TIP3   OH2 4681   2.635   2.385   6.490  0.4595  0.0150 -0.5656
 1575TIP3    H1 4682   2.597   2.301   6.514  0.0669  0.1716 -0.6247
 1575TIP3    H2 4683   2.713   2.362   6.439  1.1096 -0.3142  0.5350
 1576TIP3   OH2 4684   7.262   3.514   2.148  0.2163  0.5361  0.0078
 1576TIP3    H1 4685   7.312   3.575   2.202  2.3850  0.5355 -1.8601
 1576TIP3    H2 4686   7.313   3.433   2.149  0.0470  0.3758 -1.5895
 1577TIP3   OH2 4687   7.849   1.952   0.584 -0.1908 -0.6549  0.7301
 1577TIP3    H1 4688   7.816   2.028   0.536 -0.4285 -1.3523 -0.2325
 1577TIP3    H2 4689   7.940   1.974   0.605 -0.8482  0.7598  2.3114
 1578TIP3   OH2 4690   6.882   6.032   1.844  0.2980 -0.2064 -0.0938
 1578TIP3    H1 4691   6.943   5.976   1.892 -0.4276  0.4975  1.7490
 1578TIP3    H2 4692   6.892   6.006   1.753  1.6925 -1.6697  0.4293
 1579TIP3   OH2 4693   6.027   3.333   5.488  0.3133 -0.0603 -0.2032
 1579TIP3    H1 4694   5.978   3.251   5.495 -0.7000  0.5934  0.7205
 1579TIP3    H2 4695   6.011   3.363   5.398 -0.5295 -0.1605 -0.1001
 1580TIP3   OH2 4696   5.857   7.734   4.123  0.3921  0.0851 -0.6361
 1580TIP3    H1 4697   5.913   7.810   4.114  0.8143 -0.2057 -0.4739
 1580TIP3    H2 4698   5.880   7.678   4.049  0.0308  0.1488 -0.7979
 1581TIP3   OH2 4699   7.714   5.297   1.195 -0.5490 -0.0528  0.1114
 1581TIP3    H1 4700   7.771   5.348   1.138 -0.4067  0.0844  0.3715
 1581TIP3    H2 4701   7.769   5.274   1.270 -0.3271 -1.4287 -0.4444
 1582TIP3   OH2 4702   2.841   3.421   2.508 -0.1822 -0.0337  0.6050
 1582TIP3    H1 4703   2.891   3.410   2.589  1.6762  2.4055 -0.0944
 1582TIP3    H2 4704   2.905   3.411   2.438 -1.4163 -0.4006 -0.5207
 1583TIP3   OH2 4705   4.585   2.792   3.718  0.0616 -0.4437 -0.3728
 1583TIP3    H1 4706   4.649   2.731   3.680  0.3700  0.5094 -1.4446
 1583TIP3    H2 4707   4.615   2.806   3.807  0.2634 -1.4780 -0.2640
 1584TIP3   OH2 4708   5.037   2.795   0.573  0.2855  0.1106 -0.3665
 1584TIP3    H1 4709   4.976   2.804   0.500  0.8961  0.3082 -0.8559
 1584TIP3    H2 4710   5.016   2.709   0.611 -0.6838  0.4212 -0.1602
 1585TIP3   OH2 4711   1.797   7.590   2.880 -0.3150 -0.1306  0.5539
 1585TIP3    H1 4712   1.775   7.596   2.787  0.1707 -0.9452  0.3828
 1585TIP3    H2 4713   1.811   7.681   2.907  0.4953  0.0427 -0.4095
 1586TIP3   OH2 4714   2.242   2.448   5.080 -0.0747  0.4765 -0.5491
 1586TIP3    H1 4715   2.240   2.361   5.040 -1.6710 -0.9872  2.3706
 1586TIP3    H2 4716   2.329   2.454   5.119 -1.1497 -1.7371  2.6773
 1587TIP3   OH2 4717   5.385   0.298   3.253  0.2294 -0.2233 -0.1174
 1587TIP3    H1 4718   5.401   0.351   3.174 -2.0612 -0.9689 -1.1629
 1587TIP3    H2 4719   5.291   0.302   3.266  0.6080  0.4508  3.0785
 1588TIP3   OH2 4720   2.607   3.240   3.650 -0.1270 -0.1389 -0.1487
 1588TIP3    H1 4721   2.698   3.223   3.676  0.0914 -1.2437 -1.4664
 1588TIP3    H2 4722   2.577   3.156   3.613 -1.4267  0.4293 -0.4443
 1589TIP3   OH2 4723   7.837   5.819   0.190  0.3191  0.3839  0.0902
 1589TIP3    H1 4724   7.837   5.778   0.103  1.8037  0.7175 -0.0919
 1589TIP3    H2 4725   7.745   5.827   0.212 -0.0706 -0.8936 -0.8960
 1590TIP3   OH2 4726   1.232   1.646   3.102  0.2894  0.1391  0.1677
 1590TIP3    H1 4727   1.298   1.632   3.170 -0.2257 -2.2191  0.2615
 1590TIP3    H2 4728   1.276   1.700   3.036  2.2382 -1.1063  0.3731
 1591TIP3   OH2 4729   4.170   4.993   3.586 -0.1671  0.4690 -0.1755
 1591TIP3    H1 4730   4.248   4.984   3.641 -0.6889 -0.4655  0.4210
 1591TIP3    H2 4731   4.152   5.087   3.585 -0.4128  0.4622  1.6178
 1592TIP3   OH2 4732   5.532   3.712   1.667  0.2276  0.0550 -0.9161
 1592TIP3    H1 4733   5.580   3.794   1.655  0.9462 -0.2799 -0.4503
 1592TIP3    H2 4734   5.592   3.657   1.717 -0.4063 -0.6120 -0.8734
 1593TIP3   OH2 4735   1.004   7.234   1.705  0.4492  0.3902  0.0607
 1593TIP3    H1 4736   0.911   7.212   1.709  0.7403 -0.7463  2.7349
 1593TIP3    H2 4737   1.045   7.158   1.665  0.2435  0.9472 -1.2438
 1594TIP3   OH2 4738   3.437   5.419   3.411  0.0583 -0.2942  0.5659
 1594TIP3    H1 4739   3.408   5.422   3.320 -2.6006  0.1745  1.3371
 1594TIP3    H2 4740   3.401   5.338   3.446  0.5478 -0.1810  1.3786
 1595TIP3   OH2 4741   4.612   2.088   3.729 -0.3183  0.3261 -0.2120
 1595TIP3    H1 4742   4.661   2.171   3.730  1.2959 -0.5568 -1.6986
 1595TIP3    H2 4743   4.565   2.090   3.646  1.4308 -1.1330 -1.3039
 1596TIP3   OH2 4744   1.111   2.894   2.995 -0.1389  0.0304  0.0173
 1596TIP3    H1 4745   1.185   2.832   2.997  0.3064  0.5801  1.5334
 1596TIP3    H2 4746   1.041   2.845   2.953  0.2555 -1.4607  0.9990
 1597TIP3   OH2 4747   1.638   2.998   1.456 -0.2124  0.0976  0.3335
 1597TIP3    H1 4748   1.667   3.052   1.529  0.3389 -0.3784  0.4694
 1597TIP3    H2 4749   1.656   2.908   1.483  0.7631 -0.0417 -0.7011
 1598TIP3   OH2 4750   6.534   5.752   0.596 -0.4772 -0.0151  0.3526
 1598TIP3    H1 4751   6.546   5.828   0.653 -0.3232  1.0375 -1.0207
 1598TIP3    H2 4752   6.608   5.694   0.617  2.2899  2.3787 -1.8056
 1599TIP3   OH2 4753   4.577   6.658   1.146  0.1684 -0.2610 -0.1802
 1599TIP3    H1 4754   4.644   6.631   1.209  2.6765  0.3678 -2.4110
 1599TIP3    H2 4755   4.625   6.707   1.079 -2.5396  0.1756 -1.9611
 1600TIP3   OH2 4756   1.524   4.294   2.997 -1.1709 -0.1832 -0.3582
 1600TIP3    H1 4757   1.533   4.339   3.080 -0.8130  0.9185 -0.9806
 1600TIP3    H2 4758   1.542   4.202   3.018 -0.0446  0.2262  0.5923
 1601TIP3   OH2 4759   0.025   0.713   3.223 -0.3293 -0.2350 -0.3188
 1601TIP3    H1 4760   0.106   0.761   3.242 -0.8068  0.2293  0.6184
 1601TIP3    H2 4761  -0.017   0.764   3.154 -0.0333 -0.2391 -0.5053
 1602TIP3   OH2 4762   4.639   3.943   3.571  0.1852 -0.2838  0.3364
 1602TIP3    H1 4763   4.548   3.932   3.601  0.5523 -1.8422  0.9582
 1602TIP3    H2 4764   4.666   3.855   3.544  1.2362  0.3266 -0.7098
 1603TIP3   OH2 4765   1.713   2.771   6.197  0.3770  0.7356  0.2717
 1603TIP3    H1 4766   1.804   2.802   6.192  0.0380  2.2517  2.3029
 1603TIP3    H2 4767   1.660   2.850   6.184 -0.6624 -0.0636 -0.4635
 1604TIP3   OH2 4768   0.548   4.367   3.485 -0.7192 -0.0892  0.8233
 1604TIP3    H1 4769   0.514   4.433   3.425 -1.0120 -0.7932  0.2035
 1604TIP3    H2 4770   0.619   4.412   3.531  0.9810 -0.1120 -1.5680
 1605TIP3   OH2 4771   5.651   5.865   2.643  0.1868 -0.2706 -0.9341
 1605TIP3    H1 4772   5.617   5.905   2.722  1.1209 -1.4506  0.1058
 1605TIP3    H2 4773   5.733   5.911   2.625  0.3123 -0.4505 -0.8260
 1606TIP3   OH2 4774   0.349   1.701   6.144 -0.0681 -0.0174  0.0463
 1606TIP3    H1 4775   0.258   1.715   6.171  0.3827 -0.1619  1.7923
 1606TIP3    H2 4776   0.389   1.788   6.146 -0.1469  0.0422 -0.6920
 1607TIP3   OH2 4777   4.775   3.656   0.508 -0.1838 -0.0099 -0.6281
 1607TIP3    H1 4778   4.857   3.607   0.507 -0.6579 -0.8587  0.3668
 1607TIP3    H2 4779   4.737   3.642   0.421  0.5232  0.0520 -0.9511
 1608TIP3   OH2 4780   4.220   4.894   0.080 -0.2019 -0.9968  0.3622
 1608TIP3    H1 4781   4.154   4.846   0.129 -1.0622  0.0425  0.2389
 1608TIP3    H2 4782   4.216   4.858  -0.009 -0.9686 -0.5901  0.2266
 1609TIP3   OH2 4783   6.214   0.875   3.345 -0.1452 -0.7093  0.4045
 1609TIP3    H1 4784   6.212   0.960   3.302  1.5245 -0.7391  0.2045
 1609TIP3    H2 4785   6.229   0.895   3.438 -1.1796 -0.7467  0.5901
 1610TIP3   OH2 4786   5.399   3.334   5.834 -0.1730 -0.6511 -0.9115
 1610TIP3    H1 4787   5.406   3.275   5.759  0.1020 -0.8283 -0.7466
 1610TIP3    H2 4788   5.484   3.327   5.878 -0.2430 -0.3513 -0.7306
 1611TIP3   OH2 4789   5.660   6.323   0.528 -0.1224 -0.3905  0.6450
 1611TIP3    H1 4790   5.717   6.385   0.573 -0.2761  1.7060 -1.8099
 1611TIP3    H2 4791   5.580   6.320   0.580  0.2056  0.8905  1.2473
 1612TIP3   OH2 4792   0.658   7.778   3.772 -0.0899  0.0367  0.5432
 1612TIP3    H1 4793   0.653   7.682   3.769 -2.4713  0.0585  1.3175
 1612TIP3    H2 4794   0.648   7.805   3.681  0.2234 -0.4235  0.3644
 1613TIP3   OH2 4795   6.369   6.967   4.725 -0.2428  0.4563  0.4858
 1613TIP3    H1 4796   6.285   6.973   4.771 -1.6767 -3.6278 -1.0964
 1613TIP3    H2 4797   6.432   6.943   4.793 -1.2091 -0.3016  1.1297
 1614TIP3   OH2 4798   7.426   6.009   2.327 -0.1306 -0.4960 -0.2233
 1614TIP3    H1 4799   7.414   5.923   2.367 -0.8711  0.3833  1.6102
 1614TIP3    H2 4800   7.351   6.019   2.268 -0.8208 -0.5755  0.6135
 1615TIP3   OH2 4801   4.161   7.742   0.724 -0.1417  0.1170 -0.1448
 1615TIP3    H1 4802   4.231   7.765   0.785  1.2020 -0.5662 -1.3681
 1615TIP3    H2 4803   4.184   7.788   0.643 -0.4115 -1.1185 -0.9431
 1616TIP3   OH2 4804   2.398   4.981   6.524  0.2921  1.0368 -0.0833
 1616TIP3    H1 4805   2.331   4.963   6.591 -0.4056  0.5229 -0.9076
 1616TIP3    H2 4806   2.376   5.069   6.492 -0.2335  0.7117 -0.6282
 1617TIP3   OH2 4807   4.163   3.008   1.114  0.2139 -0.1816  0.0025
 1617TIP3    H1 4808   4.222   3.070   1.158 -1.1808 -0.1696  2.0020
 1617TIP3    H2 4809   4.171   3.029   1.021  2.7791  0.2993  0.2555
 1618TIP3   OH2 4810   7.939   2.821   5.194 -0.4540 -0.2474 -0.2869
 1618TIP3    H1 4811   7.918   2.734   5.159 -1.3963 -0.5608  0.9824
 1618TIP3    H2 4812   8.029   2.815   5.225 -0.7574 -1.0248  0.4816
 1619TIP3   OH2 4813   8.092   0.940   1.302 -0.5321  0.0278 -0.0380
 1619TIP3    H1 4814   8.013   0.945   1.249  1.0760  0.5131 -2.5421
 1619TIP3    H2 4815   8.154   0.892   1.248  1.1088  0.1997  1.5946
 1620TIP3   OH2 4816   1.593   2.500   3.526 -0.3998  0.5232  0.5708
 1620TIP3    H1 4817   1.627   2.498   3.616  1.9906 -0.0214 -0.2949
 1620TIP3    H2 4818   1.612   2.589   3.495  3.6788 -0.6748 -1.0414
 1621TIP3   OH2 4819   2.317   7.435   6.635  0.2141  0.5440  0.0334
 1621TIP3    H1 4820   2.318   7.344   6.603 -1.4904  0.3603  0.3976
 1621TIP3    H2 4821   2.391   7.440   6.695  0.4649 -0.5491 -0.1591
 1622TIP3   OH2 4822   4.027   1.319   4.974  0.3450  0.4674  0.2062
 1622TIP3    H1 4823   4.004   1.410   4.957  0.0496  0.1492 -1.1433
 1622TIP3    H2 4824   4.076   1.291   4.897 -2.7176 -1.5894 -1.1878
 1623TIP3   OH2 4825   2.149   7.686   3.127  0.5306  0.5241 -0.0031
 1623TIP3    H1 4826   2.213   7.653   3.190  0.3959  1.9473  0.9064
 1623TIP3    H2 4827   2.094   7.610   3.108 -0.4909  0.4182  2.9035
 1624TIP3   OH2 4828   5.980   1.705   5.623 -0.2442 -0.6051  0.0901
 1624TIP3    H1 4829   6.051   1.714   5.687 -0.6640 -0.2812  0.5245
 1624TIP3    H2 4830   5.961   1.611   5.622 -0.1488 -0.6291  0.3493
 1625TIP3   OH2 4831   4.359   5.044   5.954 -0.0138  0.6899  0.4800
 1625TIP3    H1 4832   4.263   5.044   5.950 -0.2586  4.8040  1.9877
 1625TIP3    H2 4833   4.386   5.103   5.884  1.2803  1.0489  1.2628
 1626TIP3   OH2 4834   3.886   0.308   0.449  0.0131 -0.0879  0.0623
 1626TIP3    H1 4835   3.851   0.323   0.362  1.6658  0.5074 -0.5322
 1626TIP3    H2 4836   3.881   0.393   0.492 -1.7765 -0.5973  0.9665
 1627TIP3   OH2 4837   5.029   6.081   6.406 -0.1122 -0.1665  0.0596
 1627TIP3    H1 4838   5.068   5.994   6.402 -1.4157 -0.7713  0.0779
 1627TIP3    H2 4839   4.979   6.081   6.488  0.0758  0.6896  0.1825
 1628TIP3   OH2 4840   2.737   0.801   6.032  0.4498  0.2598  0.6071
 1628TIP3    H1 4841   2.772   0.712   6.029 -0.3020 -0.0922  1.6973
 1628TIP3    H2 4842   2.795   0.848   6.092  0.1524  0.1847  0.9531
 1629TIP3   OH2 4843   7.355   1.753   6.752  0.3686  0.3277 -0.0035
 1629TIP3    H1 4844   7.388   1.825   6.806  0.0978  0.3272  0.1618
 1629TIP3    H2 4845   7.408   1.757   6.672  1.1805 -0.0334  0.4959
 1630TIP3   OH2 4846   6.879   6.164   6.220  0.5525  0.1184  0.3577
 1630TIP3    H1 4847   6.850   6.254   6.205  1.6481  0.4625  0.2051
 1630TIP3    H2 4848   6.886   6.156   6.315 -2.3558 -0.7588  0.6140
 1631TIP3   OH2 4849   2.800   0.501   6.369 -0.6140  0.0032  0.0572
 1631TIP3    H1 4850   2.720   0.484   6.420  0.3276 -2.0033  0.9533
 1631TIP3    H2 4851   2.805   0.428   6.309  0.7505 -0.0920  0.2741
 1632TIP3   OH2 4852   1.217   3.730   5.552  0.1060  0.0503 -0.7069
 1632TIP3    H1 4853   1.236   3.703   5.462  0.1560  0.4530 -0.8219
 1632TIP3    H2 4854   1.139   3.680   5.576  0.7360 -0.8938 -0.5698
 1633TIP3   OH2 4855   6.606   3.405   5.968  0.3288  0.2101  0.0871
 1633TIP3    H1 4856   6.696   3.435   5.980  0.5657 -0.1729 -0.6780
 1633TIP3    H2 4857   6.606   3.362   5.883 -0.3391 -0.7188  0.5395
 1634TIP3   OH2 4858   5.055   6.709   1.544  0.1659 -0.3167 -0.1637
 1634TIP3    H1 4859   5.141   6.744   1.523 -0.1181 -0.4319 -1.5542
 1634TIP3    H2 4860   5.023   6.671   1.463 -0.8147 -1.1123  0.5632
 1635TIP3   OH2 4861   6.271   1.001   0.740 -0.7454  0.0904  0.1145
 1635TIP3    H1 4862   6.360   0.973   0.719 -0.3585 -0.1063  1.8604
 1635TIP3    H2 4863   6.215   0.936   0.698 -0.1093  0.3658 -1.2318
 1636TIP3   OH2 4864   8.155   7.535   1.243 -0.2381  0.0753 -0.2903
 1636TIP3    H1 4865   8.186   7.448   1.217 -0.0404  0.6126 -1.9662
 1636TIP3    H2 4866   8.219   7.595   1.207 -0.6018  0.9599  0.4902
 1637TIP3   OH2 4867   5.393   2.646   4.183 -0.3036 -0.5354 -0.6505
 1637TIP3    H1 4868   5.451   2.574   4.159  2.3135  0.3818  2.2970
 1637TIP3    H2 4869   5.348   2.617   4.262  0.8989  0.9862  0.6671
 1638TIP3   OH2 4870   5.889   0.689   1.182  0.4282 -0.4542 -0.3361
 1638TIP3    H1 4871   5.875   0.676   1.276 -1.7801 -0.1729 -0.5574
 1638TIP3    H2 4872   5.914   0.603   1.149  0.6824 -0.6805  0.4299
 1639TIP3   OH2 4873   5.733   0.628   6.271  0.5272 -0.1732 -0.2252
 1639TIP3    H1 4874   5.692   0.583   6.197  3.6171 -1.2583 -1.4104
 1639TIP3    H2 4875   5.775   0.705   6.231 -0.4546  1.0474  0.9889
 1640TIP3   OH2 4876   5.841   6.506   0.634 -0.3936 -0.5611  0.1105
 1640TIP3    H1 4877   5.780   6.525   0.705 -0.7273 -2.6800  0.4497
 1640TIP3    H2 4878   5.843   6.587   0.582 -3.2619 -0.2856  0.2509
 1641TIP3   OH2 4879   2.139   5.317   3.689 -0.0531  0.0664  0.1424
 1641TIP3    H1 4880   2.225   5.327   3.649 -0.3349  0.3186 -0.4077
 1641TIP3    H2 4881   2.087   5.388   3.652  0.0054  1.0623  1.8359
 1642TIP3   OH2 4882   0.689   0.812   5.665  0.5998  0.1377 -0.4866
 1642TIP3    H1 4883   0.692   0.717   5.670  0.4878  0.1888  0.9512
 1642TIP3    H2 4884   0.616   0.838   5.721  0.7991  1.0771 -0.6331
 1643TIP3   OH2 4885   4.215   6.108   5.342  0.1448 -0.3828  0.0105
 1643TIP3    H1 4886   4.293   6.164   5.339 -1.4608  2.2836  2.8407
 1643TIP3    H2 4887   4.214   6.074   5.432 -1.6934 -0.7977 -0.1335
 1644TIP3   OH2 4888   2.377   4.520   0.518 -0.0320 -0.4124  0.0696
 1644TIP3    H1 4889   2.427   4.456   0.466  0.0806  0.2886 -0.7102
 1644TIP3    H2 4890   2.286   4.507   0.491 -0.1421 -0.9503  0.6869
 1645TIP3   OH2 4891   4.477   2.289   4.449  0.2329  0.0415 -0.0086
 1645TIP3    H1 4892   4.498   2.202   4.416  1.1979  0.4705 -0.5603
 1645TIP3    H2 4893   4.561   2.336   4.451 -0.2325  0.8952  0.4822
 1646TIP3   OH2 4894   2.572   0.616   3.923  0.2120 -0.1389  0.2213
 1646TIP3    H1 4895   2.570   0.578   3.835  0.5648  0.0147  0.1455
 1646TIP3    H2 4896   2.661   0.650   3.933 -0.0183  0.4247  0.3887
 1647TIP3   OH2 4897   0.038   3.701   2.326  0.1767 -0.3852 -0.6018
 1647TIP3    H1 4898  -0.052   3.672   2.344 -0.1945  0.1505 -1.4997
 1647TIP3    H2 4899   0.074   3.631   2.271 -0.0401 -0.1072 -1.0989
 1648TIP3   OH2 4900   1.328   5.925   0.145 -0.6077 -0.3143  0.1301
 1648TIP3    H1 4901   1.408   5.874   0.135  0.7918  1.5447  1.0144
 1648TIP3    H2 4902   1.294   5.899   0.231 -0.3805 -0.4016  0.1950
 1649TIP3   OH2 4903   3.990   4.669   1.050  0.4703 -0.2291  0.2091
 1649TIP3    H1 4904   4.068   4.722   1.041  0.4233  0.0299  1.2090
 1649TIP3    H2 4905   4.022   4.583   1.076  0.3494  0.5285  3.1962
 1650TIP3   OH2 4906   8.042   6.529   0.871  0.5423 -0.1118  0.3616
 1650TIP3    H1 4907   7.952   6.546   0.899  0.0843  1.0567 -1.6328
 1650TIP3    H2 4908   8.065   6.446   0.913 -2.1816 -1.4553 -0.5841
 1651TIP3   OH2 4909   2.323   5.147   2.357  0.2006  0.0620 -0.0001
 1651TIP3    H1 4910   2.237   5.114   2.384  1.5756 -1.8903  2.4579
 1651TIP3    H2 4911   2.361   5.075   2.307  0.9157  0.3333  0.1495
 1652TIP3   OH2 4912   2.225   7.160   4.650 -0.6540 -0.0786 -0.0866
 1652TIP3    H1 4913   2.163   7.188   4.718 -0.2980 -1.2986  0.7792
 1652TIP3    H2 4914   2.257   7.242   4.611 -1.4598  0.6215  0.6786
 1653TIP3   OH2 4915   7.758   2.250   5.424 -0.5896  0.2594 -0.1425
 1653TIP3    H1 4916   7.760   2.154   5.430  0.6705  0.3163  0.9050
 1653TIP3    H2 4917   7.692   2.277   5.489  0.6510  0.1599  1.2091
 1654TIP3   OH2 4918   8.161   3.454   4.911 -0.2389 -0.4480 -0.1762
 1654TIP3    H1 4919   8.251   3.430   4.932  0.9473  1.9467 -2.0099
 1654TIP3    H2 4920   8.149   3.425   4.820  0.0817  2.4754 -1.2573
 1655TIP3   OH2 4921   7.249  -0.011   0.042  0.5223  0.1908  0.2504
 1655TIP3    H1 4922   7.229   0.082   0.043 -0.6818 -0.0001 -1.5674
 1655TIP3    H2 4923   7.169  -0.052   0.009  1.6082 -1.3208 -0.6429
 1656TIP3   OH2 4924   1.979   6.414   6.482  0.7436 -0.1474  0.3540
 1656TIP3    H1 4925   1.989   6.398   6.575  0.7300 -1.5828  0.1235
 1656TIP3    H2 4926   1.992   6.329   6.441 -1.4790  0.0028 -0.7988
 1657TIP3   OH2 4927   1.732   1.193   4.364  0.7174  0.7541  0.2023
 1657TIP3    H1 4928   1.679   1.264   4.401  0.6254  0.8730 -0.1542
 1657TIP3    H2 4929   1.669   1.139   4.317  0.9731  1.1622 -0.6347
 1658TIP3   OH2 4930   0.898   7.810   3.477 -0.2152  0.1799  0.1687
 1658TIP3    H1 4931   0.904   7.825   3.382  0.0224 -3.4050 -0.5455
 1658TIP3    H2 4932   0.804   7.807   3.494 -0.3061 -1.0715 -0.4119
 1659TIP3   OH2 4933   0.364   0.142   6.716  0.1811 -0.3945  0.2886
 1659TIP3    H1 4934   0.422   0.186   6.654 -1.6083 -0.2812 -1.4417
 1659TIP3    H2 4935   0.400   0.054   6.724  0.5637 -0.3620 -0.8357
 1660TIP3   OH2 4936   0.433   0.270   5.723  0.2913  0.0701  0.4369
 1660TIP3    H1 4937   0.495   0.200   5.700  0.4896 -0.0139  1.2158
 1660TIP3    H2 4938   0.358   0.255   5.665  1.3274  0.6920 -1.1597
 1661TIP3   OH2 4939   1.526   3.136   4.644  0.2748  0.1860  0.3479
 1661TIP3    H1 4940   1.614   3.120   4.678  1.1497  2.4868 -0.6495
 1661TIP3    H2 4941   1.469   3.082   4.699  1.8616  1.6493  3.6838
 1662TIP3   OH2 4942   4.568   4.501   1.280  0.1031  0.6459  0.0644
 1662TIP3    H1 4943   4.595   4.417   1.245 -2.0494  0.9830 -2.7317
 1662TIP3    H2 4944   4.483   4.518   1.240  0.0586  3.7586  1.1934
 1663TIP3   OH2 4945   7.263   2.864   0.511  0.3635  0.0067  0.0112
 1663TIP3    H1 4946   7.264   2.798   0.580  1.1302  1.0584  1.0456
 1663TIP3    H2 4947   7.317   2.935   0.545  1.6565  0.1181 -2.1121
 1664TIP3   OH2 4948   3.637   0.736   2.415  0.1794 -0.2347  0.1140
 1664TIP3    H1 4949   3.670   0.824   2.395 -1.6979  0.8681  1.5440
 1664TIP3    H2 4950   3.710   0.692   2.459  0.9903  0.7716 -0.1988
 1665TIP3   OH2 4951   0.535   3.264   4.078 -0.5402  0.1476 -0.1098
 1665TIP3    H1 4952   0.607   3.203   4.060 -1.1608 -1.1756  1.5750
 1665TIP3    H2 4953   0.575   3.350   4.078  1.1207 -0.5754  0.9490
 1666TIP3   OH2 4954   6.838   6.672   2.403  0.0344 -0.1632 -0.1289
 1666TIP3    H1 4955   6.809   6.748   2.454 -0.7193 -0.6134  0.1211
 1666TIP3    H2 4956   6.930   6.661   2.427 -0.3108 -0.3862  1.1621
 1667TIP3   OH2 4957   6.071   6.901   3.065 -0.4887 -0.1877 -0.3625
 1667TIP3    H1 4958   6.093   6.817   3.105  0.1219 -0.2124 -0.7328
 1667TIP3    H2 4959   6.010   6.878   2.994 -1.4935 -0.1537  0.4749
 1668TIP3   OH2 4960   7.694   2.739   3.574  0.0359 -0.0574 -0.5707
 1668TIP3    H1 4961   7.607   2.704   3.558  0.5471 -2.7657  1.7364
 1668TIP3    H2 4962   7.750   2.696   3.509 -0.2052  1.0735 -1.5416
 1669TIP3   OH2 4963   1.811   4.959   5.179 -0.1282  0.1839  0.2016
 1669TIP3    H1 4964   1.767   4.940   5.261  1.0257  1.5427  1.1763
 1669TIP3    H2 4965   1.776   5.044   5.151 -0.1707 -0.0436 -0.4659
 1670TIP3   OH2 4966   4.772   0.863   3.933 -0.5488 -0.4239  0.1864
 1670TIP3    H1 4967   4.730   0.779   3.955 -0.7941 -0.8683 -1.8026
 1670TIP3    H2 4968   4.699   0.924   3.923 -0.4735 -0.3264  0.2378
 1671TIP3   OH2 4969   8.260   4.346   6.341  0.4023  0.7185 -0.0084
 1671TIP3    H1 4970   8.300   4.307   6.419  1.9711 -1.9632 -1.9878
 1671TIP3    H2 4971   8.288   4.438   6.344  3.1588 -0.0568  0.9757
 1672TIP3   OH2 4972   6.757   6.789   6.016 -0.5518  0.1372 -0.0568
 1672TIP3    H1 4973   6.693   6.859   6.003  0.5290  1.2377  0.4184
 1672TIP3    H2 4974   6.779   6.760   5.928  0.1134  1.4443 -0.3389
 1673TIP3   OH2 4975   3.575   5.466   2.938  0.9037 -0.0715  0.1611
 1673TIP3    H1 4976   3.614   5.553   2.943  1.6170 -0.4294  1.1721
 1673TIP3    H2 4977   3.628   5.419   2.875  0.7722  0.0928 -0.0751
 1674TIP3   OH2 4978   3.471   3.543   0.767 -0.4367 -0.1479  0.2431
 1674TIP3    H1 4979   3.464   3.571   0.858 -2.0623  2.9338 -0.6775
 1674TIP3    H2 4980   3.405   3.595   0.720  0.9423 -0.9177 -2.8433
 1675TIP3   OH2 4981   6.145   6.250   4.989  0.3467  0.4984 -0.5181
 1675TIP3    H1 4982   6.051   6.244   5.001  0.4807 -2.2568 -0.2355
 1675TIP3    H2 4983   6.162   6.205   4.906  1.5393 -0.5578  0.2622
 1676TIP3   OH2 4984   6.791   4.060   5.919 -0.1980 -0.6426 -0.1993
 1676TIP3    H1 4985   6.823   4.138   5.873  0.2512 -1.4351 -1.2536
 1676TIP3    H2 4986   6.865   4.032   5.973 -0.5181 -0.0840  0.5583
 1677TIP3   OH2 4987   6.327   2.277   4.671 -0.2258  0.6327  0.2049
 1677TIP3    H1 4988   6.315   2.300   4.763 -0.6915  0.2736  0.2359
 1677TIP3    H2 4989   6.399   2.333   4.641  1.6671 -1.0170  1.4440
 1678TIP3   OH2 4990   0.804   6.801   0.993 -0.3429 -0.1760  0.1224
 1678TIP3    H1 4991   0.782   6.791   0.901  0.4763 -0.9967 -0.0009
 1678TIP3    H2 4992   0.760   6.881   1.020 -1.8994 -0.7656 -0.5749
 1679TIP3   OH2 4993   6.231   5.099   2.895 -0.0161  0.1014  0.6689
 1679TIP3    H1 4994   6.145   5.061   2.878  0.4731 -0.5606 -0.4955
 1679TIP3    H2 4995   6.213   5.178   2.946 -1.3166  0.0344  0.3570
 1680TIP3   OH2 4996   4.264   4.238   3.247  0.0518 -0.3723  0.0976
 1680TIP3    H1 4997   4.350   4.239   3.289  0.2088  0.1283 -0.2258
 1680TIP3    H2 4998   4.235   4.147   3.254  0.7234 -0.6044 -0.0298
 1681TIP3   OH2 4999   4.506   5.804   6.394  0.2146 -0.3205  0.6041
 1681TIP3    H1 5000   4.478   5.726   6.443  2.2688 -0.5702  1.5140
 1681TIP3    H2 5001   4.599   5.789   6.377  0.0201  0.7027 -1.6811
 1682TIP3   OH2 5002   4.083   1.544   3.673 -0.0479 -0.3939  0.3974
 1682TIP3    H1 5003   4.086   1.455   3.708  1.4180 -0.1427  0.9738
 1682TIP3    H2 5004   4.164   1.584   3.704 -0.5527  1.0509 -0.1084
 1683TIP3   OH2 5005   2.271   5.578   6.418  0.3376  0.6600 -0.0524
 1683TIP3    H1 5006   2.244   5.518   6.487  0.6301  0.7995  0.1911
 1683TIP3    H2 5007   2.263   5.665   6.457  1.0149  0.7105 -0.0084
 1684TIP3   OH2 5008   4.707   6.340   4.931  0.0708 -0.0406  0.1835
 1684TIP3    H1 5009   4.755   6.327   4.850  0.7573  1.1981  0.3729
 1684TIP3    H2 5010   4.768   6.386   4.988 -0.4527 -0.7578  1.3574
 1685TIP3   OH2 5011   1.061   4.448   1.609 -0.2554  0.0695 -0.4704
 1685TIP3    H1 5012   0.997   4.377   1.609 -1.1158  0.8316  0.2868
 1685TIP3    H2 5013   1.026   4.512   1.547 -1.2536  1.3616  1.3483
 1686TIP3   OH2 5014   4.720   6.821   4.831  0.4163  0.2434  0.1804
 1686TIP3    H1 5015   4.790   6.756   4.816  0.1135 -0.7011  2.5241
 1686TIP3    H2 5016   4.646   6.769   4.862 -1.4699  1.2070 -2.3308
 1687TIP3   OH2 5017   1.757   5.008   4.600 -0.0657 -0.1745 -0.8757
 1687TIP3    H1 5018   1.734   5.056   4.680  0.5836 -1.9220  0.4206
 1687TIP3    H2 5019   1.794   5.075   4.542 -2.4668  1.5370 -0.5784
 1688TIP3   OH2 5020   5.977   4.528   5.104 -0.1453 -0.5598  0.0241
 1688TIP3    H1 5021   5.918   4.459   5.071  1.2924 -2.8021  1.8635
 1688TIP3    H2 5022   6.065   4.493   5.091  0.6357  0.8076  1.3121
 1689TIP3   OH2 5023   3.340   6.337   1.241  0.2005  0.4797  0.2875
 1689TIP3    H1 5024   3.244   6.338   1.239  0.1673 -0.7470  0.2646
 1689TIP3    H2 5025   3.362   6.248   1.269  1.3340  0.8769  0.7003
 1690TIP3   OH2 5026   0.862   0.432   4.821 -0.3228 -0.0446  0.3173
 1690TIP3    H1 5027   0.843   0.342   4.797  0.0075 -0.5760  1.9115
 1690TIP3    H2 5028   0.782   0.481   4.800 -1.4054 -1.1694  1.6193
 1691TIP3   OH2 5029   6.517   6.883   2.308 -0.3900  0.0266  0.0908
 1691TIP3    H1 5030   6.600   6.895   2.353 -1.6566  0.7206  2.4145
 1691TIP3    H2 5031   6.528   6.802   2.258  1.6508  0.1117  0.3241
 1692TIP3   OH2 5032   1.839   7.632   3.263 -0.0096 -0.8109 -0.7539
 1692TIP3    H1 5033   1.826   7.720   3.228 -0.2526 -0.1960  0.7914
 1692TIP3    H2 5034   1.924   7.635   3.306 -0.5829 -0.9207  0.4259
 1693TIP3   OH2 5035   7.391   3.649   5.127  0.1892  0.3253 -0.7014
 1693TIP3    H1 5036   7.458   3.690   5.183  1.2304 -0.1338 -1.5689
 1693TIP3    H2 5037   7.440   3.615   5.053 -0.7742 -1.5731 -0.5268
 1694TIP3   OH2 5038   6.921   6.327   5.736 -0.0396  0.1080  0.2230
 1694TIP3    H1 5039   6.908   6.233   5.751  0.5485 -0.1145 -0.5870
 1694TIP3    H2 5040   6.837   6.366   5.760 -0.0368 -0.5194  1.3466
 1695TIP3   OH2 5041   5.293   2.027   6.535  0.5893 -0.0846 -0.5717
 1695TIP3    H1 5042   5.229   2.066   6.593  3.5378  3.1462  0.8573
 1695TIP3    H2 5043   5.347   1.971   6.592  1.3602  0.2948 -0.9067
 1696TIP3   OH2 5044   4.034   4.761   3.609 -0.1801  0.4225  0.2926
 1696TIP3    H1 5045   4.039   4.735   3.701  2.8101 -1.6204 -0.3267
 1696TIP3    H2 5046   4.076   4.847   3.606 -1.1312  0.9280  0.9262
 1697TIP3   OH2 5047   1.267   5.851   3.560  0.5626  0.1918 -0.1171
 1697TIP3    H1 5048   1.326   5.907   3.511  0.8116 -0.9998 -1.2456
 1697TIP3    H2 5049   1.212   5.810   3.493  1.1600 -1.7718  0.5355
 1698TIP3   OH2 5050   6.883   1.719   2.610 -0.6885 -0.4989  0.5484
 1698TIP3    H1 5051   6.978   1.706   2.612 -0.8009 -1.3218  0.7832
 1698TIP3    H2 5052   6.869   1.777   2.535 -0.0613 -0.9569  0.0589
 1699TIP3   OH2 5053   8.206   1.416   3.520 -0.7676 -0.3488  0.2327
 1699TIP3    H1 5054   8.263   1.369   3.458 -0.4154  0.4453 -0.0559
 1699TIP3    H2 5055   8.266   1.449   3.587 -0.5517  2.0662 -1.0227
 1700TIP3   OH2 5056   5.821   7.037   5.444  0.8190  0.2083 -0.0428
 1700TIP3    H1 5057   5.892   7.043   5.380  3.3002 -1.3243  2.3521
 1700TIP3    H2 5058   5.759   6.975   5.406  0.8998  1.2186 -1.9827
 1701TIP3   OH2 5059   7.163   4.875   1.049  0.2216 -0.4613  0.3469
 1701TIP3    H1 5060   7.196   4.905   1.133  1.2708 -2.5930  0.7730
 1701TIP3    H2 5061   7.158   4.954   0.995  2.0184  0.5758  1.6035
 1702TIP3   OH2 5062   2.418   0.635   0.247 -0.1252  0.0799 -0.2029
 1702TIP3    H1 5063   2.457   0.594   0.170 -0.5546  1.4344 -1.1794
 1702TIP3    H2 5064   2.381   0.717   0.215 -0.7033  0.4810  1.3702
 1703TIP3   OH2 5065   6.516   4.289   0.592 -0.0294 -0.1519  0.0511
 1703TIP3    H1 5066   6.478   4.375   0.610 -0.6728 -0.4386  0.0991
 1703TIP3    H2 5067   6.605   4.293   0.627 -0.0153  0.5336 -0.0587
 1704TIP3   OH2 5068   3.128   1.508   2.258 -0.0312 -0.2428 -0.3673
 1704TIP3    H1 5069   3.161   1.586   2.214  1.0408  0.2956  1.3043
 1704TIP3    H2 5070   3.147   1.436   2.197  1.8118  0.4066 -0.6085
 1705TIP3   OH2 5071   4.654   4.158   5.112 -0.2650  0.3412  0.4627
 1705TIP3    H1 5072   4.741   4.169   5.152 -1.2883 -0.2132  3.0523
 1705TIP3    H2 5073   4.604   4.109   5.177 -3.0422  2.0924 -0.1735
 1706TIP3   OH2 5074   4.802   4.241   6.554 -0.4803 -0.1521  0.2246
 1706TIP3    H1 5075   4.798   4.157   6.600 -0.1508 -0.1373  0.2832
 1706TIP3    H2 5076   4.819   4.217   6.463  0.2426 -0.1241  0.3496
 1707TIP3   OH2 5077   1.218   6.273   4.968  0.1574 -0.6960  0.5181
 1707TIP3    H1 5078   1.139   6.219   4.959  0.3854 -0.9472  0.0092
 1707TIP3    H2 5079   1.275   6.244   4.898 -0.0423  0.7911 -0.3070
 1708TIP3   OH2 5080   4.009   2.495   0.396 -0.4323 -0.2438  0.5922
 1708TIP3    H1 5081   3.921   2.461   0.379  0.2361 -1.4862 -0.5637
 1708TIP3    H2 5082   4.013   2.576   0.347 -0.1864 -1.3549 -1.3060
 1709TIP3   OH2 5083   5.742   3.197   0.327  0.6125 -0.0416  0.0081
 1709TIP3    H1 5084   5.695   3.202   0.243  2.2679 -0.2220 -0.9719
 1709TIP3    H2 5085   5.742   3.287   0.359  0.1760  0.0772 -0.3107
 1710TIP3   OH2 5086   5.758   5.580   4.793  0.6032  0.6600  0.1927
 1710TIP3    H1 5087   5.679   5.548   4.750  0.6007  1.5746 -0.5022
 1710TIP3    H2 5088   5.766   5.527   4.872 -0.1573 -0.1011 -0.2378
 1711TIP3   OH2 5089   6.469   2.124   6.185  0.1906  0.1641 -0.3901
 1711TIP3    H1 5090   6.397   2.076   6.142  0.1070 -0.4819  0.4461
 1711TIP3    H2 5091   6.542   2.117   6.124  0.5550 -2.0972  0.2079
 1712TIP3   OH2 5092   6.842   5.668   1.410 -0.2860 -0.1604 -0.4416
 1712TIP3    H1 5093   6.810   5.741   1.463  2.1688  0.1940  0.6931
 1712TIP3    H2 5094   6.766   5.642   1.358 -1.9143  1.6097  0.8657
 1713TIP3   OH2 5095   3.831   0.220   1.027 -0.0483  0.1111  0.5415
 1713TIP3    H1 5096   3.834   0.275   1.106 -0.6132  0.4968  0.2993
 1713TIP3    H2 5097   3.786   0.140   1.056 -1.4292  0.7720  0.3212
 1714TIP3   OH2 5098   7.099   3.673   6.427  0.4461 -0.1451 -0.0332
 1714TIP3    H1 5099   7.074   3.582   6.444  1.1338 -0.2923  0.2425
 1714TIP3    H2 5100   7.188   3.680   6.462  1.5929 -0.1899 -2.7032
 1715TIP3   OH2 5101   2.368   4.700   5.249  0.2955  0.3913  0.2356
 1715TIP3    H1 5102   2.450   4.695   5.298  0.2083  1.8339  0.5752
 1715TIP3    H2 5103   2.367   4.789   5.212 -0.9296  0.2710 -0.0750
 1716TIP3   OH2 5104   7.536   5.293   5.465 -0.1954 -0.0538 -0.0695
 1716TIP3    H1 5105   7.545   5.205   5.430  1.4100 -0.4284  1.1659
 1716TIP3    H2 5106   7.539   5.282   5.560 -1.4407  1.2107  0.1637
 1717TIP3   OH2 5107   3.916   0.303   6.501  0.2846  0.1872  0.3995
 1717TIP3    H1 5108   3.921   0.319   6.407  1.0012  0.1333  0.4286
 1717TIP3    H2 5109   3.919   0.208   6.510 -0.9046  0.1279  0.4210
 1718TIP3   OH2 5110   2.660   6.195   4.939  0.1050  0.0341  0.3481
 1718TIP3    H1 5111   2.573   6.181   4.903 -0.0123  0.6593  0.3760
 1718TIP3    H2 5112   2.648   6.195   5.034  0.1950 -0.2247  0.3617
 1719TIP3   OH2 5113   2.436   3.878   3.688  0.0522  0.1202 -0.1044
 1719TIP3    H1 5114   2.423   3.851   3.779 -0.7054  1.7458  0.3006
 1719TIP3    H2 5115   2.523   3.918   3.687  0.9071 -1.6386 -0.5690
 1720TIP3   OH2 5116   7.896   7.212   1.587 -0.4249 -0.6221 -0.1664
 1720TIP3    H1 5117   7.828   7.235   1.523  1.5899  1.2285 -1.7846
 1720TIP3    H2 5118   7.872   7.260   1.666 -1.1157 -0.1784 -0.6382
 1721TIP3   OH2 5119   6.016   6.168   3.882  0.1796 -0.5389 -0.0988
 1721TIP3    H1 5120   5.958   6.130   3.816  0.8249 -3.0789  0.7001
 1721TIP3    H2 5121   5.984   6.134   3.966  2.1486 -1.1784  0.4572
 1722TIP3   OH2 5122   7.757   4.605   0.334  0.0517  0.1258 -0.5465
 1722TIP3    H1 5123   7.815   4.680   0.323 -0.2082  0.3713 -0.2352
 1722TIP3    H2 5124   7.691   4.616   0.266 -0.2738  0.4498 -0.1808
 1723TIP3   OH2 5125   5.775   3.603   4.930  0.0515  0.3110  0.1532
 1723TIP3    H1 5126   5.860   3.579   4.966  0.0901  0.1139 -0.0617
 1723TIP3    H2 5127   5.788   3.689   4.891  0.5913 -0.3855 -1.3043
 1724TIP3   OH2 5128   8.170   0.649   5.229 -0.2357 -0.0132  0.1305
 1724TIP3    H1 5129   8.242   0.621   5.172  0.1569  1.5397 -0.1923
 1724TIP3    H2 5130   8.177   0.744   5.231 -1.4530  0.0822  1.2154
 1725TIP3   OH2 5131   7.276   6.963   5.160 -0.7666  0.2960 -0.5860
 1725TIP3    H1 5132   7.361   7.003   5.178 -0.2770 -0.1316 -1.8387
 1725TIP3    H2 5133   7.244   7.009   5.082 -0.2614 -1.5666 -1.9738
 1726TIP3   OH2 5134   6.213   7.743   0.589  0.3712 -0.0674 -0.7181
 1726TIP3    H1 5135   6.138   7.685   0.574  0.0146  0.2427 -0.1923
 1726TIP3    H2 5136   6.266   7.736   0.510 -1.4782  1.6143 -2.1986
 1727TIP3   OH2 5137   2.292   4.982   5.724  0.1156  0.5058 -0.4324
 1727TIP3    H1 5138   2.227   4.912   5.712 -1.1157  1.8133 -1.7888
 1727TIP3    H2 5139   2.241   5.063   5.720  1.5814  1.5313  0.5084
 1728TIP3   OH2 5140   5.525   5.207   3.443  0.4790 -0.1032  0.1379
 1728TIP3    H1 5141   5.500   5.263   3.370 -0.0465  0.7612  0.9547
 1728TIP3    H2 5142   5.614   5.236   3.466  0.8915 -0.7965 -0.5339
 1729TIP3   OH2 5143   1.056   7.569   5.296 -0.1538  1.2951  0.3611
 1729TIP3    H1 5144   1.044   7.504   5.227 -1.4083  0.8054  1.0114
 1729TIP3    H2 5145   0.969   7.579   5.335  0.3190  2.3191  1.1998
 1730TIP3   OH2 5146   1.698   3.822   1.828 -0.3992 -0.3906 -0.0349
 1730TIP3    H1 5147   1.701   3.739   1.780  1.8857 -2.2455  2.9423
 1730TIP3    H2 5148   1.768   3.874   1.789 -0.0236 -0.9755 -0.1585
 1731TIP3   OH2 5149   5.539   5.041   2.925  0.3115 -0.0762 -0.5765
 1731TIP3    H1 5150   5.551   4.990   2.844  2.8373 -1.4581  0.5698
 1731TIP3    H2 5151   5.620   5.090   2.935 -0.8234  1.7804  0.0626
 1732TIP3   OH2 5152   6.235   0.924   2.966 -0.4741  0.3257  0.5222
 1732TIP3    H1 5153   6.287   0.915   3.046 -0.4434  0.5716  0.5281
 1732TIP3    H2 5154   6.159   0.975   2.992 -0.7790 -0.1324  0.5393
 1733TIP3   OH2 5155   7.442   2.102   1.248  0.4332  0.4732 -0.0271
 1733TIP3    H1 5156   7.487   2.149   1.319 -0.3450 -0.2474  0.9839
 1733TIP3    H2 5157   7.488   2.019   1.241  0.9147  0.7981 -0.8319
 1734TIP3   OH2 5158   5.673   6.643   2.782 -0.0913 -0.0585 -0.0307
 1734TIP3    H1 5159   5.607   6.578   2.807 -0.4935  0.0230 -0.8542
 1734TIP3    H2 5160   5.672   6.706   2.855 -1.0806  0.0529 -0.1194
 1735TIP3   OH2 5161   3.184   2.668   0.726  0.1557 -0.0078  0.6486
 1735TIP3    H1 5162   3.261   2.645   0.778 -0.6361 -1.6628  1.1734
 1735TIP3    H2 5163   3.159   2.755   0.756  1.1645  0.0814  1.2677
 1736TIP3   OH2 5164   2.038   1.352   1.572  0.0438 -0.5584  0.5087
 1736TIP3    H1 5165   2.035   1.447   1.575 -0.2943 -0.5721  0.6671
 1736TIP3    H2 5166   2.057   1.331   1.480 -1.8276 -0.3733  0.0496
 1737TIP3   OH2 5167   1.127   1.313   5.208  0.0273 -0.0546  0.3473
 1737TIP3    H1 5168   1.221   1.312   5.192 -0.0548 -0.6949 -0.0999
 1737TIP3    H2 5169   1.092   1.375   5.143  0.1189  0.0718  0.4180
 1738TIP3   OH2 5170   0.603   1.400   4.407 -0.0500  0.4411 -0.0502
 1738TIP3    H1 5171   0.638   1.312   4.398 -0.7044  0.2272 -0.5671
 1738TIP3    H2 5172   0.674   1.457   4.377  0.4194  0.1072  0.4058
 1739TIP3   OH2 5173   0.875   7.263   5.073  0.1308  0.1566  0.0419
 1739TIP3    H1 5174   0.899   7.355   5.061  0.9079 -0.1213 -0.6567
 1739TIP3    H2 5175   0.843   7.258   5.163  0.6759  0.9917  0.2955
 1740TIP3   OH2 5176   4.600   5.788   3.668 -0.6086  0.2465  0.4248
 1740TIP3    H1 5177   4.559   5.857   3.616  0.5911  0.3416 -0.4320
 1740TIP3    H2 5178   4.563   5.799   3.756 -1.9784  0.6580 -0.1801
 1741TIP3   OH2 5179   1.602   1.572   3.290 -0.8331 -0.2439  0.2269
 1741TIP3    H1 5180   1.632   1.597   3.202  1.8499 -0.6888  0.9222
 1741TIP3    H2 5181   1.644   1.488   3.306 -0.1845  0.4466  2.4352
 1742TIP3   OH2 5182   2.078   3.722   0.493 -0.6551 -0.4039 -0.7364
 1742TIP3    H1 5183   2.093   3.634   0.530  0.5303  0.1968  0.2830
 1742TIP3    H2 5184   2.036   3.705   0.409  0.9090 -2.0194 -1.2457
 1743TIP3   OH2 5185   2.519   3.124   4.567  0.0572  0.2361  0.1596
 1743TIP3    H1 5186   2.516   3.075   4.485  0.5131 -0.4558  0.5496
 1743TIP3    H2 5187   2.514   3.216   4.540 -0.5548 -0.0109 -0.5905
 1744TIP3   OH2 5188   4.409   1.111   6.038 -0.2605  0.6370 -0.1015
 1744TIP3    H1 5189   4.425   1.108   5.943  0.6102  0.5174  0.0346
 1744TIP3    H2 5190   4.472   1.048   6.074 -0.4445  0.8369  0.5701
 1745TIP3   OH2 5191   1.263   0.699   4.088 -0.0172 -0.2625 -0.0749
 1745TIP3    H1 5192   1.211   0.640   4.142 -1.1838 -1.4286 -2.3073
 1745TIP3    H2 5193   1.346   0.655   4.076 -0.2686 -0.6671 -0.3537
 1746TIP3   OH2 5194   1.577   1.390   5.073 -0.3120  0.4739 -0.5143
 1746TIP3    H1 5195   1.645   1.431   5.127 -0.1970  0.8057 -0.9073
 1746TIP3    H2 5196   1.518   1.349   5.136 -0.1321  0.7825 -0.1404
 1747TIP3   OH2 5197   7.643   4.985   0.330  0.1165  0.2359 -0.4682
 1747TIP3    H1 5198   7.549   5.001   0.334  0.0804 -0.0740 -0.0301
 1747TIP3    H2 5199   7.682   5.062   0.371  0.1335  1.0925 -2.0235
 1748TIP3   OH2 5200   1.377   5.129   4.210 -0.3692 -0.0141 -0.3572
 1748TIP3    H1 5201   1.455   5.167   4.171 -0.2220  0.3612  0.2872
 1748TIP3    H2 5202   1.310   5.197   4.201 -0.3997 -0.0202 -0.1755
 1749TIP3   OH2 5203   5.371   1.093   0.708  0.3466  0.5251  0.5112
 1749TIP3    H1 5204   5.347   1.154   0.778 -0.2499  1.3676 -0.4060
 1749TIP3    H2 5205   5.467   1.092   0.710  0.3672  1.4478  0.5929
 1750TIP3   OH2 5206   8.169   4.233   3.970 -0.2080 -0.1634 -0.0792
 1750TIP3    H1 5207   8.114   4.155   3.970  1.1501 -1.1616 -0.5508
 1750TIP3    H2 5208   8.170   4.262   4.061 -1.6581  0.0115 -0.0974
 1751TIP3   OH2 5209   2.010   2.884   2.673  0.3398 -0.3087 -0.4812
 1751TIP3    H1 5210   2.024   2.979   2.681 -1.3091  0.0669 -1.5391
 1751TIP3    H2 5211   2.073   2.856   2.607  2.4381 -0.4291  1.4421
 1752TIP3   OH2 5212   2.541   0.282   6.318 -0.6272  0.2386 -0.4838
 1752TIP3    H1 5213   2.559   0.344   6.389 -0.2547 -0.1121 -0.2683
 1752TIP3    H2 5214   2.599   0.311   6.247 -0.0624 -0.1742 -0.2000
 1753TIP3   OH2 5215   6.598   6.330   1.885  0.6161  0.5265 -0.0849
 1753TIP3    H1 5216   6.628   6.286   1.805  0.6484  0.7118 -0.1746
 1753TIP3    H2 5217   6.653   6.409   1.891  0.1301  0.8812 -0.2634
 1754TIP3   OH2 5218   7.328   1.853   3.510 -0.1663 -0.0874  0.4779
 1754TIP3    H1 5219   7.288   1.853   3.597 -1.4050 -0.0805 -0.0602
 1754TIP3    H2 5220   7.253   1.860   3.450  0.6746  0.0878 -0.5776
 1755TIP3   OH2 5221   1.804   1.497   0.841  0.3901 -0.6831  0.0465
 1755TIP3    H1 5222   1.881   1.444   0.865 -0.7319 -2.2444  0.3926
 1755TIP3    H2 5223   1.840   1.581   0.815  2.2189 -1.3472  0.2610
 1756TIP3   OH2 5224   3.127   4.015   0.614 -0.2459 -0.1182 -0.2883
 1756TIP3    H1 5225   3.076   3.965   0.550 -0.5896 -0.9329  0.6010
 1756TIP3    H2 5226   3.093   4.104   0.607 -2.8003 -0.8626  1.1897
 1757TIP3   OH2 5227   4.407   7.075   0.310  0.1699 -0.4939  0.2961
 1757TIP3    H1 5228   4.393   7.089   0.404 -0.1364  2.6642 -0.0930
 1757TIP3    H2 5229   4.333   7.119   0.268  0.0348 -2.2844 -1.4494
 1758TIP3   OH2 5230   7.281   2.994   1.094 -0.2089 -0.5324  0.1545
 1758TIP3    H1 5231   7.306   2.905   1.070  1.2200 -0.1188 -0.0429
 1758TIP3    H2 5232   7.338   3.050   1.039 -1.5866  0.5133 -0.2785
 1759TIP3   OH2 5233   2.827   7.642   2.611  0.4322  0.2639  0.3639
 1759TIP3    H1 5234   2.767   7.620   2.682  0.6424  1.3445  0.8951
 1759TIP3    H2 5235   2.842   7.559   2.566  1.0063 -0.6182  2.1258
 1760TIP3   OH2 5236   6.173   2.923   0.186  0.3853 -0.7325  0.5252
 1760TIP3    H1 5237   6.094   2.880   0.152  0.5815  0.2516 -1.2869
 1760TIP3    H2 5238   6.241   2.855   0.181  0.4820 -0.5377 -1.4511
 1761TIP3   OH2 5239   3.112   2.987   0.326 -0.3559 -0.1835  0.1649
 1761TIP3    H1 5240   3.117   3.075   0.288 -0.5703  0.1158  0.8156
 1761TIP3    H2 5241   3.167   2.933   0.268 -0.0422  0.4207 -0.1129
 1762TIP3   OH2 5242   1.678   2.010   6.314 -0.1472 -0.2444  0.2296
 1762TIP3    H1 5243   1.741   1.968   6.255 -0.3533 -2.1127  1.2418
 1762TIP3    H2 5244   1.686   1.960   6.396 -2.7118 -0.3440  0.4941
 1763TIP3   OH2 5245   6.574   4.403   4.207 -0.0078 -0.0389 -0.1645
 1763TIP3    H1 5246   6.551   4.359   4.289 -1.5844 -1.5669 -1.3431
 1763TIP3    H2 5247   6.667   4.421   4.215 -0.3283  0.9254  2.4213
 1764TIP3   OH2 5248   5.845   3.422   1.978  0.3262 -0.6418 -0.1366
 1764TIP3    H1 5249   5.812   3.358   2.041 -0.0813 -0.5090 -0.2137
 1764TIP3    H2 5250   5.898   3.370   1.917 -0.1514 -0.9379 -0.3052
 1765TIP3   OH2 5251   3.016   0.607   1.267 -0.2621  0.2907 -0.1917
 1765TIP3    H1 5252   2.986   0.635   1.354 -1.4669 -1.7294  0.0972
 1765TIP3    H2 5253   3.110   0.591   1.279  0.1159  2.3867  0.0546
 1766TIP3   OH2 5254   7.430   1.071   6.033  0.2446 -0.0861 -0.2870
 1766TIP3    H1 5255   7.485   1.093   5.957  1.6861 -1.5084  0.3029
 1766TIP3    H2 5256   7.492   1.048   6.102 -1.0904 -1.2052  0.5841
 1767TIP3   OH2 5257   7.966   1.486   0.887  0.0539  0.2346  0.2583
 1767TIP3    H1 5258   7.943   1.398   0.917 -1.1839  0.2886 -0.4643
 1767TIP3    H2 5259   8.029   1.470   0.816  2.7771  0.1020  2.4954
 1768TIP3   OH2 5260   1.889   4.468   2.596  0.1560 -0.5787  0.0814
 1768TIP3    H1 5261   1.954   4.400   2.575  0.0728 -0.5834 -0.1682
 1768TIP3    H2 5262   1.835   4.429   2.664 -0.7038 -1.2748 -0.9741
 1769TIP3   OH2 5263   7.284   4.124   1.754 -0.2244  0.2031 -0.7779
 1769TIP3    H1 5264   7.206   4.124   1.809 -0.8700  1.1711 -1.6500
 1769TIP3    H2 5265   7.353   4.158   1.810 -0.7440  0.6647 -0.4070
 1770TIP3   OH2 5266   1.327   2.050   5.604  0.0940  0.1096 -0.6178
 1770TIP3    H1 5267   1.340   2.075   5.513  1.2869 -0.9417 -0.7750
 1770TIP3    H2 5268   1.398   1.988   5.622 -0.6480 -0.3868  0.7626
 1771TIP3   OH2 5269   2.752   3.188   2.864 -0.1563 -0.0034  0.0276
 1771TIP3    H1 5270   2.843   3.218   2.863 -0.1796  0.2806  1.8631
 1771TIP3    H2 5271   2.754   3.103   2.820  0.5684  1.0065 -1.9714
 1772TIP3   OH2 5272   4.192   3.220   1.846 -0.4517  0.1981 -0.4929
 1772TIP3    H1 5273   4.100   3.204   1.828 -0.8867  1.2883  0.7153
 1772TIP3    H2 5274   4.229   3.132   1.859 -1.3531 -0.2312 -0.7624
 1773TIP3   OH2 5275   8.084   0.093   1.894 -0.3815  0.4921  0.4522
 1773TIP3    H1 5276   8.008   0.136   1.934 -0.1470 -0.0308  1.4774
 1773TIP3    H2 5277   8.049   0.055   1.814 -0.4962  3.0061 -0.8105
 1774TIP3   OH2 5278   7.865   6.813   4.746 -0.0252  0.0160  0.2666
 1774TIP3    H1 5279   7.818   6.761   4.812 -0.6171 -0.6213 -0.6185
 1774TIP3    H2 5280   7.879   6.751   4.674 -0.5273  1.0173 -0.7144
 1775TIP3   OH2 5281   7.503   0.108   5.358  0.0795 -0.4515 -0.5040
 1775TIP3    H1 5282   7.552   0.107   5.276  0.4819 -1.8608 -0.2694
 1775TIP3    H2 5283   7.570   0.108   5.426 -0.1509 -3.0866 -0.1700
 1776TIP3   OH2 5284   2.155   0.442   0.172  0.2645  0.1216 -0.6658
 1776TIP3    H1 5285   2.133   0.437   0.265 -0.7846 -0.8612 -0.9403
 1776TIP3    H2 5286   2.238   0.395   0.165  0.6368  0.6723 -0.1663
 1777TIP3   OH2 5287   1.054   5.721   6.541 -0.5185  0.0156  0.6483
 1777TIP3    H1 5288   0.999   5.795   6.515  0.1159 -0.1574 -1.2698
 1777TIP3    H2 5289   0.992   5.649   6.557 -0.9619  0.3007  0.2090
 1778TIP3   OH2 5290   6.995   5.938   3.441 -0.1107 -0.0818  0.3967
 1778TIP3    H1 5291   7.005   5.847   3.471  0.8893  0.0689  0.5441
 1778TIP3    H2 5292   6.923   5.934   3.378 -0.5425 -0.8538  0.9043
 1779TIP3   OH2 5293   2.177   6.751   5.630 -0.0250  1.1108  0.4859
 1779TIP3    H1 5294   2.149   6.726   5.542 -0.4585  1.4157  0.5363
 1779TIP3    H2 5295   2.270   6.727   5.633 -0.0458  0.9625 -0.0034
 1780TIP3   OH2 5296   8.035   4.993   3.992  0.1608  0.3326 -0.3955
 1780TIP3    H1 5297   7.963   5.045   3.957 -0.2606  0.6302  0.8793
 1780TIP3    H2 5298   8.094   5.057   4.032  0.8440  0.0378 -0.9157
 1781TIP3   OH2 5299   7.181   2.475   1.819  0.0909  0.1158  0.2230
 1781TIP3    H1 5300   7.258   2.498   1.871  0.1452 -0.1866  0.2791
 1781TIP3    H2 5301   7.122   2.550   1.829  0.5202  0.4982 -0.0998
 1782TIP3   OH2 5302   1.573   1.649   3.027 -0.3914  0.2019  0.2082
 1782TIP3    H1 5303   1.534   1.562   3.036  2.9090 -1.1751  3.8483
 1782TIP3    H2 5304   1.636   1.640   2.956 -2.0938  0.6363 -1.4471
 1783TIP3   OH2 5305   5.099   0.104   4.617  0.7186 -0.5931 -0.1123
 1783TIP3    H1 5306   5.095   0.158   4.695  1.3553  0.1071 -0.5576
 1783TIP3    H2 5307   5.172   0.139   4.566 -1.7459  1.2975 -2.6979
 1784TIP3   OH2 5308   5.476   0.139   2.902  0.0115  0.2417  0.2101
 1784TIP3    H1 5309   5.557   0.134   2.853 -0.3442  0.1909 -0.3778
 1784TIP3    H2 5310   5.411   0.095   2.847  0.0032 -1.5709  1.5449
 1785TIP3   OH2 5311   4.600   5.322   6.572  0.1280 -0.3997 -0.0056
 1785TIP3    H1 5312   4.530   5.284   6.625  0.8957 -2.4591 -0.3467
 1785TIP3    H2 5313   4.650   5.246   6.541  2.3763  0.9785  0.0321
 1786TIP3   OH2 5314   3.189   7.425   3.264 -0.1802  0.4815 -0.5287
 1786TIP3    H1 5315   3.129   7.388   3.198  0.0801  0.2280 -0.6266
 1786TIP3    H2 5316   3.185   7.363   3.337 -1.1599  1.2323  0.0765
 1787TIP3   OH2 5317   2.012   0.998   2.073 -0.4427  0.4171 -0.6313
 1787TIP3    H1 5318   1.923   0.997   2.107 -0.2621 -1.3085 -0.1439
 1787TIP3    H2 5319   2.059   1.060   2.130 -0.1713 -2.2615  2.3302
 1788TIP3   OH2 5320   7.961   0.296   4.631 -0.3983 -0.0582 -0.0211
 1788TIP3    H1 5321   8.009   0.255   4.559 -0.6293 -0.9108  0.3012
 1788TIP3    H2 5322   7.886   0.339   4.588  1.4275  2.6753 -0.7389
 1789TIP3   OH2 5323   6.196   5.370   2.651  0.5496  0.0641 -0.3791
 1789TIP3    H1 5324   6.148   5.287   2.660  3.3902 -1.7436 -0.4148
 1789TIP3    H2 5325   6.224   5.372   2.560 -1.3185  2.2879 -0.9958
 1790TIP3   OH2 5326   1.618   7.038   2.773 -0.6772  0.0727  0.0292
 1790TIP3    H1 5327   1.622   6.992   2.689  0.2136  0.7527 -0.3073
 1790TIP3    H2 5328   1.539   7.092   2.766 -1.0244 -0.4312 -0.0642
 1791TIP3   OH2 5329   5.132   5.777   5.508 -0.1357  0.0040 -0.4877
 1791TIP3    H1 5330   5.084   5.764   5.590  1.3713 -0.7364  0.3330
 1791TIP3    H2 5331   5.096   5.711   5.448 -0.9251  0.2419 -0.2823
 1792TIP3   OH2 5332   3.829   0.512   3.520 -0.7548 -0.0376 -0.3109
 1792TIP3    H1 5333   3.804   0.602   3.542  0.0072 -0.1916  1.2864
 1792TIP3    H2 5334   3.915   0.501   3.560 -0.2846 -1.0960 -1.5489
 1793TIP3   OH2 5335   3.138   1.014   4.357 -0.3385  0.3461  0.1729
 1793TIP3    H1 5336   3.167   1.008   4.448  1.3452  0.5573 -0.3215
 1793TIP3    H2 5337   3.216   0.995   4.305 -1.1109  0.8471 -1.2339
 1794TIP3   OH2 5338   0.615   2.564   4.924  0.2670 -0.4656 -0.4261
 1794TIP3    H1 5339   0.544   2.524   4.974 -0.6845 -0.0145 -1.3596
 1794TIP3    H2 5340   0.651   2.632   4.982 -0.1004 -0.6644  0.0373
 1795TIP3   OH2 5341   7.211   4.378   1.128  0.1649  0.3687 -0.0066
 1795TIP3    H1 5342   7.286   4.398   1.183 -0.8118  0.0280  1.5102
 1795TIP3    H2 5343   7.161   4.460   1.124 -0.7144 -0.0905  1.1757
 1796TIP3   OH2 5344   7.269   6.055   6.678 -0.4225 -0.2057  0.2531
 1796TIP3    H1 5345   7.239   5.971   6.645 -0.4923 -0.4001  0.8115
 1796TIP3    H2 5346   7.215   6.119   6.631  0.1342 -0.4218 -0.7220
 1797TIP3   OH2 5347   3.441   5.490   0.753 -0.1971 -0.2874 -0.7683
 1797TIP3    H1 5348   3.460   5.413   0.807 -1.6231 -0.5097 -0.5502
 1797TIP3    H2 5349   3.366   5.532   0.796 -0.6066  0.1978 -1.9121
 1798TIP3   OH2 5350   7.551   4.053   2.192 -0.5308  0.3523 -0.8860
 1798TIP3    H1 5351   7.547   4.147   2.208 -0.7549  0.3837 -1.1224
 1798TIP3    H2 5352   7.610   4.020   2.260 -0.4301  0.6654 -0.8177
 1799TIP3   OH2 5353   2.925   2.552   1.414  0.3046  0.3270  0.4510
 1799TIP3    H1 5354   2.936   2.618   1.345  0.8017  1.4747  1.5917
 1799TIP3    H2 5355   3.011   2.546   1.455  0.8928 -2.6188 -0.9334
 1800TIP3   OH2 5356   3.093   4.349   1.290 -0.0037 -1.0846 -0.4097
 1800TIP3    H1 5357   3.102   4.296   1.370 -1.0455 -0.2052  0.3189
 1800TIP3    H2 5358   3.180   4.386   1.277  1.2778 -4.3307 -1.9811
 1801TIP3   OH2 5359   4.477   0.358   6.349  0.6019  0.3616  0.2524
 1801TIP3    H1 5360   4.436   0.444   6.339 -2.7347 -1.1062  0.0170
 1801TIP3    H2 5361   4.495   0.351   6.443 -1.4584  0.4293  0.7025
 1802TIP3   OH2 5362   0.127   4.255   6.553  0.1576 -0.1346  0.2408
 1802TIP3    H1 5363   0.143   4.312   6.628 -1.5878  2.1906 -1.0373
 1802TIP3    H2 5364   0.061   4.193   6.584 -1.2195  1.3675  0.4229
 1803TIP3   OH2 5365   0.052   1.630   5.822 -0.0965  0.1318 -0.3726
 1803TIP3    H1 5366   0.113   1.701   5.802 -0.7173  1.0175  0.7766
 1803TIP3    H2 5367   0.106   1.564   5.867  0.4937 -0.1837 -1.4994
 1804TIP3   OH2 5368   7.693   5.585   1.414 -0.0391 -0.4447 -0.0524
 1804TIP3    H1 5369   7.690   5.630   1.498  1.9337 -1.1970  0.5007
 1804TIP3    H2 5370   7.693   5.492   1.437 -1.0064 -0.6918 -0.9915
 1805TIP3   OH2 5371   2.449   6.090   4.248 -0.4608  0.0584  0.6754
 1805TIP3    H1 5372   2.534   6.078   4.205 -1.3967  0.2785 -1.2988
 1805TIP3    H2 5373   2.455   6.176   4.290 -0.1664  0.6657 -0.5806
 1806TIP3   OH2 5374   7.377   7.600   4.651 -0.2286 -0.3236 -0.0062
 1806TIP3    H1 5375   7.285   7.590   4.627 -0.0258  0.0545 -0.9872
 1806TIP3    H2 5376   7.424   7.591   4.568  0.5309  0.7004  0.3064
 1807TIP3   OH2 5377   2.765   6.552   0.617  0.2880 -0.5308 -0.0179
 1807TIP3    H1 5378   2.741   6.526   0.706 -1.7656 -2.3800 -1.0051
 1807TIP3    H2 5379   2.716   6.492   0.561  0.8594  1.1162 -2.4349
 1808TIP3   OH2 5380   2.245   5.725   0.170  0.0975 -0.0490  0.3076
 1808TIP3    H1 5381   2.311   5.658   0.187 -0.0544 -0.4923 -0.8138
 1808TIP3    H2 5382   2.260   5.751   0.079  0.7785  2.1455  0.9786
 1809TIP3   OH2 5383   2.870   4.973   6.310  0.2864 -0.0564 -0.3547
 1809TIP3    H1 5384   2.833   4.885   6.313  0.2904 -0.0836 -1.0400
 1809TIP3    H2 5385   2.849   5.006   6.223 -0.0616  0.7803  0.0346
 1810TIP3   OH2 5386   6.658   0.771   6.164 -0.1944 -0.2794  0.1724
 1810TIP3    H1 5387   6.733   0.820   6.132 -0.0073 -0.8319 -0.2670
 1810TIP3    H2 5388   6.635   0.812   6.247  0.8587 -0.3687  0.5181
 1811TIP3   OH2 5389   3.518   7.280   1.544 -0.6086  0.6340 -0.0492
 1811TIP3    H1 5390   3.522   7.365   1.586 -1.5955  0.5776  0.1679
 1811TIP3    H2 5391   3.455   7.230   1.595  0.7364 -0.5991  0.4672
 1812TIP3   OH2 5392   6.443   6.944   3.273 -0.3118 -0.1618  0.4575
 1812TIP3    H1 5393   6.447   6.866   3.218 -0.1830  0.2502 -0.1394
 1812TIP3    H2 5394   6.350   6.955   3.294 -0.3662 -0.3053  0.2918
 1813TIP3   OH2 5395   0.522   1.940   6.223  0.3873 -0.0064 -0.0933
 1813TIP3    H1 5396   0.491   1.935   6.314  0.7617  0.3509  0.0556
 1813TIP3    H2 5397   0.504   2.030   6.197  0.8999  0.0793 -0.1502
 1814TIP3   OH2 5398   1.830   2.739   5.056  0.0586  0.3637 -0.0645
 1814TIP3    H1 5399   1.884   2.662   5.040  0.5527  0.7811 -0.4510
 1814TIP3    H2 5400   1.873   2.784   5.129  0.4915  0.9225 -0.6541
 1815TIP3   OH2 5401   4.701   4.791   4.791 -0.2563 -0.3728  0.2458
 1815TIP3    H1 5402   4.657   4.857   4.737 -0.9992 -1.7531 -0.9088
 1815TIP3    H2 5403   4.794   4.799   4.767  0.2394  2.4694  2.6113
 1816TIP3   OH2 5404   3.485   0.381   1.880 -0.4853 -0.0229 -0.1618
 1816TIP3    H1 5405   3.429   0.312   1.843  0.2707 -0.1070 -1.2065
 1816TIP3    H2 5406   3.573   0.344   1.877  0.3359  1.8152 -3.0631
 1817TIP3   OH2 5407   2.364   4.452   3.260  0.5595 -0.0374  0.1430
 1817TIP3    H1 5408   2.313   4.531   3.241 -2.0419 -1.5273  0.5143
 1817TIP3    H2 5409   2.338   4.427   3.349  2.6066 -0.4434  0.6800
 1818TIP3   OH2 5410   7.749   1.504   1.088 -0.0161  0.0817 -0.1504
 1818TIP3    H1 5411   7.843   1.523   1.085  0.5824 -2.1172  1.6934
 1818TIP3    H2 5412   7.709   1.586   1.116  1.5792  0.5581  0.9112
 1819TIP3   OH2 5413   4.444   6.642   3.476  0.1094  0.3797 -0.3139
 1819TIP3    H1 5414   4.381   6.703   3.514 -1.0029 -0.2202 -1.1354
 1819TIP3    H2 5415   4.436   6.656   3.381  0.2257 -0.6567 -0.4850
 1820TIP3   OH2 5416   4.669   2.657   2.017  0.0623  0.2684  0.1945
 1820TIP3    H1 5417   4.607   2.700   2.075 -1.4758  0.7251 -1.6901
 1820TIP3    H2 5418   4.617   2.594   1.968  0.6790  1.7195 -2.5328
 1821TIP3   OH2 5419   0.966   0.505   3.933  0.0723  0.2371 -0.3565
 1821TIP3    H1 5420   0.977   0.448   3.857  0.5617 -0.3813  0.1750
 1821TIP3    H2 5421   1.027   0.472   3.998 -0.5793  0.5469  0.4410
 1822TIP3   OH2 5422   2.551   2.202   1.028  0.4945 -0.1967  0.6678
 1822TIP3    H1 5423   2.548   2.132   0.962  0.1497 -0.8587  1.3794
 1822TIP3    H2 5424   2.560   2.157   1.111  0.9636  0.6419  1.0865
 1823TIP3   OH2 5425   6.757   6.676   0.667  0.5136  0.4770  0.3223
 1823TIP3    H1 5426   6.829   6.639   0.718  0.9232  0.1480 -0.4717
 1823TIP3    H2 5427   6.720   6.743   0.723 -1.3212 -2.1680  2.5625
 1824TIP3   OH2 5428   1.577   0.284   2.868  0.3905 -0.3964  0.6278
 1824TIP3    H1 5429   1.664   0.273   2.905  0.4938  0.4901  0.6782
 1824TIP3    H2 5430   1.558   0.201   2.825  0.8334 -0.9485  1.4937
 1825TIP3   OH2 5431   7.300   3.948   3.955 -0.8948  0.8873  0.5174
 1825TIP3    H1 5432   7.341   4.034   3.949 -0.5689  0.7322  0.4363
 1825TIP3    H2 5433   7.276   3.926   3.864  1.6454 -0.3307  0.0401
 1826TIP3   OH2 5434   0.780   1.878   2.469  0.1498 -0.1230 -0.0373
 1826TIP3    H1 5435   0.824   1.963   2.474  0.3696 -0.1224 -1.5421
 1826TIP3    H2 5436   0.818   1.836   2.392  1.7487 -2.5803  1.9145
 1827TIP3   OH2 5437   4.535   5.650  -0.002 -0.1430 -0.8123 -0.4477
 1827TIP3    H1 5438   4.551   5.593   0.073  1.5125  0.9219  0.5879
 1827TIP3    H2 5439   4.610   5.636  -0.060 -0.0537 -0.1691 -0.4970
 1828TIP3   OH2 5440   3.704   6.025   6.769  0.3144  0.6004  0.3577
 1828TIP3    H1 5441   3.777   6.085   6.785 -0.3420  0.9416  2.4423
 1828TIP3    H2 5442   3.707   6.008   6.675  1.3514  2.8269 -0.0885
 1829TIP3   OH2 5443   1.833   3.613   4.618 -0.0136 -0.5561 -0.2662
 1829TIP3    H1 5444   1.905   3.553   4.598 -0.1810 -0.6210 -0.6782
 1829TIP3    H2 5445   1.860   3.697   4.582 -1.2725 -1.1553 -2.8641
 1830TIP3   OH2 5446   6.653   5.342   0.421 -0.1063 -1.0885 -0.2832
 1830TIP3    H1 5447   6.560   5.365   0.415 -0.2637 -1.2479  1.0545
 1830TIP3    H2 5448   6.658   5.253   0.387 -0.6370 -1.4646  0.5891
 1831TIP3   OH2 5449   6.172  -0.018   3.746  0.1968  0.4241 -0.4276
 1831TIP3    H1 5450   6.264  -0.027   3.768  0.6571 -0.9038 -2.5916
 1831TIP3    H2 5451   6.170   0.051   3.679  0.2045 -1.8537 -2.9562
 1832TIP3   OH2 5452   3.448   3.915   0.042 -0.2805  0.0231  0.1588
 1832TIP3    H1 5453   3.514   3.935  -0.024 -0.9794  0.1944 -0.4875
 1832TIP3    H2 5454   3.490   3.937   0.125  0.8299 -0.7762 -0.1698
 1833TIP3   OH2 5455   1.842   5.107   2.563 -0.1314 -0.1733 -0.1502
 1833TIP3    H1 5456   1.788   5.184   2.545  0.8470  0.5944  0.0654
 1833TIP3    H2 5457   1.915   5.141   2.614  0.2391 -1.2863  0.0921
 1834TIP3   OH2 5458   7.841   3.963   2.164  0.4603 -0.0851  0.1106
 1834TIP3    H1 5459   7.879   3.876   2.176  1.7516  0.3720 -0.4770
 1834TIP3    H2 5460   7.813   3.990   2.251  0.9001 -0.7185  0.4497
 1835TIP3   OH2 5461   7.399   2.220   3.187  0.0345 -0.3367 -0.1490
 1835TIP3    H1 5462   7.480   2.177   3.213  0.0877  0.8005  1.7425
 1835TIP3    H2 5463   7.417   2.253   3.099  2.1201  0.9727  0.6967
 1836TIP3   OH2 5464   5.802   0.778   5.692 -0.1029 -0.0055  0.2320
 1836TIP3    H1 5465   5.864   0.839   5.731  0.7726 -0.6893 -0.0691
 1836TIP3    H2 5466   5.825   0.776   5.599 -0.6093 -0.2230  0.1068
 1837TIP3   OH2 5467   4.131   2.831   1.484 -0.7976  0.0425  0.1499
 1837TIP3    H1 5468   4.148   2.737   1.484  0.7020  0.2570  1.5853
 1837TIP3    H2 5469   4.116   2.852   1.576  0.3215  1.4037  0.0555
 1838TIP3   OH2 5470   5.578   4.159   6.020 -0.1384 -0.3777 -0.3656
 1838TIP3    H1 5471   5.547   4.231   5.964  0.5949  0.5015  0.3360
 1838TIP3    H2 5472   5.577   4.082   5.963  1.1077  0.5976 -1.7557
 1839TIP3   OH2 5473   0.767   6.111   0.944  0.1991 -0.2592 -0.4819
 1839TIP3    H1 5474   0.744   6.178   1.009  1.5338 -0.1772 -0.0600
 1839TIP3    H2 5475   0.719   6.136   0.865 -1.1964 -0.1759  0.3774
 1840TIP3   OH2 5476   2.792   1.254   4.453 -0.0928 -0.3677  0.5616
 1840TIP3    H1 5477   2.840   1.215   4.526  0.2265 -0.0715  0.5153
 1840TIP3    H2 5478   2.704   1.269   4.487  0.5914  1.6714  1.5832
 1841TIP3   OH2 5479   5.968   5.912   2.995 -0.0506  0.1563 -0.3789
 1841TIP3    H1 5480   6.036   5.864   2.948  1.3891 -0.1720  1.8892
 1841TIP3    H2 5481   5.973   6.001   2.959  1.0624 -0.0562 -0.8030
 1842TIP3   OH2 5482   0.032   5.392   1.028  0.1647 -0.0334  0.3236
 1842TIP3    H1 5483   0.110   5.439   1.059  0.1477  0.2051 -0.0010
 1842TIP3    H2 5484   0.036   5.308   1.074  0.2304  0.2538  0.8529
 1843TIP3   OH2 5485   2.654   4.146   6.476 -0.2424 -0.0430 -0.0380
 1843TIP3    H1 5486   2.567   4.149   6.438  0.0597  0.7964 -0.7052
 1843TIP3    H2 5487   2.710   4.111   6.407  0.3154  1.4997 -0.4030
 1844TIP3   OH2 5488   4.821   5.818   5.296 -0.0159  0.4802  0.5930
 1844TIP3    H1 5489   4.850   5.846   5.383  1.2835  1.1535 -0.0174
 1844TIP3    H2 5490   4.835   5.896   5.241 -0.9018  0.0934 -0.1979
 1845TIP3   OH2 5491   4.316   3.045   1.469 -0.1512 -0.2243 -0.1800
 1845TIP3    H1 5492   4.396   3.008   1.432  0.3004  0.4752  0.0695
 1845TIP3    H2 5493   4.253   2.973   1.469  0.0589 -0.4200 -1.6246
 1846TIP3   OH2 5494   4.699   7.369   3.155  0.3711  0.2334  0.3732
 1846TIP3    H1 5495   4.645   7.318   3.216 -1.4193  0.1652 -1.1707
 1846TIP3    H2 5496   4.753   7.304   3.111 -0.1211 -0.0274  0.1509
 1847TIP3   OH2 5497   5.624   3.992   3.188 -0.5684  0.5051  0.1498
 1847TIP3    H1 5498   5.645   3.952   3.104  0.6304  1.9564 -0.2911
 1847TIP3    H2 5499   5.603   3.919   3.246  2.4267 -0.8719 -0.3478
 1848TIP3   OH2 5500   0.438   2.418   3.190 -0.2260  0.1943 -0.3309
 1848TIP3    H1 5501   0.374   2.479   3.229  0.0226  0.6116 -0.5794
 1848TIP3    H2 5502   0.460   2.359   3.262 -0.0799  0.7139  0.0601
 1849TIP3   OH2 5503   6.903   3.761   5.281  0.2847 -0.1962  0.3663
 1849TIP3    H1 5504   6.986   3.808   5.278  0.8522 -1.1698 -1.9499
 1849TIP3    H2 5505   6.927   3.671   5.304 -0.1757 -0.3678  0.1925
 1850TIP3   OH2 5506   3.401   6.273   4.066 -0.1897  0.0159  0.0277
 1850TIP3    H1 5507   3.308   6.296   4.059 -0.1055 -0.1273 -2.3718
 1850TIP3    H2 5508   3.410   6.237   4.154 -3.0763 -2.6349 -0.5630
 1851TIP3   OH2 5509   3.671   0.625   0.750 -0.2816  0.1239 -0.0976
 1851TIP3    H1 5510   3.627   0.629   0.835  0.5214 -0.2184  0.3412
 1851TIP3    H2 5511   3.676   0.532   0.729 -0.8013  0.2256 -0.6973
 1852TIP3   OH2 5512   2.066   1.235   3.932  0.2213 -0.4428  0.0325
 1852TIP3    H1 5513   2.028   1.173   3.870  0.6540  0.2577 -0.9522
 1852TIP3    H2 5514   1.991   1.262   3.987  0.1644 -2.3556  0.9783
 1853TIP3   OH2 5515   4.967   6.668   4.052  0.2375  0.0948  0.2614
 1853TIP3    H1 5516   4.978   6.622   3.969  0.2978 -0.4322  0.5603
 1853TIP3    H2 5517   5.050   6.713   4.066  0.3293 -0.0531  0.1857
 1854TIP3   OH2 5518   5.702   0.455   2.008  0.3311 -0.1835 -0.4870
 1854TIP3    H1 5519   5.763   0.517   2.048  0.5229 -0.8445  0.2640
 1854TIP3    H2 5520   5.624   0.459   2.064  0.6835 -1.2762  0.0947
 1855TIP3   OH2 5521   2.788   7.048   4.721 -0.4204 -0.4124  0.0199
 1855TIP3    H1 5522   2.853   7.071   4.655 -0.4184 -0.9403 -0.1645
 1855TIP3    H2 5523   2.786   6.952   4.721  0.5446 -0.4699  1.7446
 1856TIP3   OH2 5524   3.304   7.288   3.646  0.0925  0.5267  0.2536
 1856TIP3    H1 5525   3.279   7.239   3.568  0.5305  1.0846 -0.2524
 1856TIP3    H2 5526   3.380   7.340   3.618  0.5873  0.3347  1.1978
 1857TIP3   OH2 5527   7.848   3.818   3.619  0.2268 -0.2205  0.1967
 1857TIP3    H1 5528   7.924   3.876   3.619  0.2032 -0.1737 -0.9994
 1857TIP3    H2 5529   7.877   3.741   3.668  0.3433  0.6555  1.5885
 1858TIP3   OH2 5530   3.359   1.704   3.272 -0.5059 -0.1988 -0.0057
 1858TIP3    H1 5531   3.445   1.722   3.311 -0.6562 -1.9117  1.2291
 1858TIP3    H2 5532   3.355   1.608   3.265 -2.6549 -0.2185  0.7967
 1859TIP3   OH2 5533   1.474   7.169   2.144 -0.2008 -0.5069 -0.0689
 1859TIP3    H1 5534   1.500   7.198   2.057 -3.3380 -0.3657 -1.0657
 1859TIP3    H2 5535   1.557   7.160   2.192  1.5927 -0.2141 -2.8984
 1860TIP3   OH2 5536   0.553   5.283   4.655  0.0209  0.5799  0.9001
 1860TIP3    H1 5537   0.634   5.292   4.604 -0.5076 -0.5906 -0.1669
 1860TIP3    H2 5538   0.576   5.222   4.725 -0.3962 -1.1846 -0.4535
 1861TIP3   OH2 5539   3.603   5.549   0.127 -0.2059 -0.3620  0.2337
 1861TIP3    H1 5540   3.676   5.604   0.098 -1.6729  2.3927  1.4372
 1861TIP3    H2 5541   3.590   5.487   0.056  2.1516  0.1898 -0.7819
 1862TIP3   OH2 5542   5.090   0.325   3.337 -0.5067 -0.4823 -0.4419
 1862TIP3    H1 5543   5.013   0.363   3.379  0.3094  1.8156 -0.8596
 1862TIP3    H2 5544   5.066   0.316   3.245 -0.6802 -0.9624 -0.3531
 1863TIP3   OH2 5545   3.902   5.542   4.018  0.1174 -0.0179  0.0873
 1863TIP3    H1 5546   3.812   5.554   4.049  0.5422 -0.9293  1.8164
 1863TIP3    H2 5547   3.897   5.553   3.924 -1.8569 -0.2609  0.1306
 1864TIP3   OH2 5548   1.296   0.391   2.167 -0.7531 -0.2647  0.0251
 1864TIP3    H1 5549   1.275   0.328   2.098 -0.8747  0.0245 -0.2064
 1864TIP3    H2 5550   1.312   0.473   2.120 -1.9058  0.2080  0.4117
 1865TIP3   OH2 5551   7.869   5.381   2.633  0.1963 -0.0736  0.3291
 1865TIP3    H1 5552   7.808   5.326   2.583  1.5648 -0.2157 -1.2653
 1865TIP3    H2 5553   7.813   5.430   2.693 -1.1788 -2.3553  1.0242
 1866TIP3   OH2 5554   2.596   1.771   1.914 -0.6259  0.6467 -0.6261
 1866TIP3    H1 5555   2.563   1.859   1.931 -0.5310  1.0910 -2.5096
 1866TIP3    H2 5556   2.601   1.765   1.818  1.7881 -0.4825 -0.5107
 1867TIP3   OH2 5557   7.197   4.226   2.355 -0.3496  0.0809 -0.2993
 1867TIP3    H1 5558   7.272   4.277   2.386 -0.8005  1.5640 -1.4963
 1867TIP3    H2 5559   7.198   4.237   2.260 -1.1865 -1.1692 -0.4747
 1868TIP3   OH2 5560   2.110   6.510   4.132 -0.6861 -0.6649  0.0483
 1868TIP3    H1 5561   2.062   6.443   4.181  0.5491 -1.5188  0.1277
 1868TIP3    H2 5562   2.189   6.466   4.101  1.2403  1.2437  1.8934
 1869TIP3   OH2 5563   0.238   5.099   0.367  0.2534  0.1764  0.6458
 1869TIP3    H1 5564   0.196   5.175   0.408 -2.3785 -1.5461  1.4103
 1869TIP3    H2 5565   0.213   5.026   0.423 -1.8928 -2.0535 -2.8526
 1870TIP3   OH2 5566   4.810   1.509   4.126  0.0897  0.2370  0.6584
 1870TIP3    H1 5567   4.789   1.582   4.067 -1.8386  0.1038  1.1085
 1870TIP3    H2 5568   4.900   1.485   4.104  0.7167  2.6276  0.3813
 1871TIP3   OH2 5569   1.255   1.376   3.629 -0.4473 -0.3592  0.1202
 1871TIP3    H1 5570   1.175   1.329   3.606 -0.6462 -0.2432  0.5528
 1871TIP3    H2 5571   1.321   1.344   3.568 -0.2170 -2.2463  1.2816
 1872TIP3   OH2 5572   7.389   7.162   2.563 -0.3371  0.0519  0.0604
 1872TIP3    H1 5573   7.315   7.116   2.522 -0.3996  0.1217  0.0937
 1872TIP3    H2 5574   7.385   7.135   2.655  1.1825 -1.9250 -0.3984
 1873TIP3   OH2 5575   8.035   5.461   1.437  0.2929 -0.2103 -0.4852
 1873TIP3    H1 5576   8.036   5.545   1.481 -1.6070 -0.6927  0.6123
 1873TIP3    H2 5577   8.043   5.483   1.344  0.7685  1.0944 -0.1552
 1874TIP3   OH2 5578   5.060   0.337   3.643 -0.3084  0.5974 -0.1447
 1874TIP3    H1 5579   5.078   0.331   3.549  3.0308  0.3774  0.3804
 1874TIP3    H2 5580   5.002   0.263   3.661 -0.7755  0.4653 -1.9745
 1875TIP3   OH2 5581   2.979   3.266   5.547 -0.0824  0.1544 -0.2172
 1875TIP3    H1 5582   2.987   3.224   5.633  1.1119  0.3794 -0.1939
 1875TIP3    H2 5583   2.993   3.195   5.485  1.5861  0.4140 -0.1815
 1876TIP3   OH2 5584   4.935   3.790   4.103  0.0325 -0.2387 -0.7532
 1876TIP3    H1 5585   5.005   3.784   4.037  1.3006 -0.8874  0.5926
 1876TIP3    H2 5586   4.859   3.750   4.060  0.8205 -0.6463 -1.8281
 1877TIP3   OH2 5587   7.095   6.247   4.168 -0.2403 -0.1070  0.0107
 1877TIP3    H1 5588   7.065   6.326   4.123 -0.5461 -0.9505 -1.3531
 1877TIP3    H2 5589   7.175   6.223   4.120 -0.8771 -1.3392 -0.4627
 1878TIP3   OH2 5590   7.847   3.062   3.535 -0.4986  0.0786  0.1011
 1878TIP3    H1 5591   7.783   2.994   3.555 -0.0325 -0.8095 -1.3279
 1878TIP3    H2 5592   7.849   3.067   3.440  1.7654 -0.1531  0.0707
 1879TIP3   OH2 5593   2.979   2.840   4.392  0.7387 -0.2205 -0.6297
 1879TIP3    H1 5594   2.911   2.835   4.325 -0.1365 -0.1201  0.2280
 1879TIP3    H2 5595   3.058   2.810   4.348 -0.1251 -1.6301 -1.2870
 1880TIP3   OH2 5596   6.944   3.630   4.604  0.1716 -0.2061 -0.2456
 1880TIP3    H1 5597   6.922   3.538   4.590 -0.9947 -0.2877  1.7643
 1880TIP3    H2 5598   6.904   3.652   4.689 -0.5380  2.4641 -1.1732
 1881TIP3   OH2 5599   1.562   2.960   2.509 -0.7326  0.4094 -0.0972
 1881TIP3    H1 5600   1.629   3.013   2.553 -0.1682  0.1733 -0.6590
 1881TIP3    H2 5601   1.612   2.899   2.454 -1.3172 -1.3893  1.2640
 1882TIP3   OH2 5602   4.622   7.412   5.092 -0.0452  0.1395 -0.0430
 1882TIP3    H1 5603   4.709   7.446   5.074  0.1393 -0.6640 -0.7616
 1882TIP3    H2 5604   4.605   7.351   5.020 -0.6166 -0.7706  0.8300
 1883TIP3   OH2 5605   5.297   3.512   1.683 -0.1423 -0.5686  0.0015
 1883TIP3    H1 5606   5.264   3.499   1.594 -0.9858  0.2626  0.1711
 1883TIP3    H2 5607   5.349   3.592   1.676 -2.3599  1.0509  0.7388
 1884TIP3   OH2 5608   3.418   0.134   0.241  0.4453 -0.2679 -0.1863
 1884TIP3    H1 5609   3.512   0.150   0.249  1.0772 -2.7254 -1.5350
 1884TIP3    H2 5610   3.389   0.114   0.330  1.4330 -0.4988  0.0966
 1885TIP3   OH2 5611   6.058   5.632   0.353 -0.6344  0.1934 -0.1461
 1885TIP3    H1 5612   6.057   5.704   0.416 -0.8403 -0.9275  1.1701
 1885TIP3    H2 5613   6.031   5.672   0.270  1.0162  1.9903  0.1198
 1886TIP3   OH2 5614   2.526   5.381   4.309  0.2922  0.1346  0.5146
 1886TIP3    H1 5615   2.620   5.366   4.315  0.3581 -1.2261 -2.2871
 1886TIP3    H2 5616   2.490   5.298   4.277 -1.6967  0.9750  0.4205
 1887TIP3   OH2 5617   6.128   2.778   3.180  0.3398  0.2051  0.2593
 1887TIP3    H1 5618   6.148   2.825   3.260 -0.7691  0.5951  0.3217
 1887TIP3    H2 5619   6.059   2.830   3.138  0.7570 -0.0993 -0.8429
 1888TIP3   OH2 5620   7.339   3.561   6.584 -0.3018  0.0097 -0.8983
 1888TIP3    H1 5621   7.368   3.646   6.616 -1.0446  0.4026 -1.2525
 1888TIP3    H2 5622   7.420   3.512   6.569  0.1225 -0.3429  1.8704
 1889TIP3   OH2 5623   1.723   2.263   4.054 -0.8342  0.3662 -0.4840
 1889TIP3    H1 5624   1.811   2.298   4.069 -0.0398 -1.7596  0.0992
 1889TIP3    H2 5625   1.664   2.331   4.088  0.6800 -0.2223  4.0140
 1890TIP3   OH2 5626   7.137   2.701   3.624 -0.0480 -0.1700  0.1623
 1890TIP3    H1 5627   7.182   2.762   3.683 -0.1103  1.4208 -1.3201
 1890TIP3    H2 5628   7.147   2.615   3.665  1.9065  0.5254  1.2867
 1891TIP3   OH2 5629   7.493   0.630   5.952 -0.2027  0.0682 -0.1647
 1891TIP3    H1 5630   7.530   0.691   5.888  0.1048  0.3688  0.2888
 1891TIP3    H2 5631   7.567   0.573   5.975 -0.1653  0.3073  0.3208
 1892TIP3   OH2 5632   1.630   3.383   5.281 -0.5021  0.1290 -0.3427
 1892TIP3    H1 5633   1.626   3.478   5.271 -2.6865  0.0239 -0.9232
 1892TIP3    H2 5634   1.723   3.364   5.288 -0.0336  2.3537  0.3016
 1893TIP3   OH2 5635   7.649   4.295   0.570 -0.4371  0.1311  0.3261
 1893TIP3    H1 5636   7.610   4.237   0.505 -0.0642 -0.4654  0.6360
 1893TIP3    H2 5637   7.596   4.282   0.649 -0.9723  0.9513  0.1202
 1894TIP3   OH2 5638   3.282   6.276   2.750  0.2804 -0.1440  0.3103
 1894TIP3    H1 5639   3.263   6.370   2.751  2.2910  0.3209  0.3012
 1894TIP3    H2 5640   3.258   6.246   2.837 -0.3685  0.3866  0.3204
 1895TIP3   OH2 5641   4.781   5.489   4.233 -0.0598 -0.1162 -0.1559
 1895TIP3    H1 5642   4.805   5.422   4.297 -1.7654 -1.4657 -0.8456
 1895TIP3    H2 5643   4.757   5.440   4.154  2.1202  1.5032 -1.9434
 1896TIP3   OH2 5644   2.366   1.578   1.606 -0.6078 -0.1951 -0.2328
 1896TIP3    H1 5645   2.380   1.669   1.630  0.8109 -0.2153 -0.9098
 1896TIP3    H2 5646   2.306   1.544   1.674  3.1450 -0.2834  3.4315
 1897TIP3   OH2 5647   7.821   7.704   2.615  0.3866  0.2807  0.0993
 1897TIP3    H1 5648   7.857   7.730   2.530  0.9507  2.5170  0.9720
 1897TIP3    H2 5649   7.734   7.743   2.618 -0.2852 -1.1184 -0.0377
 1898TIP3   OH2 5650   5.320   2.959   4.909 -0.5440  0.1607 -0.1411
 1898TIP3    H1 5651   5.341   2.917   4.825  0.0747 -1.9839  0.9943
 1898TIP3    H2 5652   5.391   3.022   4.923 -1.6477  1.9146 -2.0437
 1899TIP3   OH2 5653   0.484   4.825   6.013 -0.2342  0.1602 -0.4104
 1899TIP3    H1 5654   0.547   4.885   6.051 -0.0456 -0.5072  0.3500
 1899TIP3    H2 5655   0.511   4.816   5.922 -0.7840  1.8945 -0.7869
 1900TIP3   OH2 5656   0.136   6.594   3.748 -0.3491  0.0151 -0.0984
 1900TIP3    H1 5657   0.193   6.551   3.812 -0.5722  1.8262  1.4233
 1900TIP3    H2 5658   0.193   6.610   3.672  0.3647 -0.7838  0.2494
 1901TIP3   OH2 5659   0.825   7.335   1.474  0.4205 -0.2674 -0.0065
 1901TIP3    H1 5660   0.794   7.300   1.558  3.2100 -2.0284  0.4650
 1901TIP3    H2 5661   0.805   7.428   1.478  0.0401 -0.3673  2.4664
 1902TIP3   OH2 5662   2.753   0.138   0.260 -0.0496 -0.1361  0.3912
 1902TIP3    H1 5663   2.771   0.232   0.272  0.8571 -0.5208  2.3789
 1902TIP3    H2 5664   2.777   0.098   0.343  0.7956 -2.3369 -0.8474
 1903TIP3   OH2 5665   7.417   1.895   4.493 -0.5825 -0.4629 -0.3577
 1903TIP3    H1 5666   7.459   1.907   4.408  1.4250 -1.2762  0.4481
 1903TIP3    H2 5667   7.370   1.813   4.485 -0.2277 -0.6442 -0.6401
 1904TIP3   OH2 5668   2.848   3.434   3.462 -0.3995 -0.1160 -0.0104
 1904TIP3    H1 5669   2.917   3.426   3.396 -1.4995  0.0349 -1.2170
 1904TIP3    H2 5670   2.890   3.477   3.536  1.1390 -1.2551 -0.1857
 1905TIP3   OH2 5671   1.934   1.104   3.015 -0.1617  0.0402 -0.0793
 1905TIP3    H1 5672   1.907   1.185   2.972  0.6332  0.3477 -0.0187
 1905TIP3    H2 5673   1.860   1.045   3.004  0.1410 -0.0053 -2.1539
 1906TIP3   OH2 5674   7.821   4.675   5.514  0.3994 -0.6982  0.1095
 1906TIP3    H1 5675   7.842   4.760   5.474 -2.0766  0.6763  1.4809
 1906TIP3    H2 5676   7.847   4.685   5.606 -1.1831 -0.8650  0.5991
 1907TIP3   OH2 5677   7.492   3.682   3.899  0.0176 -0.3510 -0.2232
 1907TIP3    H1 5678   7.476   3.732   3.819  3.3905  0.7594 -0.3780
 1907TIP3    H2 5679   7.487   3.748   3.969  0.5866 -0.5617  0.0252
 1908TIP3   OH2 5680   3.947   5.432   5.422  0.4202 -0.1417  0.4057
 1908TIP3    H1 5681   3.983   5.503   5.369  1.6626 -0.8629  0.2452
 1908TIP3    H2 5682   4.018   5.408   5.481  0.1814 -1.5333  0.1651
 1909TIP3   OH2 5683   5.231   6.931   4.552 -0.5151  0.4203 -0.4264
 1909TIP3    H1 5684   5.314   6.951   4.595 -0.8938 -0.0302  0.5277
 1909TIP3    H2 5685   5.195   6.857   4.600 -1.1154  0.1115 -1.3076
 1910TIP3   OH2 5686   7.872   5.761   4.582 -0.5082  0.0739 -0.6967
 1910TIP3    H1 5687   7.924   5.708   4.642 -0.1469  1.3115  0.1231
 1910TIP3    H2 5688   7.785   5.764   4.621 -0.4783  0.2221 -0.6379
 1911TIP3   OH2 5689   1.149   3.357   1.006  0.3435  0.2598 -0.0272
 1911TIP3    H1 5690   1.220   3.293   1.011 -0.4939 -0.7680 -0.8793
 1911TIP3    H2 5691   1.118   3.352   0.916 -1.9315 -0.5857  0.7296
 1912TIP3   OH2 5692   3.663   1.151   0.289 -0.6264 -0.0984  0.1795
 1912TIP3    H1 5693   3.568   1.138   0.299 -0.4539 -1.7200  0.0184
 1912TIP3    H2 5694   3.674   1.177   0.198 -0.8309 -1.0512 -0.1295
 1913TIP3   OH2 5695   0.453   0.496   4.352 -0.3171 -0.4583 -0.4282
 1913TIP3    H1 5696   0.372   0.486   4.303  0.1111  1.0684 -1.5176
 1913TIP3    H2 5697   0.489   0.407   4.358 -1.2786 -0.9215 -1.2968
 1914TIP3   OH2 5698   2.599   6.599   0.197 -0.4724  0.2429  0.1430
 1914TIP3    H1 5699   2.610   6.687   0.234 -2.6114 -0.5119  2.9594
 1914TIP3    H2 5700   2.679   6.553   0.220 -0.1780  0.9044  0.4556
 1915TIP3   OH2 5701   1.619   0.507   0.561 -0.3991  0.4128 -0.3623
 1915TIP3    H1 5702   1.677   0.475   0.629 -2.2334 -1.1117  0.5645
 1915TIP3    H2 5703   1.549   0.442   0.556 -0.5201  0.6235 -3.4962
 1916TIP3   OH2 5704   2.622   4.770   5.309  0.2612  0.5860  0.0632
 1916TIP3    H1 5705   2.628   4.855   5.266  0.5316  0.3374 -0.3939
 1916TIP3    H2 5706   2.712   4.739   5.314  0.3419  0.9557  1.5305
 1917TIP3   OH2 5707   3.777   2.522   6.119  0.2814 -0.0535  0.5556
 1917TIP3    H1 5708   3.816   2.472   6.191  0.1840  0.2613  0.8319
 1917TIP3    H2 5709   3.720   2.460   6.075  0.1050 -0.1687  0.9391
 1918TIP3   OH2 5710   3.951   2.865   1.253  0.3598 -0.0081  0.4827
 1918TIP3    H1 5711   3.981   2.868   1.344  0.5275 -0.5488  0.4496
 1918TIP3    H2 5712   4.017   2.914   1.204  0.5807 -0.2183  0.5700
 1919TIP3   OH2 5713   3.441   3.492   1.223  0.0671  0.0640  0.1123
 1919TIP3    H1 5714   3.486   3.411   1.197  0.4627  0.5270 -0.6687
 1919TIP3    H2 5715   3.373   3.504   1.157 -0.9629 -0.4103  1.0590
 1920TIP3   OH2 5716   7.858   7.782  -0.013 -0.5886 -0.1849  0.4761
 1920TIP3    H1 5717   7.853   7.690   0.011  1.0833 -0.4408 -0.0169
 1920TIP3    H2 5718   7.898   7.825   0.062  1.3936 -0.3984 -0.4012
 1921TIP3   OH2 5719   1.165   1.242   5.682  0.0513 -0.0248  0.4010
 1921TIP3    H1 5720   1.243   1.215   5.729 -0.8020 -1.0072  1.3060
 1921TIP3    H2 5721   1.189   1.237   5.590  1.3155  0.5677  0.6775
 1922TIP3   OH2 5722   1.033   1.491   0.593  0.0086  0.2656  0.5313
 1922TIP3    H1 5723   1.029   1.395   0.598 -0.5324  0.3491  2.8293
 1922TIP3    H2 5724   0.943   1.518   0.577  0.0093  0.4210  0.7889
 1923TIP3   OH2 5725   7.793   3.781   6.654  0.9562  0.7528  0.5824
 1923TIP3    H1 5726   7.847   3.709   6.687  0.7630  0.4741  0.2965
 1923TIP3    H2 5727   7.707   3.767   6.693  0.5714  0.1038 -0.4517
 1924TIP3   OH2 5728   1.127   0.049   5.281 -0.5972  0.1165 -0.0659
 1924TIP3    H1 5729   1.066   0.090   5.220 -1.9931 -1.0403  0.4821
 1924TIP3    H2 5730   1.146  -0.036   5.243  0.0360  0.1494  0.1735
 1925TIP3   OH2 5731   3.802   5.853   4.815 -0.1470  0.1605 -0.1811
 1925TIP3    H1 5732   3.786   5.761   4.836 -2.7919  0.4762 -0.4828
 1925TIP3    H2 5733   3.874   5.878   4.873  0.5841 -2.0548 -0.0257
 1926TIP3   OH2 5734   3.218   1.393   1.074 -0.1327 -0.3572  0.2820
 1926TIP3    H1 5735   3.237   1.485   1.096 -1.5556 -0.1506  0.7946
 1926TIP3    H2 5736   3.231   1.388   0.980  0.4437  0.2398  0.3149
 1927TIP3   OH2 5737   3.751   5.338   6.105 -0.1608 -0.0260 -0.3303
 1927TIP3    H1 5738   3.799   5.273   6.157 -0.0249 -0.2243 -0.6921
 1927TIP3    H2 5739   3.722   5.289   6.028 -0.4059  0.2484 -0.4136
 1928TIP3   OH2 5740   0.359   0.822   3.612  0.3349  0.0674  0.0892
 1928TIP3    H1 5741   0.355   0.906   3.565 -1.0113  0.0140  0.0715
 1928TIP3    H2 5742   0.334   0.757   3.547  2.0549 -0.4725 -0.0904
 1929TIP3   OH2 5743   2.185   3.372   0.963  0.3089  0.2220  0.5020
 1929TIP3    H1 5744   2.263   3.324   0.991  1.4188  1.4121 -0.4205
 1929TIP3    H2 5745   2.130   3.306   0.921  0.3902 -0.8047  1.9242
 1930TIP3   OH2 5746   6.461   5.074   1.201  0.1717  0.6709  0.0642
 1930TIP3    H1 5747   6.478   5.017   1.125  0.1965  0.6993  0.0481
 1930TIP3    H2 5748   6.548   5.094   1.235  0.0994 -1.1089  1.4240
 1931TIP3   OH2 5749   5.474   2.974   0.213  0.4079 -0.2529  0.4185
 1931TIP3    H1 5750   5.468   2.894   0.161  1.2073  0.1747 -0.3649
 1931TIP3    H2 5751   5.497   2.944   0.301  0.5597 -0.8931  0.1633
 1932TIP3   OH2 5752   6.376   6.123   5.121 -0.3917  0.3264  0.0306
 1932TIP3    H1 5753   6.326   6.043   5.134 -0.8963  0.6697  0.2326
 1932TIP3    H2 5754   6.448   6.117   5.185 -0.1966 -0.1414 -0.2267
 1933TIP3   OH2 5755   0.396   6.879   0.272 -0.3057 -0.3277 -0.4835
 1933TIP3    H1 5756   0.429   6.799   0.231 -2.6492 -0.3581 -2.5238
 1933TIP3    H2 5757   0.325   6.849   0.329  0.6543  0.0814  0.9843
 1934TIP3   OH2 5758   5.347   0.355   5.148  0.4564 -0.3835  0.1696
 1934TIP3    H1 5759   5.398   0.297   5.205  0.9649  0.0106  0.1193
 1934TIP3    H2 5760   5.356   0.317   5.061 -0.8284 -1.3435  0.4168
 1935TIP3   OH2 5761   1.195   7.770   0.725  0.3046  0.1197 -0.1258
 1935TIP3    H1 5762   1.217   7.809   0.640  3.1129  0.2776  0.5736
 1935TIP3    H2 5763   1.209   7.676   0.712  1.5047  0.2223  0.3390
 1936TIP3   OH2 5764   4.668   3.859   6.528  0.4430  0.3606 -0.1181
 1936TIP3    H1 5765   4.609   3.917   6.479 -1.8465 -0.7963  1.1085
 1936TIP3    H2 5766   4.727   3.919   6.574  0.2519  1.5841 -1.3948
 1937TIP3   OH2 5767   4.606   6.028   3.030  0.1355  0.5136  0.5711
 1937TIP3    H1 5768   4.568   6.108   3.066 -0.1829  0.4623  0.3568
 1937TIP3    H2 5769   4.666   6.059   2.962 -1.9984  0.5306 -1.4455
 1938TIP3   OH2 5770   7.305   4.533   5.389 -0.3906 -0.5397  0.2335
 1938TIP3    H1 5771   7.251   4.550   5.311 -0.8209  0.9218  0.8231
 1938TIP3    H2 5772   7.388   4.577   5.371  0.0641 -1.4734 -0.0126
 1939TIP3   OH2 5773   3.359   4.965   6.157 -0.2450  0.4509  0.0527
 1939TIP3    H1 5774   3.395   4.984   6.243  1.3856  1.2108 -0.7472
 1939TIP3    H2 5775   3.331   4.874   6.162  1.3000 -0.0182  0.9200
 1940TIP3   OH2 5776   5.935   4.816   6.308 -0.1531  0.0699  0.2150
 1940TIP3    H1 5777   5.877   4.774   6.372  0.2539 -1.0563 -0.1329
 1940TIP3    H2 5778   6.012   4.842   6.359  0.2163 -0.9195  0.1854
 1941TIP3   OH2 5779   2.128   4.808   2.945 -0.0582  0.3952 -0.7508
 1941TIP3    H1 5780   2.092   4.758   2.872 -0.3600  1.1474 -1.1297
 1941TIP3    H2 5781   2.130   4.746   3.018 -1.2655  0.0868 -0.9652
 1942TIP3   OH2 5782   6.959   3.983   2.761 -0.4994 -0.2556  0.5105
 1942TIP3    H1 5783   6.939   4.044   2.691 -0.0094 -0.1748  0.4352
 1942TIP3    H2 5784   6.921   4.022   2.839 -0.6351 -0.1103  0.3714
 1943TIP3   OH2 5785   8.080   1.116   5.891  0.9264 -0.1008  0.1244
 1943TIP3    H1 5786   8.012   1.122   5.824  0.5365 -2.7715  0.1557
 1943TIP3    H2 5787   8.085   1.022   5.911  3.9912  0.0998  0.7758
 1944TIP3   OH2 5788   1.988   1.569   4.085 -0.2336 -0.4470 -0.1769
 1944TIP3    H1 5789   1.944   1.626   4.022 -1.1713 -0.0706  0.7768
 1944TIP3    H2 5790   2.081   1.580   4.067 -0.4868 -0.5689 -1.6584
 1945TIP3   OH2 5791   0.465   7.317   1.558  0.0363 -0.1471  0.4599
 1945TIP3    H1 5792   0.454   7.407   1.527  0.8251 -0.3090 -0.3248
 1945TIP3    H2 5793   0.429   7.318   1.647 -0.2020  0.8795  0.3661
 1946TIP3   OH2 5794   7.423   0.770   4.566 -0.9869  0.3114 -0.2876
 1946TIP3    H1 5795   7.451   0.853   4.606  1.5386  0.0694 -1.3595
 1946TIP3    H2 5796   7.373   0.796   4.489 -2.9189  0.7664  1.0404
 1947TIP3   OH2 5797   4.466   3.837   4.831 -0.3268  0.2048 -0.3575
 1947TIP3    H1 5798   4.447   3.931   4.837  0.8165  0.4169  0.2352
 1947TIP3    H2 5799   4.401   3.795   4.886 -0.5695  0.6898 -0.2710
 1948TIP3   OH2 5800   6.604   3.781   0.499 -0.1417 -0.5768  0.4612
 1948TIP3    H1 5801   6.605   3.876   0.487 -0.7315 -0.7498 -1.0651
 1948TIP3    H2 5802   6.512   3.758   0.508 -0.2168 -1.2518 -1.5288
 1949TIP3   OH2 5803   6.954   3.868   1.659  0.2206  0.4997 -0.0353
 1949TIP3    H1 5804   7.044   3.878   1.628  0.8564 -0.2567  1.4784
 1949TIP3    H2 5805   6.908   3.943   1.622  1.0479 -0.0104 -2.2434
 1950TIP3   OH2 5806   0.166   6.485   2.455  0.1598  0.1030  0.1671
 1950TIP3    H1 5807   0.234   6.457   2.393 -0.2837  1.7013 -1.1111
 1950TIP3    H2 5808   0.206   6.476   2.541  0.3050 -3.6809 -0.1126
 1951TIP3   OH2 5809   2.402   0.668   1.820  0.1170 -0.7637 -0.4878
 1951TIP3    H1 5810   2.321   0.678   1.869  0.8309  0.0888  0.5654
 1951TIP3    H2 5811   2.399   0.737   1.754 -0.8109 -1.8650 -1.6409
 1952TIP3   OH2 5812   8.130   4.693   0.675 -0.2159  0.0846  0.1718
 1952TIP3    H1 5813   8.065   4.723   0.740 -0.2991  3.1501 -1.1644
 1952TIP3    H2 5814   8.081   4.636   0.617 -1.0327  0.1785  0.7463
 1953TIP3   OH2 5815   1.759   7.001   3.054  0.2789 -0.9116  0.0818
 1953TIP3    H1 5816   1.689   7.052   3.097  0.2749 -0.9182  0.0827
 1953TIP3    H2 5817   1.748   7.019   2.961  0.2955 -0.8883  0.0844
 1954TIP3   OH2 5818   7.900   5.656   5.245  0.3917  0.6356 -0.3695
 1954TIP3    H1 5819   7.848   5.595   5.298  1.5064  1.0867  1.3322
 1954TIP3    H2 5820   7.986   5.614   5.237  0.7242  1.3133 -0.4369
 1955TIP3   OH2 5821   1.546   1.563   1.286  0.3345  0.3950  0.2436
 1955TIP3    H1 5822   1.567   1.492   1.347  1.9287  0.6139 -0.0084
 1955TIP3    H2 5823   1.533   1.519   1.202  0.1970  0.3006  0.3133
 1956TIP3   OH2 5824   0.356   3.508   1.828  0.2383  0.0111  0.5644
 1956TIP3    H1 5825   0.371   3.602   1.836 -0.1870 -0.0362  2.3251
 1956TIP3    H2 5826   0.313   3.498   1.743  1.3913  1.2489 -0.1985
 1957TIP3   OH2 5827   2.639   2.745   0.532 -0.0660  0.0016 -0.0052
 1957TIP3    H1 5828   2.665   2.659   0.499  0.6230  0.2533 -0.1453
 1957TIP3    H2 5829   2.563   2.728   0.588  1.5478 -1.0221  1.9997
 1958TIP3   OH2 5830   3.298   0.164   0.797 -0.4178  0.4589  0.0505
 1958TIP3    H1 5831   3.311   0.089   0.855  2.2820 -0.3558 -1.4362
 1958TIP3    H2 5832   3.332   0.238   0.846 -0.6236  0.2480  0.5191
 1959TIP3   OH2 5833   1.269   5.480   0.674 -0.0274  0.0013 -0.0383
 1959TIP3    H1 5834   1.278   5.527   0.591  5.5083 -0.2824 -0.0235
 1959TIP3    H2 5835   1.244   5.547   0.738 -0.8300  0.9931 -1.3465
 1960TIP3   OH2 5836   1.173   2.391   6.658 -0.1897 -0.3612 -0.2173
 1960TIP3    H1 5837   1.188   2.337   6.581  1.0828  0.8746 -0.8747
 1960TIP3    H2 5838   1.135   2.472   6.624  0.7081  0.3367  0.3834
 1961TIP3   OH2 5839   5.916   0.068   1.916 -0.4168 -1.1130 -0.4645
 1961TIP3    H1 5840   5.872   0.043   1.998  0.9053  0.5930  0.8525
 1961TIP3    H2 5841   5.966  -0.010   1.891  1.1553 -0.9272  1.7969
 1962TIP3   OH2 5842   3.784   5.553   2.733 -0.1796  0.0893 -0.4800
 1962TIP3    H1 5843   3.730   5.630   2.750  0.9462  1.1151 -1.3274
 1962TIP3    H2 5844   3.873   5.588   2.725  0.1491 -1.0501 -2.5162
 1963TIP3   OH2 5845   1.311   7.305   5.809 -0.0679 -0.3269 -0.1823
 1963TIP3    H1 5846   1.395   7.312   5.765 -1.0495  0.2240 -2.0672
 1963TIP3    H2 5847   1.265   7.386   5.787 -0.6138  0.0002  1.9270
 1964TIP3   OH2 5848   0.748   4.767   1.973 -0.3347 -0.5238 -0.3045
 1964TIP3    H1 5849   0.729   4.822   2.049  0.2083  0.1587 -0.6455
 1964TIP3    H2 5850   0.774   4.683   2.010  1.0194  0.1427  0.3259
 1965TIP3   OH2 5851   6.795   6.639   2.782 -0.3005 -0.2870  0.3751
 1965TIP3    H1 5852   6.750   6.670   2.704 -2.0273  0.4945  1.6007
 1965TIP3    H2 5853   6.834   6.718   2.820 -0.0046 -0.5460  0.6138
 1966TIP3   OH2 5854   1.907   1.912   3.037  0.1269 -0.0681  0.1215
 1966TIP3    H1 5855   1.892   1.947   2.949  1.3398 -0.7939 -0.4000
 1966TIP3    H2 5856   1.975   1.968   3.074 -0.4938  0.3353  0.6756
 1967TIP3   OH2 5857   1.684   2.504   6.088  0.4463  0.1557 -0.1199
 1967TIP3    H1 5858   1.683   2.430   6.149 -0.6055 -0.6815 -1.1215
 1967TIP3    H2 5859   1.688   2.581   6.144  1.7307 -0.6473  0.9458
 1968TIP3   OH2 5860   0.411   1.460   6.256 -0.1098  0.0299  0.3860
 1968TIP3    H1 5861   0.419   1.544   6.212 -1.1256  0.7348  1.4725
 1968TIP3    H2 5862   0.317   1.449   6.271  0.1568 -0.3297  2.0289
 1969TIP3   OH2 5863   5.489   3.358   4.210  0.3903 -0.0912 -1.1666
 1969TIP3    H1 5864   5.462   3.446   4.237 -1.4124 -0.5305 -1.3927
 1969TIP3    H2 5865   5.485   3.306   4.290 -1.4594 -0.5924 -1.5336
 1970TIP3   OH2 5866   5.378   7.820   0.375  0.0651 -0.0108  0.1960
 1970TIP3    H1 5867   5.414   7.747   0.325 -0.8776  0.1214 -0.7264
 1970TIP3    H2 5868   5.441   7.891   0.363  0.1343 -0.1586 -0.3282
 1971TIP3   OH2 5869   6.889   2.911   5.921  0.2824 -0.5254  0.1245
 1971TIP3    H1 5870   6.833   2.901   5.997 -0.5420  0.9625 -0.2331
 1971TIP3    H2 5871   6.857   2.847   5.858 -0.0829 -0.6692  0.4578
 1972TIP3   OH2 5872   6.103   3.288   6.397  0.0170 -0.3073  0.3468
 1972TIP3    H1 5873   6.064   3.280   6.311 -1.1082 -1.2339  0.9133
 1972TIP3    H2 5874   6.088   3.203   6.439  0.9224 -0.0315  1.3049
 1973TIP3   OH2 5875   2.058   0.212   5.731  0.5294 -0.1099  0.3247
 1973TIP3    H1 5876   2.059   0.118   5.713  1.7304 -0.0329 -0.1154
 1973TIP3    H2 5877   2.132   0.226   5.790  0.4403  0.5714  0.2855
 1974TIP3   OH2 5878   1.033   3.835   6.043 -0.0213 -0.0521 -0.1491
 1974TIP3    H1 5879   1.110   3.850   5.987  0.2770 -1.0697 -0.0371
 1974TIP3    H2 5880   0.967   3.896   6.011 -0.6257 -2.0229 -3.0945
 1975TIP3   OH2 5881   6.231   6.396   0.176 -0.1000  0.2951 -0.1480
 1975TIP3    H1 5882   6.186   6.324   0.132  1.7749 -0.0769 -1.5767
 1975TIP3    H2 5883   6.321   6.364   0.189  0.8446  2.4327 -0.9979
 1976TIP3   OH2 5884   1.446   5.391   2.335 -0.2613 -0.0830  0.3055
 1976TIP3    H1 5885   1.523   5.343   2.364  1.0739  2.0324  0.4988
 1976TIP3    H2 5886   1.450   5.473   2.384 -2.8559 -0.0511  0.5742
 1977TIP3   OH2 5887   1.291   1.023   2.226 -0.6055 -0.6396  0.0634
 1977TIP3    H1 5888   1.291   0.965   2.303  0.1415 -0.2289  0.3823
 1977TIP3    H2 5889   1.312   0.965   2.153  0.9566 -0.6647  0.4918
 1978TIP3   OH2 5890   5.664   1.605   4.684  0.0731 -0.1841 -0.5265
 1978TIP3    H1 5891   5.690   1.557   4.763 -0.0159  0.8040  0.1160
 1978TIP3    H2 5892   5.569   1.608   4.687  0.0775  0.0146 -0.5789
 1979TIP3   OH2 5893   2.663   7.212   0.593 -0.2178  0.5318 -0.4902
 1979TIP3    H1 5894   2.663   7.126   0.634  0.2040  0.3781 -0.8011
 1979TIP3    H2 5895   2.642   7.273   0.664 -1.2635  0.1080 -0.4270
 1980TIP3   OH2 5896   7.248   6.059   1.811 -0.6815  0.7257  0.6869
 1980TIP3    H1 5897   7.266   5.982   1.757 -1.0876  0.2304  1.2476
 1980TIP3    H2 5898   7.286   6.132   1.762  0.6910  0.0259  0.6765
 1981TIP3   OH2 5899   7.652   4.431   0.029  0.8053  0.1978  0.5025
 1981TIP3    H1 5900   7.611   4.371   0.091 -2.2637  1.1296 -0.4164
 1981TIP3    H2 5901   7.630   4.518   0.062  0.0788  0.7125 -1.2256
 1982TIP3   OH2 5902   0.267   1.196   6.052 -0.5367  0.0284  0.1714
 1982TIP3    H1 5903   0.308   1.112   6.070 -0.2611 -0.0040 -0.6002
 1982TIP3    H2 5904   0.331   1.261   6.081 -0.8263 -0.0112  0.9448
 1983TIP3   OH2 5905   3.025   7.194   3.968  0.1128 -0.3693  0.8924
 1983TIP3    H1 5906   3.076   7.273   3.986  0.4536 -0.5133  0.5453
 1983TIP3    H2 5907   3.063   7.127   4.025 -0.8723 -0.0230  2.0011
 1984TIP3   OH2 5908   3.688   7.345   1.134 -0.4807  0.4440  0.1222
 1984TIP3    H1 5909   3.648   7.268   1.175  0.4869  0.1568  0.5736
 1984TIP3    H2 5910   3.718   7.398   1.208 -3.2491  2.4830 -0.0948
 1985TIP3   OH2 5911   2.345   3.032   1.745  0.1318  0.0969 -0.2699
 1985TIP3    H1 5912   2.257   3.050   1.712  0.6060  0.8307 -1.1785
 1985TIP3    H2 5913   2.374   2.956   1.696 -0.5003 -1.0336  1.0263
 1986TIP3   OH2 5914   4.248   2.341   0.582  0.3287  0.2090 -0.2647
 1986TIP3    H1 5915   4.256   2.247   0.592 -1.3256  0.1275  0.5466
 1986TIP3    H2 5916   4.205   2.353   0.498 -0.3559  0.1928  0.0811
 1987TIP3   OH2 5917   5.879   3.489   0.036  0.4393  0.5799  0.0010
 1987TIP3    H1 5918   5.916   3.499  -0.051  0.6440 -0.0333  0.0131
 1987TIP3    H2 5919   5.895   3.398   0.059 -0.0343  0.6128  0.4877
 1988TIP3   OH2 5920   6.736   0.693   5.437  0.3646 -0.2313 -0.0037
 1988TIP3    H1 5921   6.737   0.615   5.381  2.6538 -1.2184  1.3077
 1988TIP3    H2 5922   6.650   0.690   5.480  0.7916 -2.6624  0.8225
 1989TIP3   OH2 5923   4.032   6.552   0.752 -0.4655  0.4060 -0.3522
 1989TIP3    H1 5924   3.974   6.605   0.807 -2.3451  0.2412 -2.0591
 1989TIP3    H2 5925   3.972   6.499   0.698  1.3040 -0.5426 -1.4733
 1990TIP3   OH2 5926   6.666   0.992   3.621  0.1982 -0.3155  0.0558
 1990TIP3    H1 5927   6.730   1.056   3.651 -0.3087  0.3071 -0.1737
 1990TIP3    H2 5928   6.703   0.956   3.541  0.6592 -0.5953  0.3862
 1991TIP3   OH2 5929   7.455   5.517   3.356 -0.1204  0.1752 -0.1576
 1991TIP3    H1 5930   7.510   5.469   3.418 -0.9111 -1.2444 -0.5159
 1991TIP3    H2 5931   7.508   5.593   3.331  0.4219  0.4982  1.8275
 1992TIP3   OH2 5932   7.401   6.559   5.900  0.5306 -0.1109 -0.4525
 1992TIP3    H1 5933   7.370   6.547   5.990  0.1915  1.1746 -0.3761
 1992TIP3    H2 5934   7.333   6.517   5.846 -0.5134  1.1718 -0.1979
 1993TIP3   OH2 5935   4.185   3.939   2.026  0.1531 -0.8598 -0.0156
 1993TIP3    H1 5936   4.175   3.860   1.972 -0.1699 -2.0382  1.6890
 1993TIP3    H2 5937   4.271   3.973   2.003  1.2531 -2.9715  0.7880
 1994TIP3   OH2 5938   4.997   1.551   5.176  0.0182  0.2073  0.3194
 1994TIP3    H1 5939   4.926   1.613   5.192  0.4108  0.5419  0.7953
 1994TIP3    H2 5940   5.040   1.584   5.097  0.2800  0.6037  0.6199
 1995TIP3   OH2 5941   5.277   7.386   4.330 -0.1551  0.0201 -0.1862
 1995TIP3    H1 5942   5.182   7.373   4.332 -0.2555  0.2732  3.3030
 1995TIP3    H2 5943   5.289   7.481   4.326 -0.1078  0.0376  0.2610
 1996TIP3   OH2 5944   7.953   5.736   3.727 -0.5839  0.6818 -0.1631
 1996TIP3    H1 5945   7.974   5.796   3.655 -0.5752  0.1122 -0.6399
 1996TIP3    H2 5946   7.983   5.651   3.697 -2.5529  0.0335 -0.3968
 1997TIP3   OH2 5947   1.327   2.075   3.975 -0.0439 -0.4363 -0.9312
 1997TIP3    H1 5948   1.418   2.090   3.948  0.5526 -0.1216  1.1042
 1997TIP3    H2 5949   1.332   2.062   4.069 -2.0702 -0.9695 -0.8612
 1998TIP3   OH2 5950   4.272   4.861   2.838 -0.3826 -1.0950  0.1704
 1998TIP3    H1 5951   4.357   4.841   2.799 -0.1021  0.1101  0.1247
 1998TIP3    H2 5952   4.230   4.775   2.849  0.3167 -1.6069 -0.9750
 1999TIP3   OH2 5953   4.601   3.186   1.241  0.2888  0.0217 -0.1264
 1999TIP3    H1 5954   4.561   3.258   1.290 -0.3934 -0.4977  0.1095
 1999TIP3    H2 5955   4.553   3.184   1.158 -1.1680 -1.4768  0.7038
 2000TIP3   OH2 5956   3.047   2.361   1.183  0.0729 -0.4733 -0.1111
 2000TIP3    H1 5957   3.025   2.304   1.257  0.5903 -0.6875 -0.1153
 2000TIP3    H2 5958   2.966   2.370   1.134  0.1401 -1.8333 -0.5253
 2001TIP3   OH2 5959   1.508   4.428   5.291 -0.7957  0.6104 -0.1972
 2001TIP3    H1 5960   1.584   4.372   5.275 -1.3142  0.1769 -1.1981
 2001TIP3    H2 5961   1.464   4.388   5.365 -1.3839 -0.5646 -1.1519
 2002TIP3   OH2 5962   3.570   0.138   5.805 -0.1253 -0.0214 -0.4047
 2002TIP3    H1 5963   3.529   0.224   5.815 -0.3861  0.0874 -2.1204
 2002TIP3    H2 5964   3.561   0.097   5.891  0.9423  2.0465  0.7501
 2003TIP3   OH2 5965   3.712   1.536   2.139 -0.2863  0.2585 -0.2181
 2003TIP3    H1 5966   3.765   1.566   2.065  0.2288  0.8912  0.3849
 2003TIP3    H2 5967   3.672   1.455   2.109  3.5633 -2.0891  0.3652
 2004TIP3   OH2 5968   7.360   3.670   0.700  0.4284  0.9714 -0.4356
 2004TIP3    H1 5969   7.320   3.614   0.634  0.5409  0.2178  0.1307
 2004TIP3    H2 5970   7.287   3.712   0.744  0.3661  2.2234 -1.6504
 2005TIP3   OH2 5971   7.963   5.921   5.856 -0.0891 -0.3625  0.3133
 2005TIP3    H1 5972   7.956   5.829   5.881 -0.6791 -0.2039  0.7491
 2005TIP3    H2 5973   8.008   5.919   5.771  0.4315 -1.0076  0.6001
 2006TIP3   OH2 5974   0.415   4.257   5.951  0.2343 -0.0610 -0.5929
 2006TIP3    H1 5975   0.485   4.320   5.967  0.5301 -0.2243 -1.1879
 2006TIP3    H2 5976   0.380   4.237   6.037  0.0456  1.0124 -0.4125
 2007TIP3   OH2 5977   0.186   7.727   1.807  0.1962 -0.0078 -0.1006
 2007TIP3    H1 5978   0.151   7.638   1.817 -1.6692  0.6272 -0.5346
 2007TIP3    H2 5979   0.114   7.783   1.834  1.0808  1.3973 -0.5893
 2008TIP3   OH2 5980   1.691   5.308   5.768  0.0747 -0.0948  0.3129
 2008TIP3    H1 5981   1.679   5.303   5.673 -1.7391  1.7952  0.3786
 2008TIP3    H2 5982   1.764   5.367   5.781 -0.6167  0.8367  0.0744
 2009TIP3   OH2 5983   2.016   2.675   0.882 -0.1388 -0.5826  0.6396
 2009TIP3    H1 5984   2.012   2.676   0.786 -1.7246  1.4884  0.6733
 2009TIP3    H2 5985   2.107   2.651   0.901  0.5771  0.2715 -1.4073
 2010TIP3   OH2 5986   6.913   1.765   2.897  0.2980  0.5844  0.0174
 2010TIP3    H1 5987   6.900   1.782   2.804  2.6868  1.4012 -0.2364
 2010TIP3    H2 5988   6.987   1.705   2.901 -0.5570 -0.4418  1.3747
 2011TIP3   OH2 5989   0.055   7.699   3.496  0.4958 -0.1913  0.0195
 2011TIP3    H1 5990   0.075   7.746   3.577 -0.1957  0.2472 -0.0634
 2011TIP3    H2 5991  -0.040   7.686   3.498  0.6085 -1.1176 -0.2106
 2012TIP3   OH2 5992   7.570   1.677   0.397  0.2231 -0.1914  0.2793
 2012TIP3    H1 5993   7.519   1.675   0.478 -0.5774  0.0121 -0.2143
 2012TIP3    H2 5994   7.661   1.676   0.427 -0.0609 -0.9184  1.1523
 2013TIP3   OH2 5995   8.203   0.068   2.622 -0.7647  0.3645  0.8328
 2013TIP3    H1 5996   8.224   0.063   2.528  1.8338 -1.0856  1.3821
 2013TIP3    H2 5997   8.258   0.139   2.655  0.4206 -0.8447  1.6285
 2014TIP3   OH2 5998   6.549   2.560   2.253 -0.0867 -0.3622 -0.5000
 2014TIP3    H1 5999   6.579   2.630   2.311  1.3260  0.1009 -1.6970
 2014TIP3    H2 6000   6.575   2.480   2.297 -0.2454 -0.0689  0.1361
 2015TIP3   OH2 6001   3.317   4.228   6.620  0.5807 -0.4355 -0.1281
 2015TIP3    H1 6002   3.267   4.254   6.543  0.2317  2.1757  0.9041
 2015TIP3    H2 6003   3.399   4.193   6.584  0.3430  0.5319 -1.6989
 2016TIP3   OH2 6004   5.614   0.354   0.855 -0.1634  0.2265  0.6511
 2016TIP3    H1 6005   5.696   0.402   0.856  0.0190  0.0185 -0.8805
 2016TIP3    H2 6006   5.570   0.383   0.774 -1.1425 -0.3814  0.9412
 2017TIP3   OH2 6007   5.308   2.512   2.702  0.2990 -0.3012 -0.2938
 2017TIP3    H1 6008   5.265   2.472   2.626 -0.5414  0.4754 -0.2411
 2017TIP3    H2 6009   5.353   2.589   2.667 -1.3804  0.9638  0.1965
 2018TIP3   OH2 6010   6.029   3.227   2.160  0.4112  0.1748  0.0228
 2018TIP3    H1 6011   5.982   3.259   2.237 -0.2299  0.2335 -0.3869
 2018TIP3    H2 6012   6.094   3.295   2.142  0.1673  0.4473  0.1585
 2019TIP3   OH2 6013   1.956   3.105   3.683 -0.5206  0.4514 -0.3460
 2019TIP3    H1 6014   1.973   3.082   3.774  0.4247  0.4994 -0.5073
 2019TIP3    H2 6015   1.860   3.105   3.676 -0.5960  0.2632  0.5941
 2020TIP3   OH2 6016   3.755   4.809   2.069  0.2859 -0.1997  0.1860
 2020TIP3    H1 6017   3.727   4.753   2.141  0.7047 -0.1491  0.3894
 2020TIP3    H2 6018   3.722   4.896   2.091 -0.9696 -0.4935 -0.4718
 2021TIP3   OH2 6019   7.397   7.102   3.792  0.4609 -0.2580  0.0057
 2021TIP3    H1 6020   7.383   7.088   3.699 -2.7605  0.9785  0.1771
 2021TIP3    H2 6021   7.395   7.013   3.830  1.4402 -0.7364 -1.0031
 2022TIP3   OH2 6022   5.043   1.197   4.366 -1.0492  0.4501 -0.0106
 2022TIP3    H1 6023   5.047   1.291   4.345 -0.7743  0.3196 -0.5471
 2022TIP3    H2 6024   5.034   1.153   4.282  1.0072 -0.1229 -0.0020
 2023TIP3   OH2 6025   7.967   0.975   5.431  0.2401 -0.5813  0.5780
 2023TIP3    H1 6026   7.974   0.935   5.344 -1.1682 -0.6919  0.4962
 2023TIP3    H2 6027   8.027   1.050   5.428 -1.0416  0.4508 -1.1008
 2024TIP3   OH2 6028   0.106   0.392   1.995  0.4543  0.0698  0.4082
 2024TIP3    H1 6029   0.088   0.326   2.062 -0.5405 -0.8252 -0.6853
 2024TIP3    H2 6030   0.092   0.346   1.912  0.7768  1.3820 -0.4069
 2025TIP3   OH2 6031   3.967   7.284   6.385 -0.0147 -0.1323  0.9999
 2025TIP3    H1 6032   3.889   7.329   6.418  0.4044  1.7086 -0.3072
 2025TIP3    H2 6033   3.985   7.215   6.448 -2.1114  0.0530  1.8579
 2026TIP3   OH2 6034   0.674   7.040   1.022 -0.0369  0.3117  0.3598
 2026TIP3    H1 6035   0.686   7.113   1.082  1.5320  0.2952  0.1059
 2026TIP3    H2 6036   0.588   7.005   1.044  0.7881 -0.2172  3.1590
 2027TIP3   OH2 6037   7.310   4.665   2.353 -0.1283  0.1956  0.2638
 2027TIP3    H1 6038   7.228   4.701   2.318 -1.0506 -1.5020  0.5490
 2027TIP3    H2 6039   7.357   4.742   2.387 -1.6126  1.2215  0.1250
 2028TIP3   OH2 6040   2.891   5.073   1.223 -0.3627  0.3671  0.8535
 2028TIP3    H1 6041   2.943   4.999   1.253 -0.7231 -0.3599 -0.2683
 2028TIP3    H2 6042   2.803   5.038   1.212 -0.5759  0.9962  0.4753
 2029TIP3   OH2 6043   7.977   0.792   5.671 -0.3198  0.9418 -0.0447
 2029TIP3    H1 6044   7.963   0.866   5.612  2.3847  2.3516  0.8841
 2029TIP3    H2 6045   8.046   0.740   5.629  1.4170  1.7893  1.5836
 2030TIP3   OH2 6046   1.527   3.770   2.371 -0.4765 -0.0441 -0.3655
 2030TIP3    H1 6047   1.579   3.732   2.441  1.7892 -0.0493 -1.9579
 2030TIP3    H2 6048   1.436   3.749   2.395  0.4119 -4.5384  0.0225
 2031TIP3   OH2 6049   7.911   3.644   4.260  0.5604  0.0080 -0.6474
 2031TIP3    H1 6050   7.964   3.601   4.194 -0.9153  0.8400 -2.4780
 2031TIP3    H2 6051   7.821   3.640   4.226 -0.1626  1.0879  0.9684
 2032TIP3   OH2 6052   6.224   1.267   1.163  0.7608 -0.0019 -0.0896
 2032TIP3    H1 6053   6.256   1.177   1.166 -1.2017 -1.0686 -4.2641
 2032TIP3    H2 6054   6.267   1.305   1.086 -0.1150  1.9377  0.3149
 2033TIP3   OH2 6055   3.482   7.610   5.464 -0.7624 -0.3328  0.3541
 2033TIP3    H1 6056   3.507   7.627   5.373  1.6283 -2.0008  0.6145
 2033TIP3    H2 6057   3.517   7.685   5.512  0.4788 -0.8237  0.2350
 2034TIP3   OH2 6058   4.722   0.588   2.986 -0.2469  0.0983  0.3507
 2034TIP3    H1 6059   4.651   0.635   2.944 -0.5609 -0.6730 -0.0139
 2034TIP3    H2 6060   4.794   0.591   2.923 -0.2819  0.0622  0.3084
 2035TIP3   OH2 6061   3.397   5.335   5.202 -0.1520  0.3919 -0.1467
 2035TIP3    H1 6062   3.367   5.425   5.208 -0.2599  0.6434 -2.9864
 2035TIP3    H2 6063   3.491   5.339   5.223 -0.4209  0.8979  1.0381
 2036TIP3   OH2 6064   1.563   4.245   1.410 -0.6749 -0.3253 -0.2703
 2036TIP3    H1 6065   1.600   4.198   1.485 -0.9074  1.2269  0.8611
 2036TIP3    H2 6066   1.500   4.306   1.448 -1.7628 -0.3884 -1.8570
 2037TIP3   OH2 6067   6.025   4.775   3.718 -0.0321 -0.2214 -0.3758
 2037TIP3    H1 6068   6.024   4.727   3.801  1.7278  0.7661  0.2676
 2037TIP3    H2 6069   5.933   4.797   3.703 -0.4281 -0.6627  1.1816
 2038TIP3   OH2 6070   4.336   0.646   1.357 -0.0739 -0.7661 -0.1327
 2038TIP3    H1 6071   4.296   0.620   1.439  1.4165  1.8123  1.5420
 2038TIP3    H2 6072   4.431   0.637   1.371  0.2781  0.9597 -1.0465
 2039TIP3   OH2 6073   3.599   6.733   5.682 -0.6432 -0.6600  0.1344
 2039TIP3    H1 6074   3.569   6.662   5.627  0.3365 -0.0870 -1.1908
 2039TIP3    H2 6075   3.519   6.775   5.714 -1.2184 -2.0547  0.5643
 2040TIP3   OH2 6076   7.157   5.165   3.647  0.1197 -0.2473  0.2576
 2040TIP3    H1 6077   7.211   5.131   3.576 -0.9242 -1.2848 -0.0647
 2040TIP3    H2 6078   7.134   5.253   3.620 -0.5040 -0.7347 -0.8369
 2041TIP3   OH2 6079   3.678   6.100   6.203 -0.3696 -0.1636 -0.3214
 2041TIP3    H1 6080   3.762   6.064   6.175 -0.1042 -0.0750  0.3384
 2041TIP3    H2 6081   3.621   6.093   6.126  0.0100 -0.9450 -0.5311
 2042TIP3   OH2 6082   8.187   0.839   3.441 -0.3776 -0.4378 -0.4805
 2042TIP3    H1 6083   8.248   0.857   3.513 -0.4155 -0.0289 -0.5511
 2042TIP3    H2 6084   8.243   0.812   3.368 -0.3342 -0.7850 -0.3218
 2043TIP3   OH2 6085   7.992   4.107   6.498  0.3296  0.4674 -0.0317
 2043TIP3    H1 6086   7.939   4.028   6.490  0.7954  0.1461  0.0025
 2043TIP3    H2 6087   8.053   4.087   6.569 -0.6422  1.4873  1.1398
 2044TIP3   OH2 6088   6.311   5.467   0.199 -0.1008 -0.0020  0.2352
 2044TIP3    H1 6089   6.323   5.391   0.255 -0.7834  0.1519  0.6032
 2044TIP3    H2 6090   6.321   5.542   0.259  3.1952  0.3438 -0.5529
 2045TIP3   OH2 6091   6.719   0.798   4.955  0.2541 -0.2658 -0.1012
 2045TIP3    H1 6092   6.725   0.719   4.901  0.4132 -0.3217 -0.0012
 2045TIP3    H2 6093   6.810   0.819   4.977  0.1300 -0.8492  1.0397
 2046TIP3   OH2 6094   7.984   3.581   5.071 -0.3313 -0.3542 -0.6135
 2046TIP3    H1 6095   7.930   3.635   5.013  0.6122 -0.0786 -1.2611
 2046TIP3    H2 6096   8.024   3.516   5.013  0.7542  0.0222 -0.3161
 2047TIP3   OH2 6097   5.104   4.897   6.477 -0.4625  0.4662 -0.3569
 2047TIP3    H1 6098   5.102   4.973   6.536 -1.5412 -0.6632  1.1238
 2047TIP3    H2 6099   5.012   4.882   6.455 -0.1126  0.6944 -2.1919
 2048TIP3   OH2 6100   1.511   0.656   5.015 -0.1371 -0.2590  0.2926
 2048TIP3    H1 6101   1.529   0.621   4.927  0.8882 -0.6928  0.6506
 2048TIP3    H2 6102   1.416   0.664   5.019 -0.3485 -2.0440 -0.1955
 2049TIP3   OH2 6103   4.847   0.065   1.942 -0.3337  0.3524  0.4135
 2049TIP3    H1 6104   4.870   0.131   2.007 -0.0046  1.4304 -0.7499
 2049TIP3    H2 6105   4.897   0.089   1.864  0.2730 -1.6456  0.1286
 2050TIP3   OH2 6106   3.962   0.061   0.484  0.1713  0.6733 -0.1213
 2050TIP3    H1 6107   3.921   0.146   0.502 -1.3384 -0.2589  1.1014
 2050TIP3    H2 6108   3.926   0.034   0.400 -1.0979  0.2665  0.5303
 2051TIP3   OH2 6109   6.961   3.141   1.832  0.4233 -0.0447 -0.2495
 2051TIP3    H1 6110   6.907   3.217   1.811  0.5398 -0.3840 -1.9441
 2051TIP3    H2 6111   6.977   3.099   1.747  2.0590 -0.8112  0.3943
 2052TIP3   OH2 6112   6.904   1.917   3.137  0.0342  0.0918 -0.2990
 2052TIP3    H1 6113   6.907   1.859   3.061  0.6461 -2.8416  1.7734
 2052TIP3    H2 6114   6.996   1.928   3.163 -0.2522 -0.4611  1.0332
 2053TIP3   OH2 6115   7.201   3.751   4.656  0.0648 -0.5992  0.2384
 2053TIP3    H1 6116   7.132   3.715   4.599  0.9194 -1.8988 -0.0314
 2053TIP3    H2 6117   7.228   3.676   4.710  0.4134  0.2054  1.1973
 2054TIP3   OH2 6118   7.922   0.423   4.307 -0.5835  0.7287 -0.4247
 2054TIP3    H1 6119   7.895   0.439   4.397  0.2108 -1.2654  0.2145
 2054TIP3    H2 6120   7.942   0.510   4.272 -5.7554  2.2513 -0.3951
 2055TIP3   OH2 6121   2.834   4.806   0.833  0.2300 -0.5848  0.2633
 2055TIP3    H1 6122   2.886   4.870   0.785  0.9538 -0.2258  1.4811
 2055TIP3    H2 6123   2.897   4.760   0.888 -0.7196 -0.1006  1.8181
 2056TIP3   OH2 6124   4.723   2.233   4.056 -1.0385 -0.1968  0.1343
 2056TIP3    H1 6125   4.742   2.162   4.117 -2.2690 -1.1800 -0.5815
 2056TIP3    H2 6126   4.717   2.190   3.971 -1.1553  0.8830 -0.4216
 2057TIP3   OH2 6127   6.738   3.574   1.782 -0.2346 -0.0417 -0.9038
 2057TIP3    H1 6128   6.710   3.634   1.713 -1.3862  1.1172  0.5048
 2057TIP3    H2 6129   6.789   3.507   1.736  0.9651  1.8907 -2.5714
 2058TIP3   OH2 6130   1.470   0.202   3.723 -0.3357  0.2564 -0.2043
 2058TIP3    H1 6131   1.432   0.118   3.698  1.0338 -0.4735  0.0731
 2058TIP3    H2 6132   1.564   0.184   3.734  0.2179  2.0988 -1.4222
 2059TIP3   OH2 6133   3.131   0.645   1.750 -0.2221 -0.1560 -0.0383
 2059TIP3    H1 6134   3.114   0.712   1.683  1.3636 -1.0439 -1.4026
 2059TIP3    H2 6135   3.167   0.571   1.701  0.9087 -0.8763  1.7933
 2060TIP3   OH2 6136   0.625   7.801   0.007  0.3096  0.6522 -0.4472
 2060TIP3    H1 6137   0.642   7.849   0.089 -0.6757  1.9182 -0.9581
 2060TIP3    H2 6138   0.553   7.742   0.028 -0.0987  1.1408 -0.4405
 2061TIP3   OH2 6139   7.213   2.767   0.826 -0.5131  0.3512  0.5455
 2061TIP3    H1 6140   7.153   2.692   0.834 -0.2720 -0.1853 -1.8130
 2061TIP3    H2 6141   7.157   2.843   0.840 -1.3466 -0.1975  0.2967
 2062TIP3   OH2 6142   2.854   6.194   1.540 -0.2745  0.2114  0.9229
 2062TIP3    H1 6143   2.831   6.280   1.574  0.9316  1.1722 -0.5756
 2062TIP3    H2 6144   2.823   6.194   1.450 -0.2810 -0.9360  0.9042
 2063TIP3   OH2 6145   1.696   4.296   6.195 -0.2329 -0.0752  0.6958
 2063TIP3    H1 6146   1.770   4.250   6.153  0.0255  1.2882 -0.4276
 2063TIP3    H2 6147   1.679   4.371   6.137 -1.6914  0.3361  1.6138
 2064TIP3   OH2 6148   0.502   5.980   6.083  0.1396 -0.0365  0.3620
 2064TIP3    H1 6149   0.481   5.914   6.148 -2.4056  0.8514  0.5735
 2064TIP3    H2 6150   0.425   5.982   6.025  0.7676  1.7086 -0.4954
 2065TIP3   OH2 6151   5.722   2.549   2.444 -0.4758 -0.1996 -0.0607
 2065TIP3    H1 6152   5.668   2.628   2.452  1.5046  1.0320  2.5445
 2065TIP3    H2 6153   5.791   2.573   2.382  1.2293  0.9329  2.1368
 2066TIP3   OH2 6154   4.178   4.002   0.967 -0.0934 -0.3188 -0.4584
 2066TIP3    H1 6155   4.213   3.977   0.882  0.4104 -0.4179 -0.2212
 2066TIP3    H2 6156   4.229   4.079   0.993 -0.7397  0.1590 -0.5777
 2067TIP3   OH2 6157   0.382   3.222   4.319 -0.4577  0.3601  0.6775
 2067TIP3    H1 6158   0.470   3.240   4.287 -0.8363  2.6770  0.7655
 2067TIP3    H2 6159   0.345   3.308   4.338 -3.4711 -0.3756 -1.2303
 2068TIP3   OH2 6160   2.541   7.651   3.219  0.4038  0.1467 -0.0720
 2068TIP3    H1 6161   2.536   7.725   3.160  1.0278 -0.4472 -0.8983
 2068TIP3    H2 6162   2.509   7.576   3.168  0.2054 -0.2447  0.5965
 2069TIP3   OH2 6163   1.164   3.898   5.198  0.5162 -0.6198 -0.3155
 2069TIP3    H1 6164   1.213   3.827   5.241  0.3064  0.0157  1.0221
 2069TIP3    H2 6165   1.072   3.874   5.208  0.4153  0.1299  0.7109
 2070TIP3   OH2 6166   7.124   0.727   6.328  0.3767 -0.0448 -0.3839
 2070TIP3    H1 6167   7.046   0.703   6.279 -0.1922 -0.0945  0.5238
 2070TIP3    H2 6168   7.197   0.692   6.276 -0.2076 -0.1748 -1.1306
 2071TIP3   OH2 6169   8.262   3.720   0.725 -0.3158 -0.5899  0.0367
 2071TIP3    H1 6170   8.281   3.639   0.771 -0.3350 -1.2043 -1.0160
 2071TIP3    H2 6171   8.192   3.761   0.776  0.9181 -0.3323  1.5933
 2072TIP3   OH2 6172   3.367   4.662   6.173  0.3733  0.3593  0.4543
 2072TIP3    H1 6173   3.460   4.640   6.174  0.2977 -0.1058 -1.0742
 2072TIP3    H2 6174   3.337   4.639   6.261  1.4621 -0.5821  0.6148
 2073TIP3   OH2 6175   7.954   0.966   0.957  0.4892 -0.3368 -0.0402
 2073TIP3    H1 6176   7.940   0.961   1.051 -0.6290  1.0576 -0.0938
 2073TIP3    H2 6177   8.043   0.936   0.944  1.3220  1.2010  1.6902
 2074TIP3   OH2 6178   7.757   0.095   5.482 -0.1171 -0.0418 -0.3081
 2074TIP3    H1 6179   7.780   0.054   5.565 -0.3045 -0.1217 -0.2958
 2074TIP3    H2 6180   7.830   0.153   5.462  1.1780 -1.9240 -1.3706
 2075TIP3   OH2 6181   4.751   5.583   0.634  0.0792  0.4896 -0.5220
 2075TIP3    H1 6182   4.806   5.546   0.702 -1.3377 -0.1720  0.3115
 2075TIP3    H2 6183   4.785   5.671   0.621  0.5794  0.5132  0.8022
 2076TIP3   OH2 6184   7.500   0.340   1.951  0.5989  0.5507  0.5440
 2076TIP3    H1 6185   7.408   0.315   1.965  1.0480 -0.8179  1.1817
 2076TIP3    H2 6186   7.535   0.353   2.039  0.9546  1.3181  0.2902
 2077TIP3   OH2 6187   6.568   1.058   1.979 -0.0163 -0.0230 -0.4273
 2077TIP3    H1 6188   6.539   0.995   1.913 -0.4547  0.1392 -0.3914
 2077TIP3    H2 6189   6.583   1.139   1.931 -0.4378  0.1248 -0.3187
 2078TIP3   OH2 6190   0.304   6.469   2.689 -0.8360  0.1590 -0.3674
 2078TIP3    H1 6191   0.364   6.395   2.700 -0.1948  0.7354  0.0847
 2078TIP3    H2 6192   0.272   6.488   2.777 -1.0898  0.3411 -0.4970
 2079TIP3   OH2 6193   1.389   1.767   2.442  0.3826 -0.5180 -0.0182
 2079TIP3    H1 6194   1.377   1.744   2.534 -0.5814  1.6632  0.4617
 2079TIP3    H2 6195   1.483   1.756   2.426  0.8301  0.5670  1.6762
 2080TIP3   OH2 6196   1.758   1.887   3.455 -0.0741 -0.8387 -0.0485
 2080TIP3    H1 6197   1.697   1.957   3.479  1.1288 -0.5067  2.3607
 2080TIP3    H2 6198   1.721   1.809   3.495 -0.7286 -1.3770 -1.6294
 2081TIP3   OH2 6199   5.549   0.562   1.744 -0.0640 -0.1335 -0.5885
 2081TIP3    H1 6200   5.641   0.541   1.758 -0.2009 -1.8504 -1.9348
 2081TIP3    H2 6201   5.508   0.553   1.831  1.1448  1.5836  0.2137
 2082TIP3   OH2 6202   7.405   3.832   1.734  0.4719  0.3398 -1.0834
 2082TIP3    H1 6203   7.424   3.899   1.800  0.9396  0.3591 -1.2338
 2082TIP3    H2 6204   7.357   3.764   1.782 -0.1835  0.8674 -0.9716
 2083TIP3   OH2 6205   4.755   2.318   4.384 -0.0104  0.6432 -0.2352
 2083TIP3    H1 6206   4.819   2.336   4.315  0.9891  1.1096  0.7733
 2083TIP3    H2 6207   4.725   2.228   4.366  1.0028  0.3825 -0.6909
 2084TIP3   OH2 6208   3.489   2.648   4.149 -0.3106  0.1605  0.6555
 2084TIP3    H1 6209   3.502   2.584   4.219 -0.0720 -1.0159 -0.4351
 2084TIP3    H2 6210   3.426   2.710   4.185 -1.3737 -1.2817  1.3600
 2085TIP3   OH2 6211   6.755   2.802   6.635  0.2878  0.5141  0.6530
 2085TIP3    H1 6212   6.708   2.789   6.716  0.2246 -0.6238  0.4401
 2085TIP3    H2 6213   6.708   2.874   6.591 -1.6474 -0.9686  0.1679
 2086TIP3   OH2 6214   3.921   3.214   1.787 -0.0230 -0.7315 -0.3082
 2086TIP3    H1 6215   3.901   3.294   1.737 -1.1051  1.0742  2.7312
 2086TIP3    H2 6216   3.847   3.155   1.768 -1.5588  0.7622  0.7165
 2087TIP3   OH2 6217   5.735   0.120   3.350  0.1340 -0.2202 -0.2837
 2087TIP3    H1 6218   5.640   0.109   3.363 -0.0093  2.0495  1.2974
 2087TIP3    H2 6219   5.742   0.189   3.284  0.7095 -0.9596 -0.9987
 2088TIP3   OH2 6220   2.301   6.636   6.011  0.1346 -0.4671 -0.0993
 2088TIP3    H1 6221   2.344   6.683   6.083 -0.6834 -1.0814  0.8147
 2088TIP3    H2 6222   2.364   6.641   5.939  1.6012 -1.0528  1.0913
 2089TIP3   OH2 6223   6.120   1.283   1.428 -0.5847 -1.0305 -0.1346
 2089TIP3    H1 6224   6.140   1.269   1.336  0.3570  3.1621 -0.7924
 2089TIP3    H2 6225   6.206   1.285   1.471 -0.8033 -0.1803  0.2815
 2090TIP3   OH2 6226   1.951   1.000   3.282 -0.0145  0.2788  0.6573
 2090TIP3    H1 6227   1.875   0.945   3.264  0.2287  0.3553 -0.6774
 2090TIP3    H2 6228   1.972   0.982   3.374 -1.7508  0.4174  1.1127
 2091TIP3   OH2 6229   6.167   6.999   3.311  0.4455 -0.8701 -0.2436
 2091TIP3    H1 6230   6.109   6.971   3.240 -3.4983  2.5570  1.1668
 2091TIP3    H2 6231   6.122   6.969   3.390 -0.0253  2.5705  0.9534
 2092TIP3   OH2 6232   5.165   1.848   1.213 -0.7102 -0.1958  0.4012
 2092TIP3    H1 6233   5.212   1.771   1.179  1.4232  0.9172  0.6459
 2092TIP3    H2 6234   5.145   1.826   1.304  2.1297  0.3982  1.2600
 2093TIP3   OH2 6235   3.772   5.574   4.860  0.1304  0.0894 -0.2119
 2093TIP3    H1 6236   3.814   5.517   4.925 -1.2926 -0.9863 -0.1954
 2093TIP3    H2 6237   3.680   5.578   4.887  0.0757  1.9794 -0.5391
 2094TIP3   OH2 6238   8.029   7.394   2.117 -0.2616  0.4677 -0.2672
 2094TIP3    H1 6239   8.046   7.417   2.208 -0.5341  2.8769 -0.7514
 2094TIP3    H2 6240   7.982   7.311   2.121  0.6160  0.0267  1.7044
 2095TIP3   OH2 6241   5.025   3.760   5.421  0.2886  0.0245 -0.5118
 2095TIP3    H1 6242   4.991   3.753   5.510  0.0437  2.0187 -0.4174
 2095TIP3    H2 6243   4.976   3.693   5.372  0.2764 -0.9612  0.7677
 2096TIP3   OH2 6244   0.520   3.446   4.744 -0.2359  0.2097 -0.1929
 2096TIP3    H1 6245   0.454   3.515   4.746 -0.5440 -0.0244 -1.3614
 2096TIP3    H2 6246   0.484   3.377   4.799 -0.1540  0.7777  0.5836
 2097TIP3   OH2 6247   0.181   4.392   0.760 -0.0443 -0.6097  0.2985
 2097TIP3    H1 6248   0.196   4.479   0.722  1.7573 -1.2126 -0.5131
 2097TIP3    H2 6249   0.087   4.388   0.776  0.0935  2.4526  2.8177
 2098TIP3   OH2 6250   3.642   0.129   6.501  1.0159  0.0811 -0.3205
 2098TIP3    H1 6251   3.705   0.057   6.498 -0.3086 -1.2471  1.6129
 2098TIP3    H2 6252   3.633   0.149   6.594 -2.1108 -0.4353 -0.4262
 2099TIP3   OH2 6253   4.848   5.259   1.289  0.0302  0.2522 -0.0177
 2099TIP3    H1 6254   4.892   5.200   1.228 -0.8588 -2.2912  1.6369
 2099TIP3    H2 6255   4.919   5.301   1.337  0.6842  0.1488 -0.8664
 2100TIP3   OH2 6256   7.453   4.373   3.756 -0.1697 -0.4574 -0.4623
 2100TIP3    H1 6257   7.535   4.388   3.710 -0.4251 -0.6061 -0.9760
 2100TIP3    H2 6258   7.410   4.459   3.758  0.1227 -0.3153  0.0690
 2101TIP3   OH2 6259   3.868   4.431   4.860 -0.7426 -0.3576 -0.2766
 2101TIP3    H1 6260   3.842   4.353   4.811 -1.3079  0.3196 -1.0822
 2101TIP3    H2 6261   3.803   4.440   4.929 -0.4308 -0.8316  0.0861
 2102TIP3   OH2 6262   3.586   7.719   2.789  0.1897  0.3714 -0.1499
 2102TIP3    H1 6263   3.519   7.742   2.853 -0.0053  2.4702 -1.0316
 2102TIP3    H2 6264   3.549   7.645   2.741 -0.9563  0.7013  0.2060
 2103TIP3   OH2 6265   1.054   1.097   2.961  0.9219 -0.1926  0.2347
 2103TIP3    H1 6266   1.142   1.060   2.955  0.5056 -0.9735 -2.1631
 2103TIP3    H2 6267   0.996   1.020   2.956  0.0831  0.4425 -0.0426
 2104TIP3   OH2 6268   5.298   2.929   5.211  0.4516 -0.0714  0.3118
 2104TIP3    H1 6269   5.284   3.020   5.238 -1.4647 -0.4216  0.6388
 2104TIP3    H2 6270   5.235   2.915   5.140  1.9165 -0.6688 -0.9155
 2105TIP3   OH2 6271   5.797   5.365   0.291  0.3883 -0.4434  0.1922
 2105TIP3    H1 6272   5.830   5.279   0.263  1.1244  0.3125 -1.4054
 2105TIP3    H2 6273   5.737   5.391   0.221 -0.2507  0.1405  0.9325
 2106TIP3   OH2 6274   8.216   1.660   5.499  0.0992 -0.3870 -0.2029
 2106TIP3    H1 6275   8.213   1.734   5.438  0.0854 -1.5165 -1.6453
 2106TIP3    H2 6276   8.268   1.691   5.573 -0.2471  1.1763 -0.5801
 2107TIP3   OH2 6277   0.711   0.625   0.123 -0.0173 -0.0540  0.3924
 2107TIP3    H1 6278   0.645   0.588   0.065  1.5575  0.2889 -1.7111
 2107TIP3    H2 6279   0.662   0.687   0.178 -1.5391 -0.3027 -0.6340
 2108TIP3   OH2 6280   6.825   1.434   0.976  0.5124  0.6193  0.0392
 2108TIP3    H1 6281   6.733   1.457   0.982 -0.3790 -1.6596 -2.6599
 2108TIP3    H2 6282   6.861   1.496   0.912  0.5807  0.7304  0.1828
 2109TIP3   OH2 6283   5.028   5.421   5.403  0.3659 -0.0817  0.0206
 2109TIP3    H1 6284   5.025   5.390   5.493  0.4691  0.7415  0.3165
 2109TIP3    H2 6285   5.067   5.350   5.353 -0.3706 -0.8352  0.4974
 2110TIP3   OH2 6286   3.102   7.751   2.146  0.2444  0.3687  0.3457
 2110TIP3    H1 6287   3.097   7.656   2.158 -0.0312  0.2368 -0.7112
 2110TIP3    H2 6288   3.055   7.787   2.221  1.2659 -0.2772  1.3455
 2111TIP3   OH2 6289   1.126   5.860   1.352 -0.1377  0.1916  0.1622
 2111TIP3    H1 6290   1.148   5.932   1.412 -1.4933 -0.0019  0.9342
 2111TIP3    H2 6291   1.056   5.813   1.396  0.6801 -1.5968 -0.3627
 2112TIP3   OH2 6292   8.036   1.604   2.059 -0.1422 -0.1741  0.4728
 2112TIP3    H1 6293   8.018   1.698   2.050 -1.0241 -0.2329  1.4973
 2112TIP3    H2 6294   7.965   1.571   2.114  0.6252 -1.2831  0.8245
 2113TIP3   OH2 6295   0.814   4.339   5.010  0.0355 -0.3643 -0.0957
 2113TIP3    H1 6296   0.873   4.414   5.021  0.2944 -0.7253  1.2142
 2113TIP3    H2 6297   0.860   4.266   5.051 -0.2073 -1.2633 -1.3888
 2114TIP3   OH2 6298   3.385   7.459   6.394 -0.2200 -0.0344 -0.0642
 2114TIP3    H1 6299   3.340   7.502   6.322  0.2121 -0.0248 -0.3343
 2114TIP3    H2 6300   3.469   7.504   6.400 -0.1876 -0.1430  0.3417
 2115TIP3   OH2 6301   7.170   3.045   4.242  0.0482 -0.1571 -0.1319
 2115TIP3    H1 6302   7.150   3.035   4.335 -1.3569  0.4058 -0.3495
 2115TIP3    H2 6303   7.142   3.134   4.221  2.3890  0.5393 -0.6312
 2116TIP3   OH2 6304   5.126   1.858   4.701 -0.4071  0.7609  0.3972
 2116TIP3    H1 6305   5.132   1.879   4.608  0.1743 -2.1184 -0.2892
 2116TIP3    H2 6306   5.070   1.780   4.705  0.0679  0.4593  2.4107
 2117TIP3   OH2 6307   5.376   2.388   3.353  0.0224 -0.3598  0.3099
 2117TIP3    H1 6308   5.301   2.391   3.413  0.2047 -1.7918  0.6496
 2117TIP3    H2 6309   5.452   2.399   3.409  0.2557 -2.7312  0.5470
 2118TIP3   OH2 6310   1.684   5.197   2.182 -0.2269 -0.2934 -0.5890
 2118TIP3    H1 6311   1.776   5.194   2.205 -0.2659 -2.4759 -0.5578
 2118TIP3    H2 6312   1.641   5.140   2.246 -1.4103 -0.3236 -1.3743
 2119TIP3   OH2 6313   0.886   2.480   6.070  0.0811  0.8358  0.2727
 2119TIP3    H1 6314   0.959   2.494   6.010 -0.9321 -0.0374 -1.2398
 2119TIP3    H2 6315   0.922   2.499   6.157  2.2769 -0.2429 -0.3259
 2120TIP3   OH2 6316   4.810   1.827   2.710  0.2889  0.0719  0.4043
 2120TIP3    H1 6317   4.894   1.795   2.679  0.2322  0.1405  0.1799
 2120TIP3    H2 6318   4.816   1.824   2.806  0.9074  1.0162  0.4090
 2121TIP3   OH2 6319   1.471   6.120   3.041  0.1471  0.4556  0.5866
 2121TIP3    H1 6320   1.434   6.063   2.974  1.1041  1.0566 -0.4973
 2121TIP3    H2 6321   1.566   6.113   3.028  0.3089  1.3516  1.2258
 2122TIP3   OH2 6322   7.950   2.434   0.785  0.2751 -0.3601 -0.2016
 2122TIP3    H1 6323   7.998   2.397   0.860  0.0871 -0.5537 -0.1775
 2122TIP3    H2 6324   7.885   2.367   0.763  1.4316 -1.0653 -1.6207
 2123TIP3   OH2 6325   1.028   0.609   1.854 -0.9360 -0.0194  0.2538
 2123TIP3    H1 6326   0.969   0.656   1.794 -0.9541  0.4537  0.6359
 2123TIP3    H2 6327   1.106   0.591   1.801 -1.4846 -0.8208 -0.3154
 2124TIP3   OH2 6328   3.488   0.532   6.094  0.6598 -0.1254  0.0242
 2124TIP3    H1 6329   3.399   0.538   6.131  0.8683  0.4726  0.4447
 2124TIP3    H2 6330   3.494   0.443   6.061 -0.3102 -0.0017 -0.5448
 2125TIP3   OH2 6331   0.228   6.845   2.696  0.5827 -0.0423 -0.0437
 2125TIP3    H1 6332   0.219   6.939   2.684  0.9350 -0.2419 -2.2584
 2125TIP3    H2 6333   0.140   6.815   2.716  0.4553  0.7240  0.6079
 2126TIP3   OH2 6334   2.073   3.137   3.448  0.2609 -0.3370 -0.1217
 2126TIP3    H1 6335   2.054   3.048   3.421  1.1015 -0.7763  0.6848
 2126TIP3    H2 6336   2.021   3.150   3.528 -0.4134  0.1541 -0.6237
 2127TIP3   OH2 6337   5.806   1.752   1.610 -0.2221  0.3021 -0.3319
 2127TIP3    H1 6338   5.853   1.768   1.529 -1.0567 -0.4624 -0.9912
 2127TIP3    H2 6339   5.811   1.657   1.622 -0.1848  0.3982  0.4673
 2128TIP3   OH2 6340   1.154   7.333   4.713  0.4055 -0.1836  0.2127
 2128TIP3    H1 6341   1.191   7.389   4.782  0.0953  0.6213 -0.2570
 2128TIP3    H2 6342   1.073   7.298   4.751 -0.4049  1.2197 -0.1327
 2129TIP3   OH2 6343   0.180   0.901   4.424 -0.0404  0.7109  0.0049
 2129TIP3    H1 6344   0.264   0.899   4.380  0.0191  0.2808  0.1290
 2129TIP3    H2 6345   0.160   0.809   4.442  0.4644  0.9252  1.8718
 2130TIP3   OH2 6346   4.218   4.756   1.380 -0.1580  0.1987  0.1990
 2130TIP3    H1 6347   4.136   4.738   1.427  0.5001 -0.7955  1.0206
 2130TIP3    H2 6348   4.259   4.826   1.430 -0.3573  0.4753 -0.0250
 2131TIP3   OH2 6349   4.909   2.508   0.443  0.4858  0.0629  0.1301
 2131TIP3    H1 6350   4.909   2.599   0.413 -0.2033 -0.2815 -0.9513
 2131TIP3    H2 6351   4.888   2.457   0.365  3.3344 -1.2533  0.1239
 2132TIP3   OH2 6352   3.191   1.358   4.139  0.2136 -0.1016  0.4531
 2132TIP3    H1 6353   3.147   1.430   4.095 -1.1408 -0.2602  1.4825
 2132TIP3    H2 6354   3.139   1.342   4.218  1.5713 -0.9527  1.2259
 2133TIP3   OH2 6355   6.262   0.120   5.297  0.5284  0.2656  0.1244
 2133TIP3    H1 6356   6.333   0.061   5.320  0.2227 -0.8149 -1.5349
 2133TIP3    H2 6357   6.227   0.150   5.381  2.0357 -0.2519  0.9733
 2134TIP3   OH2 6358   0.367   4.860   4.429  0.4177 -0.1492 -0.1153
 2134TIP3    H1 6359   0.325   4.873   4.344  1.3649 -0.4297 -0.6442
 2134TIP3    H2 6360   0.459   4.881   4.414  0.3156  1.5765  1.2971
 2135TIP3   OH2 6361   6.151   0.359   0.184 -0.3697 -0.2196  0.0913
 2135TIP3    H1 6362   6.202   0.323   0.256 -0.5482 -0.6546  0.0082
 2135TIP3    H2 6363   6.110   0.282   0.143 -1.2322  0.1306  0.2707
 2136TIP3   OH2 6364   2.625   7.432   4.899 -0.8763 -0.2494  0.1717
 2136TIP3    H1 6365   2.715   7.459   4.880 -0.4706 -0.2908  1.8888
 2136TIP3    H2 6366   2.571   7.489   4.845  0.1654  0.0800 -0.5506
 2137TIP3   OH2 6367   0.605   5.891   1.788  0.0106  0.0561  0.2932
 2137TIP3    H1 6368   0.560   5.815   1.824  0.2025  0.5991  1.7758
 2137TIP3    H2 6369   0.536   5.957   1.777 -0.2420 -0.4443 -1.4468
 2138TIP3   OH2 6370   4.391   7.652   3.839  0.2466 -0.1160  0.0069
 2138TIP3    H1 6371   4.466   7.610   3.881  1.2210 -0.7280 -2.2305
 2138TIP3    H2 6372   4.428   7.709   3.773 -1.2412 -0.2321 -0.9854
 2139TIP3   OH2 6373   4.599   4.151   3.094 -0.0591  0.5120 -0.7965
 2139TIP3    H1 6374   4.578   4.154   3.187 -0.5769  0.1552 -0.8973
 2139TIP3    H2 6375   4.522   4.112   3.053  1.0379 -1.4547 -1.0986
 2140TIP3   OH2 6376   4.933   0.483   3.833  0.1918 -0.3223  0.3329
 2140TIP3    H1 6377   4.982   0.428   3.772  1.6699  0.0727  1.1311
 2140TIP3    H2 6378   4.841   0.465   3.812  0.6555 -1.0083 -1.2602
 2141TIP3   OH2 6379   4.424   0.991   5.622 -0.3732 -0.2472 -0.0826
 2141TIP3    H1 6380   4.370   0.925   5.664 -1.7977  0.3522 -0.9025
 2141TIP3    H2 6381   4.377   1.014   5.542  1.0692  0.3584 -0.8008
 2142TIP3   OH2 6382   2.330   0.164   5.534  0.7137 -0.7829 -0.4160
 2142TIP3    H1 6383   2.348   0.253   5.565 -0.1175 -1.0085  0.8002
 2142TIP3    H2 6384   2.281   0.175   5.452 -1.9658 -0.0084  1.1687
 2143TIP3   OH2 6385   7.053   4.923   2.780  0.1623  0.0190  0.1994
 2143TIP3    H1 6386   6.998   4.862   2.731  1.1517 -0.4110 -0.4004
 2143TIP3    H2 6387   7.116   4.867   2.826  0.1483  0.5060  0.8146
 2144TIP3   OH2 6388   0.311   7.637   6.563  0.0004  0.2609  0.0827
 2144TIP3    H1 6389   0.239   7.642   6.500  0.1221  0.1183 -0.0651
 2144TIP3    H2 6390   0.267   7.631   6.648 -0.1813 -1.2260 -0.0944
 2145TIP3   OH2 6391   3.756   0.684   2.118  0.0282 -0.5237 -0.3036
 2145TIP3    H1 6392   3.732   0.645   2.034 -1.5448 -0.9806  0.3061
 2145TIP3    H2 6393   3.837   0.640   2.143  2.2388  1.6874 -2.8881
 2146TIP3   OH2 6394   0.486   7.422   4.727 -0.1245 -0.0241 -0.4313
 2146TIP3    H1 6395   0.420   7.484   4.755 -1.5305 -0.4510 -2.5529
 2146TIP3    H2 6396   0.470   7.343   4.779 -0.1718  0.4271  0.2462
 2147TIP3   OH2 6397   5.417   1.270   0.890  0.4123 -0.6529 -0.1209
 2147TIP3    H1 6398   5.510   1.260   0.914  0.3379  0.6861  0.8508
 2147TIP3    H2 6399   5.414   1.353   0.844 -0.6120  0.4139  1.7575
 2148TIP3   OH2 6400   6.035   1.686   4.689  0.4177  0.3996  0.3228
 2148TIP3    H1 6401   5.992   1.680   4.774  0.0893  1.2470  0.2262
 2148TIP3    H2 6402   5.964   1.680   4.625  0.7250 -0.8511  0.0833
 2149TIP3   OH2 6403   5.001   2.206   3.132 -0.3937  0.2456 -0.5615
 2149TIP3    H1 6404   5.054   2.269   3.083 -0.8940  1.2408  0.1405
 2149TIP3    H2 6405   4.923   2.256   3.159 -1.1640 -0.8822 -0.6320
 2150TIP3   OH2 6406   0.185   0.145   0.144 -0.2876 -0.2976  0.3671
 2150TIP3    H1 6407   0.247   0.116   0.078 -1.2169  1.5270 -1.3957
 2150TIP3    H2 6408   0.240   0.185   0.212  0.5368  0.6357 -0.8088
 2151TIP3   OH2 6409   3.647   4.811   1.271  0.6693  0.2136 -0.5207
 2151TIP3    H1 6410   3.672   4.738   1.327 -1.9554  0.5307  1.2012
 2151TIP3    H2 6411   3.722   4.870   1.274  1.8234 -1.2293  0.0775
 2152TIP3   OH2 6412   1.153   3.642   0.033 -0.2437  0.3708 -0.1716
 2152TIP3    H1 6413   1.158   3.546   0.034  1.6070  0.4317  0.9618
 2152TIP3    H2 6414   1.242   3.671   0.052 -1.0047  2.3207  0.6923
 2153TIP3   OH2 6415   2.944   1.525   3.615 -0.7770 -0.1600  0.1602
 2153TIP3    H1 6416   2.889   1.549   3.690 -0.3601  0.5130  0.2719
 2153TIP3    H2 6417   2.887   1.533   3.539 -0.8569  0.4687  0.2789
 2154TIP3   OH2 6418   5.848   2.329   3.366 -0.3980 -0.4036  0.4016
 2154TIP3    H1 6419   5.902   2.402   3.397 -1.4817 -0.3087  2.2223
 2154TIP3    H2 6420   5.853   2.264   3.437  0.9358 -2.3648 -1.3889
 2155TIP3   OH2 6421   3.319   6.955   3.711  0.1645  0.4888  0.1154
 2155TIP3    H1 6422   3.319   7.023   3.777  0.4433 -0.2597  0.9069
 2155TIP3    H2 6423   3.407   6.917   3.714 -0.0769 -0.1184 -0.0823
 2156TIP3   OH2 6424   7.927   3.471   1.958 -0.5035  0.2700  0.2582
 2156TIP3    H1 6425   8.018   3.482   1.987 -0.5627 -0.5878  0.8190
 2156TIP3    H2 6426   7.908   3.549   1.907  0.3156  0.8012  0.7493
 2157TIP3   OH2 6427   7.732   4.536   6.065 -0.5843  0.2983  0.0633
 2157TIP3    H1 6428   7.716   4.629   6.050  0.0084  0.1899 -1.4583
 2157TIP3    H2 6429   7.654   4.492   6.031 -0.9368  0.2328  0.9322
 2158TIP3   OH2 6430   1.042   0.577   2.886 -0.6547  0.8660  0.2671
 2158TIP3    H1 6431   0.988   0.567   2.808  0.5339  1.8499 -0.7331
 2158TIP3    H2 6432   1.013   0.508   2.945 -2.2231  0.6847 -0.6682
 2159TIP3   OH2 6433   3.723   0.314   4.489 -0.2030 -0.1105  0.0880
 2159TIP3    H1 6434   3.671   0.254   4.541 -0.1670 -1.0131 -0.8932
 2159TIP3    H2 6435   3.732   0.271   4.404  3.1408 -0.5683  0.5456
 2160TIP3   OH2 6436   3.317   3.734   0.340 -0.2245  0.2880  0.2215
 2160TIP3    H1 6437   3.404   3.698   0.323 -0.5094 -0.9327  1.2222
 2160TIP3    H2 6438   3.333   3.822   0.375  0.5110  0.8589 -1.4363
 2161TIP3   OH2 6439   2.634   4.613   0.783  0.1967  0.1465  0.3665
 2161TIP3    H1 6440   2.710   4.665   0.809  0.3303  0.2431 -0.2196
 2161TIP3    H2 6441   2.654   4.581   0.696 -0.1490 -0.3932  0.4795
 2162TIP3   OH2 6442   7.770   1.255   0.037  0.1095 -0.1337 -0.6180
 2162TIP3    H1 6443   7.793   1.254   0.130 -0.5448  0.7944 -0.4279
 2162TIP3    H2 6444   7.743   1.165   0.018 -0.7610 -0.0964  0.3588
 2163TIP3   OH2 6445   0.131   1.458   6.638 -0.3595  0.2484  0.0881
 2163TIP3    H1 6446   0.225   1.467   6.621 -0.2766  0.0340  0.4257
 2163TIP3    H2 6447   0.104   1.384   6.583  0.3962 -2.0730  2.5915
 2164TIP3   OH2 6448   6.347   0.410   3.087 -0.5802 -0.2901  0.1488
 2164TIP3    H1 6449   6.331   0.502   3.108 -1.4487 -0.6671  1.2153
 2164TIP3    H2 6450   6.441   0.398   3.101 -0.4464  0.4416 -0.0747
 2165TIP3   OH2 6451   3.417   0.768   2.021 -0.0293 -0.1946  0.0556
 2165TIP3    H1 6452   3.404   0.857   1.989 -0.2531 -0.1630  0.2294
 2165TIP3    H2 6453   3.437   0.717   1.943  3.8761  0.6687  0.3023
 2166TIP3   OH2 6454   0.181   7.129   0.103  0.3549 -0.2579 -0.2940
 2166TIP3    H1 6455   0.155   7.108   0.193  0.2589  0.3326 -0.1792
 2166TIP3    H2 6456   0.275   7.146   0.109 -0.1098  2.6031  0.2623
 2167TIP3   OH2 6457   2.044   1.155   1.327 -0.6407  0.1063 -0.0697
 2167TIP3    H1 6458   2.100   1.086   1.291 -0.2406  0.5836 -0.3775
 2167TIP3    H2 6459   1.975   1.166   1.262 -0.6130  0.1107 -0.0984
 2168TIP3   OH2 6460   0.530   1.784   4.616 -0.0033 -0.0899 -0.4812
 2168TIP3    H1 6461   0.511   1.691   4.633 -0.3075 -0.0366 -0.5118
 2168TIP3    H2 6462   0.461   1.810   4.555 -0.8012  0.5498  0.6751
 2169TIP3   OH2 6463   5.270   0.053   3.658 -0.3161  0.3100 -0.6436
 2169TIP3    H1 6464   5.320   0.070   3.579  2.3508  1.1493  1.0929
 2169TIP3    H2 6465   5.260   0.138   3.700 -1.3247 -0.1744  0.1606
 2170TIP3   OH2 6466   3.264   5.336   4.055  0.2796  0.4321 -0.0931
 2170TIP3    H1 6467   3.329   5.338   4.125  0.2321 -0.5760  0.0003
 2170TIP3    H2 6468   3.274   5.249   4.015 -0.6917  0.4339 -0.3725
 2171TIP3   OH2 6469   1.820   0.420   0.702  0.0680 -0.2450  0.1853
 2171TIP3    H1 6470   1.851   0.510   0.715 -0.1831 -0.1600  0.1842
 2171TIP3    H2 6471   1.787   0.394   0.788 -1.8899  0.4268 -0.3067
 2172TIP3   OH2 6472   7.822   4.133   1.673  0.0430 -0.3602  0.0351
 2172TIP3    H1 6473   7.868   4.132   1.757  0.1140 -0.9862 -0.0025
 2172TIP3    H2 6474   7.738   4.092   1.691 -0.0078 -0.3445 -0.1604
 2173TIP3   OH2 6475   4.366   2.459   6.213  0.0574 -0.2080  0.0724
 2173TIP3    H1 6476   4.330   2.372   6.230 -0.5651  0.0869  0.2988
 2173TIP3    H2 6477   4.415   2.450   6.131  1.3424 -1.1500  0.9059
 2174TIP3   OH2 6478   7.071   1.609   6.787 -0.8009 -0.1413  0.0789
 2174TIP3    H1 6479   7.060   1.548   6.714 -0.3141  0.2184 -0.2982
 2174TIP3    H2 6480   7.152   1.656   6.767 -0.7290  0.0476  0.7889
 2175TIP3   OH2 6481   3.665   5.827   1.539 -0.0481  0.4628  0.1355
 2175TIP3    H1 6482   3.572   5.842   1.557 -0.2424 -0.9069  0.3315
 2175TIP3    H2 6483   3.705   5.914   1.548 -1.6697  1.5970 -2.4041
 2176TIP3   OH2 6484   6.078   5.858   5.651 -0.1373  0.3063  0.2859
 2176TIP3    H1 6485   6.001   5.894   5.695  0.4131  1.2491  0.4923
 2176TIP3    H2 6486   6.042   5.793   5.591 -1.0329  0.1910  0.9201
 2177TIP3   OH2 6487   3.692   6.477   1.110  0.2659  0.1014 -0.3724
 2177TIP3    H1 6488   3.753   6.469   1.184  0.8538  0.8032 -0.7642
 2177TIP3    H2 6489   3.689   6.390   1.072  0.5710 -0.0809  0.0142
 2178TIP3   OH2 6490  -0.002   4.161   6.137  0.5688 -0.2117  0.0523
 2178TIP3    H1 6491   0.087   4.126   6.136  0.4580 -0.5103 -1.4612
 2178TIP3    H2 6492  -0.000   4.229   6.203  1.2254 -1.9669  1.9551
 2179TIP3   OH2 6493   3.160   6.802   3.335  0.6682  0.3861  0.2815
 2179TIP3    H1 6494   3.240   6.847   3.309  0.0156  0.9026 -0.9728
 2179TIP3    H2 6495   3.117   6.781   3.252  1.1485 -3.0332  0.7796
 2180TIP3   OH2 6496   1.962   0.870   6.363 -0.5730  0.1350 -0.2416
 2180TIP3    H1 6497   1.982   0.961   6.341  0.3667 -0.3789 -1.6495
 2180TIP3    H2 6498   2.003   0.818   6.293 -1.1532 -1.3722  0.4781
 2181TIP3   OH2 6499   8.244   0.062   1.008 -0.4838  0.2112  0.7397
 2181TIP3    H1 6500   8.216   0.146   0.971 -1.7413 -0.5249 -0.0641
 2181TIP3    H2 6501   8.315   0.033   0.950  0.6502  1.1478  1.6039
 2182TIP3   OH2 6502   2.984   7.033   5.333  0.4155  0.2227 -0.1686
 2182TIP3    H1 6503   2.914   7.093   5.306 -0.4175 -1.6787 -2.5800
 2182TIP3    H2 6504   3.058   7.056   5.277  0.0314 -1.0578 -1.2379
 2183TIP3   OH2 6505   0.551   0.343   6.597  0.3355 -0.0357 -0.3323
 2183TIP3    H1 6506   0.607   0.416   6.569 -0.2742  0.1429 -1.1599
 2183TIP3    H2 6507   0.547   0.350   6.692  1.6250  0.0014 -0.2632
 2184TIP3   OH2 6508   1.695   0.423   6.358  0.1282  0.1102 -0.5490
 2184TIP3    H1 6509   1.686   0.355   6.425  0.5727 -0.1063 -0.7052
 2184TIP3    H2 6510   1.693   0.375   6.275 -1.0583  0.4340 -0.7328
 2185TIP3   OH2 6511   0.061   2.883   6.790  0.1161  0.1692  0.6176
 2185TIP3    H1 6512   0.037   2.828   6.716 -1.2963  0.5777  0.7510
 2185TIP3    H2 6513   0.096   2.963   6.750 -0.7766  0.4485  0.3687
 2186TIP3   OH2 6514   0.121   1.020   2.821  0.1312  0.0450  0.1959
 2186TIP3    H1 6515   0.047   1.078   2.837  0.1784 -0.1067  1.0424
 2186TIP3    H2 6516   0.188   1.075   2.781 -0.6152  0.0697 -1.0848
 2187TIP3   OH2 6517   1.673   2.430   0.591  0.1498  0.3681  0.8715
 2187TIP3    H1 6518   1.643   2.409   0.680 -2.9649 -1.0513 -0.3817
 2187TIP3    H2 6519   1.594   2.425   0.537  1.5127  3.2712 -1.7091
 2188TIP3   OH2 6520   5.955   1.165   2.578  0.6276  0.6282 -0.0446
 2188TIP3    H1 6521   5.912   1.211   2.650  0.8077  1.8295 -0.6900
 2188TIP3    H2 6522   5.986   1.083   2.618 -1.0342  0.3543  0.7505
 2189TIP3   OH2 6523   2.083   6.073   1.009 -0.4061 -0.6996  0.0734
 2189TIP3    H1 6524   2.123   6.148   1.055  0.7168 -0.5772 -1.0372
 2189TIP3    H2 6525   2.055   6.014   1.079 -0.1550  0.1806  0.9438
 2190TIP3   OH2 6526   0.414   3.846   5.943 -0.1026  0.4048 -0.3626
 2190TIP3    H1 6527   0.416   3.757   5.976  0.4689  0.7108  0.4453
 2190TIP3    H2 6528   0.467   3.843   5.862 -0.3238 -0.0407 -0.4905
 2191TIP3   OH2 6529   4.349   3.254   1.625  0.6169 -0.1043  0.4570
 2191TIP3    H1 6530   4.306   3.227   1.707  1.1781 -0.7073  0.5551
 2191TIP3    H2 6531   4.327   3.186   1.562  0.9694 -0.1298  0.3591
 2192TIP3   OH2 6532   5.347   7.114   6.408  0.3439 -0.0028 -0.0223
 2192TIP3    H1 6533   5.392   7.193   6.378  1.2410 -0.2497  0.5919
 2192TIP3    H2 6534   5.256   7.140   6.419  0.3383  0.5400 -1.2377
 2193TIP3   OH2 6535   3.953   4.300   4.413  0.2957  0.1984  0.3234
 2193TIP3    H1 6536   3.970   4.214   4.453 -0.1478 -0.2631 -0.4472
 2193TIP3    H2 6537   3.858   4.307   4.412  0.3330  0.9662  0.8986
 2194TIP3   OH2 6538   3.387   2.549   0.880  0.2075 -0.0604  0.6517
 2194TIP3    H1 6539   3.427   2.462   0.882  1.3439  0.4497  1.8365
 2194TIP3    H2 6540   3.408   2.587   0.965  0.2595  1.6149 -0.0711
 2195TIP3   OH2 6541   6.090   3.209   4.036 -0.1193  0.9184  0.1183
 2195TIP3    H1 6542   6.115   3.239   4.124 -2.3000 -0.0908  1.1808
 2195TIP3    H2 6543   6.085   3.114   4.044  0.3682  0.7591 -1.3283
 2196TIP3   OH2 6544   4.792   0.856   3.178  0.2802  0.0118  0.3705
 2196TIP3    H1 6545   4.721   0.792   3.165  0.2642  0.1209 -0.1193
 2196TIP3    H2 6546   4.801   0.863   3.273  0.4450 -0.9056  0.4343
 2197TIP3   OH2 6547   4.838   2.407   0.957  0.1813 -0.3723 -0.3596
 2197TIP3    H1 6548   4.908   2.421   0.894  0.4967  0.7941  0.2238
 2197TIP3    H2 6549   4.760   2.392   0.903  0.9610 -2.3907 -1.0154
 2198TIP3   OH2 6550   8.253   0.654   5.798 -0.3101 -0.3154 -0.6275
 2198TIP3    H1 6551   8.186   0.652   5.867 -0.3415 -0.4122 -0.6618
 2198TIP3    H2 6552   8.334   0.676   5.845 -0.6525  1.5269 -0.8093
 2199TIP3   OH2 6553   2.304   2.108   1.173  0.2623 -0.3023 -0.0968
 2199TIP3    H1 6554   2.233   2.170   1.192  1.7150  1.9473 -1.5578
 2199TIP3    H2 6555   2.369   2.126   1.241  0.6280 -0.2972 -0.4447
 2200TIP3   OH2 6556   1.881   3.449   5.775  0.5869  0.4328 -0.0316
 2200TIP3    H1 6557   1.902   3.358   5.799 -1.6386 -0.4525 -1.1622
 2200TIP3    H2 6558   1.925   3.462   5.691 -0.9189 -0.4317 -0.9946
 2201TIP3   OH2 6559   5.170   3.838   1.749  0.2353  0.1034 -0.0785
 2201TIP3    H1 6560   5.225   3.913   1.772 -0.2082  0.5961 -0.6173
 2201TIP3    H2 6561   5.209   3.804   1.668 -1.2630  1.5279 -1.4613
 2202TIP3   OH2 6562   0.636   3.622   1.534 -0.1342  0.9708 -0.0855
 2202TIP3    H1 6563   0.731   3.634   1.531 -0.2629  1.8713 -1.7615
 2202TIP3    H2 6564   0.623   3.528   1.528  0.6545  0.7727  1.0182
 2203TIP3   OH2 6565   7.631   4.717   3.464 -0.6045  0.0516  0.2070
 2203TIP3    H1 6566   7.576   4.657   3.414 -1.6252  0.3731  0.9222
 2203TIP3    H2 6567   7.607   4.701   3.555  0.4782  0.2208  0.5347
 2204TIP3   OH2 6568   2.499   5.200   1.225  0.0611 -0.4956  0.1318
 2204TIP3    H1 6569   2.404   5.196   1.216 -0.0412  1.3535 -0.0834
 2204TIP3    H2 6570   2.514   5.202   1.320 -0.0287 -1.7080  0.1891
 2205TIP3   OH2 6571   4.496   2.485   5.178  0.0375  0.3748  0.3613
 2205TIP3    H1 6572   4.492   2.532   5.260  0.3403  0.9498  0.0541
 2205TIP3    H2 6573   4.490   2.553   5.110 -1.1608 -0.1739 -0.1003
 2206TIP3   OH2 6574   3.191   2.134   1.675 -0.0758  0.2434 -0.1224
 2206TIP3    H1 6575   3.113   2.188   1.688  0.5801  0.7922  1.8585
 2206TIP3    H2 6576   3.179   2.060   1.734  0.9874  0.4258  0.3368
 2207TIP3   OH2 6577   7.967   7.811   1.740  0.0199  0.4337  0.2891
 2207TIP3    H1 6578   7.983   7.777   1.828 -0.7552 -0.6174  0.0396
 2207TIP3    H2 6579   7.872   7.804   1.728  0.3859 -2.3842 -1.7646
 2208TIP3   OH2 6580   4.797   3.474   4.534  0.2346 -0.0803  0.4394
 2208TIP3    H1 6581   4.794   3.549   4.473  2.1495  0.4541  0.9219
 2208TIP3    H2 6582   4.718   3.483   4.587  0.7598  2.0848  0.9723
 2209TIP3   OH2 6583   7.040   5.234   0.700  0.4357 -0.0580 -0.2114
 2209TIP3    H1 6584   6.946   5.246   0.701  0.4693  0.3254  1.4924
 2209TIP3    H2 6585   7.074   5.313   0.657 -0.0137 -0.0833 -0.6092
 2210TIP3   OH2 6586   7.886   1.280   6.322  0.8026  0.2850 -0.1968
 2210TIP3    H1 6587   7.936   1.229   6.258 -1.8732 -0.8658 -1.5755
 2210TIP3    H2 6588   7.881   1.224   6.399 -2.8327 -2.3281 -1.9769
 2211TIP3   OH2 6589   4.402   1.403   5.733  0.0200  0.2652 -0.1365
 2211TIP3    H1 6590   4.375   1.470   5.671 -0.3547  1.3446  1.1519
 2211TIP3    H2 6591   4.320   1.373   5.773  0.4497  2.0740  2.2968
 2212TIP3   OH2 6592   3.983   6.891   3.419  0.3414 -0.1149 -0.0661
 2212TIP3    H1 6593   3.902   6.875   3.372  0.6096 -0.8769 -0.2782
 2212TIP3    H2 6594   3.964   6.866   3.510  0.1252  0.4034  0.0350
 2213TIP3   OH2 6595   1.690   3.735   6.095 -0.0997 -0.0183 -0.2790
 2213TIP3    H1 6596   1.681   3.814   6.148  0.5623  0.0218 -0.2235
 2213TIP3    H2 6597   1.602   3.698   6.093 -0.0451 -0.2785  1.2578
 2214TIP3   OH2 6598   6.646   5.776   0.279  0.3013  0.5869 -0.0801
 2214TIP3    H1 6599   6.690   5.858   0.298  1.6031  0.6368 -2.9313
 2214TIP3    H2 6600   6.700   5.709   0.322  0.6048  1.0049  0.1942
 2215TIP3   OH2 6601   7.354   0.773   4.275  0.1437  0.2142 -0.2916
 2215TIP3    H1 6602   7.352   0.838   4.205 -2.1731  0.4661 -0.0814
 2215TIP3    H2 6603   7.350   0.689   4.230  2.1452  0.1949 -0.5266
 2216TIP3   OH2 6604   3.817   7.186   5.707  0.2462 -0.1859 -0.5294
 2216TIP3    H1 6605   3.735   7.185   5.658  0.3674  3.4013 -1.0491
 2216TIP3    H2 6606   3.793   7.153   5.794 -0.5751 -3.8522 -1.9467
 2217TIP3   OH2 6607   4.183   4.172   3.534 -0.0136 -0.3414  0.5251
 2217TIP3    H1 6608   4.206   4.265   3.532  1.0508 -0.5788  0.9197
 2217TIP3    H2 6609   4.184   4.145   3.442  0.9064 -0.2325  0.4881
 2218TIP3   OH2 6610   2.586   0.360   4.988  0.2264 -0.2791  0.2110
 2218TIP3    H1 6611   2.654   0.312   4.940 -0.6475 -1.4070  0.0397
 2218TIP3    H2 6612   2.633   0.431   5.031  1.4845 -0.9094 -0.0544
 2219TIP3   OH2 6613   6.320   3.553   4.348  0.1231 -0.1691  0.0685
 2219TIP3    H1 6614   6.378   3.487   4.385 -0.5346 -0.3281  0.8452
 2219TIP3    H2 6615   6.359   3.574   4.263  1.7025  0.2366  0.8496
 2220TIP3   OH2 6616   3.610   0.540   4.564  0.1547  0.0055 -0.3614
 2220TIP3    H1 6617   3.518   0.516   4.550  0.0726 -0.4119  0.7533
 2220TIP3    H2 6618   3.660   0.469   4.524 -0.0390 -0.3672  0.0444
 2221TIP3   OH2 6619   2.684   1.973   0.579 -0.7637 -0.0888 -0.3955
 2221TIP3    H1 6620   2.668   2.023   0.499 -0.4327  0.4800 -0.1078
 2221TIP3    H2 6621   2.778   1.955   0.578 -0.7066  0.1717  0.0074
 2222TIP3   OH2 6622   3.939   4.100   5.383  0.4751  0.4071  0.1160
 2222TIP3    H1 6623   3.861   4.060   5.421 -1.2767  2.8588 -0.6241
 2222TIP3    H2 6624   4.012   4.062   5.432 -1.2766 -0.7616  1.9944
 2223TIP3   OH2 6625   4.546   2.463   1.804 -0.1961 -0.3818 -0.1633
 2223TIP3    H1 6626   4.603   2.452   1.727  2.3587  0.4144  1.4835
 2223TIP3    H2 6627   4.458   2.465   1.768  0.8865  0.0491 -3.0884
 2224TIP3   OH2 6628   1.177   3.178   1.561 -0.1674  0.2827 -0.1437
 2224TIP3    H1 6629   1.262   3.141   1.585 -1.3300 -2.7129 -0.3168
 2224TIP3    H2 6630   1.187   3.201   1.468  1.2266  2.5949  0.4844
 2225TIP3   OH2 6631   2.699   0.614   0.842  0.5836 -0.8186  0.0239
 2225TIP3    H1 6632   2.751   0.618   0.923  1.5554 -0.0965 -0.6172
 2225TIP3    H2 6633   2.762   0.591   0.774 -0.0398 -0.4724 -0.6815
 2226TIP3   OH2 6634   4.073   2.552   6.223  0.0136 -0.0656 -0.3148
 2226TIP3    H1 6635   4.026   2.481   6.179  0.6702  0.3952 -1.8361
 2226TIP3    H2 6636   4.165   2.524   6.221  0.0830  0.0400  0.6740
 2227TIP3   OH2 6637   6.568   1.384   3.629  0.3146  0.3819 -0.8279
 2227TIP3    H1 6638   6.510   1.400   3.703  2.1006 -1.8888  1.2493
 2227TIP3    H2 6639   6.521   1.322   3.574 -0.6090  1.2770 -1.0680
 2228TIP3   OH2 6640   7.834   0.400   1.748 -0.5806 -0.0371  0.0140
 2228TIP3    H1 6641   7.764   0.385   1.685 -1.0010  1.8149 -0.0166
 2228TIP3    H2 6642   7.892   0.463   1.704  0.3253 -0.4317  0.6143
 2229TIP3   OH2 6643   4.953   0.125   4.187  0.1827 -0.1250 -0.2211
 2229TIP3    H1 6644   4.888   0.100   4.252  0.7562 -1.5635 -0.1689
 2229TIP3    H2 6645   4.955   0.052   4.125 -0.2910  1.1644 -1.8281
 2230TIP3   OH2 6646   4.719   4.892   6.642  0.2202 -0.6033  0.1664
 2230TIP3    H1 6647   4.767   4.858   6.567  0.9682  1.2782 -0.2733
 2230TIP3    H2 6648   4.639   4.929   6.605  0.2070 -0.4026  0.3892
 2231TIP3   OH2 6649   1.670   1.669   2.442 -0.5062 -0.0613  0.4747
 2231TIP3    H1 6650   1.626   1.585   2.454 -0.8958 -0.1523 -1.3969
 2231TIP3    H2 6651   1.756   1.647   2.406 -0.0393  0.2845  1.3374
 2232TIP3   OH2 6652   4.545   4.623   5.043  0.3488  0.0032  0.6782
 2232TIP3    H1 6653   4.575   4.680   4.972 -2.1460 -1.3558 -1.6671
 2232TIP3    H2 6654   4.622   4.571   5.066  1.1726  0.1842 -1.4280
 2233TIP3   OH2 6655   0.612   2.576   4.379  0.2454  0.0644 -0.4107
 2233TIP3    H1 6656   0.594   2.543   4.467  1.7245  0.4216  0.0408
 2233TIP3    H2 6657   0.535   2.550   4.328 -1.6229  1.6492  1.4295
 2234TIP3   OH2 6658   5.920   7.513   1.737 -0.0492 -0.3742  0.1188
 2234TIP3    H1 6659   5.976   7.452   1.785  0.2446 -0.4470 -0.3077
 2234TIP3    H2 6660   5.845   7.461   1.709  0.3043 -0.6055 -0.4303
 2235TIP3   OH2 6661   2.172   1.108   0.069  0.2204 -0.0527  0.1056
 2235TIP3    H1 6662   2.164   1.099   0.164  1.0102 -1.1360  0.0960
 2235TIP3    H2 6663   2.083   1.097   0.036 -0.0512  0.2726  0.7083
 2236TIP3   OH2 6664   4.389   0.131   5.952  0.3954 -0.0159  0.3797
 2236TIP3    H1 6665   4.349   0.218   5.960  1.9455  0.8815 -0.8928
 2236TIP3    H2 6666   4.346   0.079   6.020 -2.6301  0.9186 -0.6147
 2237TIP3   OH2 6667   2.649   4.716   4.268 -0.0455  0.1534 -0.2767
 2237TIP3    H1 6668   2.567   4.764   4.257 -1.0648 -1.3947  0.2100
 2237TIP3    H2 6669   2.681   4.702   4.179 -0.4408  0.5495 -0.4827
 2238TIP3   OH2 6670   1.720   6.888   6.415 -0.1954 -0.1534 -0.4190
 2238TIP3    H1 6671   1.723   6.973   6.372 -0.1143 -0.1772 -0.4617
 2238TIP3    H2 6672   1.707   6.826   6.343  1.6182 -0.3510 -0.6264
 2239TIP3   OH2 6673   7.350   5.496   5.395  0.5136  0.0180 -0.1227
 2239TIP3    H1 6674   7.302   5.509   5.477  1.0364 -0.5743  0.2883
 2239TIP3    H2 6675   7.413   5.427   5.416 -0.3381 -1.2159 -1.4472
 2240TIP3   OH2 6676   3.655   5.506   5.846  0.2605  0.2639 -0.3407
 2240TIP3    H1 6677   3.566   5.533   5.826  0.1324  1.6174  1.7576
 2240TIP3    H2 6678   3.661   5.416   5.813 -2.0488 -0.0342 -0.1006
 2241TIP3   OH2 6679   4.216   6.760   6.680  0.8955  0.2633  0.4026
 2241TIP3    H1 6680   4.202   6.684   6.736  2.3669 -0.9913 -0.8466
 2241TIP3    H2 6681   4.194   6.835   6.735  1.7698 -0.9255  2.4792
 2242TIP3   OH2 6682   6.812   2.098   4.777 -0.1856  0.5095 -0.3535
 2242TIP3    H1 6683   6.848   2.013   4.753 -0.3872  0.3864 -0.2199
 2242TIP3    H2 6684   6.809   2.097   4.873  0.3196  0.8790 -0.3261
 2243TIP3   OH2 6685   2.909   1.730   2.402  0.3859 -0.3233  0.0393
 2243TIP3    H1 6686   2.907   1.640   2.437 -2.3532 -0.3251  0.0807
 2243TIP3    H2 6687   2.982   1.730   2.341  3.0296 -1.4000  2.9253
 2244TIP3   OH2 6688   0.649   2.173   3.827 -0.6189 -0.0024 -0.2145
 2244TIP3    H1 6689   0.667   2.096   3.774 -1.0592 -0.1969 -0.0832
 2244TIP3    H2 6690   0.669   2.247   3.769 -0.8582 -0.2125 -0.5670
 2245TIP3   OH2 6691   8.163   6.871   0.255  0.3760 -0.5033 -0.0123
 2245TIP3    H1 6692   8.216   6.944   0.286 -1.4013  0.2141  1.5294
 2245TIP3    H2 6693   8.199   6.794   0.299  0.5714 -0.1383  0.4642
 2246TIP3   OH2 6694   0.929   0.185   5.120 -0.3440 -0.2613  0.3807
 2246TIP3    H1 6695   0.898   0.104   5.079 -1.4575  0.8495 -1.0790
 2246TIP3    H2 6696   0.852   0.241   5.124  0.7793  1.4418 -0.4420
 2247TIP3   OH2 6697   0.710   2.887   6.223  0.0608  0.6400  0.5621
 2247TIP3    H1 6698   0.666   2.837   6.154  0.6906 -0.8578  1.1933
 2247TIP3    H2 6699   0.797   2.906   6.188  1.6186 -2.9372  1.9915
 2248TIP3   OH2 6700   1.817   4.192   6.640  0.5634 -0.6868  0.1763
 2248TIP3    H1 6701   1.794   4.241   6.561  3.1837 -1.2713 -1.0551
 2248TIP3    H2 6702   1.760   4.115   6.637 -0.8532  0.3290  0.0384
 2249TIP3   OH2 6703   2.483   0.988   2.366  0.6079 -0.5840  0.2364
 2249TIP3    H1 6704   2.472   0.974   2.460  1.1043 -0.4513  0.3189
 2249TIP3    H2 6705   2.410   0.941   2.326 -1.7692  2.3319  0.8445
 2250TIP3   OH2 6706   4.320   7.050   1.462 -0.1683  0.1045 -0.2396
 2250TIP3    H1 6707   4.306   7.077   1.371 -2.6325 -0.2310 -0.0362
 2250TIP3    H2 6708   4.293   7.125   1.514 -0.8708 -0.4448  0.2201
 2251TIP3   OH2 6709   4.815   6.395   0.079  0.2061  0.8696  0.4124
 2251TIP3    H1 6710   4.894   6.345   0.099  0.7785  2.0459  1.2889
 2251TIP3    H2 6711   4.848   6.480   0.048 -0.7207  1.0575 -0.0869
 2252TIP3   OH2 6712   0.042   1.775   4.119  0.1591  0.1910 -0.3635
 2252TIP3    H1 6713   0.080   1.818   4.195 -1.2108  1.1327 -0.1751
 2252TIP3    H2 6714   0.074   1.685   4.124 -0.1468  0.1471  1.5114
 2253TIP3   OH2 6715   0.687   3.855   0.865  0.3314  0.1436 -0.7418
 2253TIP3    H1 6716   0.594   3.839   0.847  0.3228  0.5478 -1.0850
 2253TIP3    H2 6717   0.692   3.949   0.885  0.6506  0.1033 -0.6272
 2254TIP3   OH2 6718   7.835   5.130   1.675  0.5167 -0.2591  0.2959
 2254TIP3    H1 6719   7.825   5.200   1.740  2.2307  0.6549 -0.3595
 2254TIP3    H2 6720   7.823   5.049   1.725 -0.2042  0.4630  1.3337
 2255TIP3   OH2 6721   4.522   4.753   3.795  1.1758  0.2595 -0.0324
 2255TIP3    H1 6722   4.541   4.665   3.763  1.7261  0.1766  0.5164
 2255TIP3    H2 6723   4.565   4.759   3.880  1.3091  1.1261 -0.1432
 2256TIP3   OH2 6724   6.148   3.475   6.613  0.2423 -0.0633  0.5058
 2256TIP3    H1 6725   6.128   3.437   6.527  0.0857 -0.4345  0.7035
 2256TIP3    H2 6726   6.180   3.401   6.665 -2.9381 -0.6409  1.8667
 2257TIP3   OH2 6727   0.518   2.295   2.029 -0.1723  0.3493  0.5079
 2257TIP3    H1 6728   0.498   2.202   2.024 -0.7643  0.5306 -0.7731
 2257TIP3    H2 6729   0.451   2.337   1.976  0.1372  1.5070  0.9995
 2258TIP3   OH2 6730   8.292   1.631   3.264  0.1237 -0.0592 -0.1160
 2258TIP3    H1 6731   8.251   1.629   3.350 -1.2592 -0.8892 -0.7762
 2258TIP3    H2 6732   8.274   1.719   3.231 -0.9515 -0.3296 -0.2926
 2259TIP3   OH2 6733   2.185   0.489   4.848  0.3011 -0.4896 -0.5896
 2259TIP3    H1 6734   2.260   0.537   4.812 -0.0667  0.0940 -0.5849
 2259TIP3    H2 6735   2.125   0.479   4.774 -0.5823  0.9578 -0.1104
 2260TIP3   OH2 6736   0.390   6.327   2.357 -0.6103  0.0711 -0.0297
 2260TIP3    H1 6737   0.479   6.321   2.391 -0.3795 -2.3916 -0.8677
 2260TIP3    H2 6738   0.346   6.249   2.391 -1.7898  0.0884 -1.4239
 2261TIP3   OH2 6739   0.093   0.080   5.791  0.0165  0.0701 -0.1447
 2261TIP3    H1 6740   0.176   0.036   5.809 -0.0999 -1.9105 -3.6506
 2261TIP3    H2 6741   0.117   0.154   5.734 -0.3725  1.5632  1.5284
 2262TIP3   OH2 6742   0.418   2.498   1.107 -0.4828  0.1762  0.6300
 2262TIP3    H1 6743   0.474   2.533   1.176 -0.5559 -0.4638  1.0266
 2262TIP3    H2 6744   0.479   2.477   1.036 -0.4053  0.8306  0.5044
 2263TIP3   OH2 6745   7.012   6.309   1.707 -0.0554 -0.6689  0.3253
 2263TIP3    H1 6746   6.950   6.382   1.700  0.5182 -0.1092  0.9726
 2263TIP3    H2 6747   6.966   6.244   1.759 -0.2903 -0.4704  0.3682
 2264TIP3   OH2 6748   2.138   4.221   1.270 -0.2925  0.2828 -0.1037
 2264TIP3    H1 6749   2.222   4.242   1.228  0.2284 -0.5084  0.5234
 2264TIP3    H2 6750   2.075   4.282   1.229  0.0702 -0.7808 -2.4345
 2265TIP3   OH2 6751   2.806   3.862   1.324  0.1894  0.4451 -0.4198
 2265TIP3    H1 6752   2.712   3.843   1.323 -0.1898  2.1779 -0.4234
 2265TIP3    H2 6753   2.821   3.907   1.407  1.1926 -0.5178 -0.0493
 2266TIP3   OH2 6754   0.579   1.832   0.665  0.5122  0.2934 -0.3779
 2266TIP3    H1 6755   0.614   1.774   0.732 -0.7159 -0.0060  0.0217
 2266TIP3    H2 6756   0.657   1.865   0.619  1.2569 -1.1583 -0.2022
 2267TIP3   OH2 6757   2.723   1.611   6.484 -0.2468 -0.2667  0.0390
 2267TIP3    H1 6758   2.818   1.615   6.474 -0.3345  0.6280 -0.5237
 2267TIP3    H2 6759   2.709   1.548   6.555  0.8129  0.4897  0.9473
 2268TIP3   OH2 6760   8.296   5.931   3.626  0.2925 -0.0157 -0.0217
 2268TIP3    H1 6761   8.263   5.880   3.700  2.1902  1.1792  1.7660
 2268TIP3    H2 6762   8.217   5.963   3.582 -0.8973 -1.0873  1.2419
 2269TIP3   OH2 6763   2.401   4.822   2.673  0.4207  0.1739 -0.2083
 2269TIP3    H1 6764   2.324   4.876   2.690  0.3454 -0.1910  0.6635
 2269TIP3    H2 6765   2.384   4.740   2.720  0.9269 -0.2748 -0.7746
 2270TIP3   OH2 6766   5.010   7.774   5.014 -0.1754  0.0263 -0.1733
 2270TIP3    H1 6767   4.926   7.807   5.047  0.2731  0.1927  0.8430
 2270TIP3    H2 6768   5.040   7.841   4.953 -0.5237  0.2212 -0.1323
 2271TIP3   OH2 6769   3.428   7.615   4.105  0.2006 -0.5636  0.2177
 2271TIP3    H1 6770   3.454   7.637   4.194 -0.5582  1.7664 -0.0790
 2271TIP3    H2 6771   3.441   7.520   4.099  1.9714 -0.5221  2.2142
 2272TIP3   OH2 6772   0.142   6.673   4.702 -0.4878 -0.1092  0.5456
 2272TIP3    H1 6773   0.076   6.730   4.664 -0.7078  0.1629  1.3351
 2272TIP3    H2 6774   0.198   6.649   4.627  0.5119  2.3334  0.4295
 2273TIP3   OH2 6775   6.465   2.905   5.754  0.3272  0.1550  0.2709
 2273TIP3    H1 6776   6.538   2.856   5.716 -0.4179  1.5458 -3.3300
 2273TIP3    H2 6777   6.387   2.868   5.714 -0.5351  1.8204  0.3188
 2274TIP3   OH2 6778   5.194   3.495   4.154 -0.1133  0.4936 -0.2908
 2274TIP3    H1 6779   5.189   3.470   4.246 -0.8027  0.5002 -0.3233
 2274TIP3    H2 6780   5.215   3.414   4.107  0.9967  0.6307 -0.0619
 2275TIP3   OH2 6781   0.141   7.090   4.247  0.0544 -0.5521 -0.6449
 2275TIP3    H1 6782   0.141   7.007   4.295  0.9863 -0.7130 -0.9098
 2275TIP3    H2 6783   0.149   7.157   4.314  1.4238 -0.7779 -0.5652
 2276TIP3   OH2 6784   6.217   0.291   1.482 -0.4740 -0.8759  0.1480
 2276TIP3    H1 6785   6.183   0.241   1.408 -2.0387 -0.7959  0.7685
 2276TIP3    H2 6786   6.167   0.260   1.558 -1.1284  1.1694  0.6462
 2277TIP3   OH2 6787   0.749   7.027   3.859 -0.0226  0.3380  0.8915
 2277TIP3    H1 6788   0.837   7.046   3.826  0.0639 -0.5308  0.5954
 2277TIP3    H2 6789   0.693   7.034   3.781  0.0027 -0.5307  0.7893
 2278TIP3   OH2 6790   1.017   2.227   2.116  0.5709  0.6141  0.0517
 2278TIP3    H1 6791   0.937   2.277   2.132  0.6379  0.1900  1.9395
 2278TIP3    H2 6792   1.070   2.241   2.194  1.8057 -0.1442 -0.6137
 2279TIP3   OH2 6793   0.973   4.589   5.094 -0.3788 -0.4056 -0.0201
 2279TIP3    H1 6794   0.968   4.673   5.140  0.7424 -0.3327  0.0087
 2279TIP3    H2 6795   1.065   4.582   5.068 -0.8215 -0.7877 -1.6033
 2280TIP3   OH2 6796   3.036   3.967   3.811 -0.2197 -0.5670  0.1503
 2280TIP3    H1 6797   3.003   4.049   3.846  2.8954  0.0082  2.0880
 2280TIP3    H2 6798   2.982   3.899   3.852 -2.3572  0.3648 -0.9367
 2281TIP3   OH2 6799   3.972   3.181   4.790 -0.2352  0.3343  0.3398
 2281TIP3    H1 6800   3.908   3.122   4.830  1.2830 -0.6064  1.4713
 2281TIP3    H2 6801   3.950   3.180   4.697 -0.7593 -1.3755  0.4481
 2282TIP3   OH2 6802   1.237   1.820   6.300  0.4515  0.7232  0.4649
 2282TIP3    H1 6803   1.166   1.876   6.269 -0.7889  0.2073  2.2236
 2282TIP3    H2 6804   1.245   1.752   6.233 -0.4762  0.9761  0.0829
 2283TIP3   OH2 6805   1.551   4.345   0.859  0.8111 -0.3617 -0.2647
 2283TIP3    H1 6806   1.536   4.255   0.889  0.4679  0.1640  1.2747
 2283TIP3    H2 6807   1.581   4.391   0.938 -4.5357  2.2287  0.7676
 2284TIP3   OH2 6808   7.569   6.294   6.262  0.1914  0.5974 -0.2622
 2284TIP3    H1 6809   7.572   6.289   6.167  1.9494  0.7775 -0.2537
 2284TIP3    H2 6810   7.650   6.251   6.291 -1.7729 -2.3702  1.3311
 2285TIP3   OH2 6811   5.768   3.526   1.412 -0.7682 -0.1989 -0.4063
 2285TIP3    H1 6812   5.787   3.491   1.498 -1.1069 -0.4446 -0.4306
 2285TIP3    H2 6813   5.683   3.488   1.388 -2.0908  2.0384  0.3572
 2286TIP3   OH2 6814   4.759   3.885   3.276  0.1993 -0.0625 -0.3912
 2286TIP3    H1 6815   4.671   3.864   3.306  0.5520 -1.9623 -0.5648
 2286TIP3    H2 6816   4.752   3.886   3.180  0.2765  0.2686 -0.3964
 2287TIP3   OH2 6817   1.388   1.692   4.686  0.2320  0.4001  0.0131
 2287TIP3    H1 6818   1.385   1.772   4.633  0.9410  0.2577 -0.2628
 2287TIP3    H2 6819   1.474   1.654   4.666 -1.1801 -1.9705 -2.1600
 2288TIP3   OH2 6820   7.300   0.882   5.200  0.1884  0.2114  0.1782
 2288TIP3    H1 6821   7.287   0.922   5.114 -2.6660 -2.1182 -0.6062
 2288TIP3    H2 6822   7.395   0.872   5.207  0.5709  1.4364 -2.1992
 2289TIP3   OH2 6823   3.975   5.324   3.738  0.1570  0.5511 -0.2672
 2289TIP3    H1 6824   4.047   5.316   3.675  0.5782  0.7289  0.1866
 2289TIP3    H2 6825   4.018   5.330   3.823 -0.3342  2.3510 -0.1130
 2290TIP3   OH2 6826   5.759   6.478   3.023  0.8011 -0.2810 -0.2519
 2290TIP3    H1 6827   5.711   6.455   2.943  0.3801 -0.2195 -0.0183
 2290TIP3    H2 6828   5.739   6.408   3.084  0.6089  0.0081  0.0143
 2291TIP3   OH2 6829   3.771   4.474   5.131 -0.0605  0.2817  0.1625
 2291TIP3    H1 6830   3.760   4.429   5.215 -0.4064  1.3922  0.7335
 2291TIP3    H2 6831   3.835   4.542   5.149 -1.4916  1.7146  0.0146
 2292TIP3   OH2 6832   3.581   1.423   6.278  0.2695 -0.1677 -0.0756
 2292TIP3    H1 6833   3.671   1.410   6.246  0.1468  0.4230 -0.6895
 2292TIP3    H2 6834   3.583   1.390   6.368  1.1881  0.1441  0.0331
 2293TIP3   OH2 6835   4.243   3.140   2.660 -0.2251  0.7003 -0.1104
 2293TIP3    H1 6836   4.241   3.190   2.578 -2.6457  1.0870  0.1374
 2293TIP3    H2 6837   4.163   3.088   2.659  1.9469 -3.0598 -0.1853
 2294TIP3   OH2 6838   4.460   0.911   0.280  0.3676 -0.1529  0.2561
 2294TIP3    H1 6839   4.554   0.899   0.268  0.6015  0.7472  1.1184
 2294TIP3    H2 6840   4.437   0.982   0.220  0.1961 -0.4917 -0.0853
 2295TIP3   OH2 6841   0.067   5.060   3.240  0.3039  0.1389 -0.0039
 2295TIP3    H1 6842   0.027   5.138   3.277  0.2956 -0.0396  0.3697
 2295TIP3    H2 6843   0.161   5.078   3.241  0.2935  0.1930 -0.0298
 2296TIP3   OH2 6844   1.655   5.483   4.796 -0.0790  0.3376  0.2019
 2296TIP3    H1 6845   1.686   5.443   4.714 -0.1697  1.0119 -0.1684
 2296TIP3    H2 6846   1.637   5.574   4.772  0.8966  0.8183  1.2238
 2297TIP3   OH2 6847   4.809   7.446   5.942 -0.2569  0.8339 -0.3803
 2297TIP3    H1 6848   4.850   7.516   5.890  1.7183  1.2967  1.6032
 2297TIP3    H2 6849   4.738   7.413   5.887  0.8616  2.1366 -2.7726
 2298TIP3   OH2 6850   2.854   6.823   6.711 -0.5957  0.0720  0.7274
 2298TIP3    H1 6851   2.852   6.911   6.674  2.9487  0.0315  0.1463
 2298TIP3    H2 6852   2.837   6.765   6.637  1.9179  0.1628  0.0135
 2299TIP3   OH2 6853   0.803   1.375   1.740  0.0704 -0.0358  0.2632
 2299TIP3    H1 6854   0.758   1.457   1.760  1.7608  0.9651  0.1594
 2299TIP3    H2 6855   0.862   1.362   1.815  0.2157 -0.8605  0.0146
 2300TIP3   OH2 6856   1.753   1.214   6.303 -0.3066  0.0491  0.3431
 2300TIP3    H1 6857   1.734   1.292   6.355 -0.6290 -0.2676  0.7145
 2300TIP3    H2 6858   1.666   1.176   6.287 -0.0601 -1.0980  1.5372
 2301TIP3   OH2 6859   5.815   0.382   3.882  0.2211  0.0665  0.0989
 2301TIP3    H1 6860   5.896   0.432   3.870  0.9278 -0.6781  1.4222
 2301TIP3    H2 6861   5.817   0.316   3.813  1.7966 -1.2110  1.2916
 2302TIP3   OH2 6862   5.521   3.103   2.464 -0.2202 -0.2849 -0.0844
 2302TIP3    H1 6863   5.576   3.140   2.533  0.2688  0.1580 -0.7018
 2302TIP3    H2 6864   5.497   3.178   2.410 -2.6294 -0.2084  0.9454
 2303TIP3   OH2 6865   3.724   1.039   5.983  0.1569 -0.2864 -0.0847
 2303TIP3    H1 6866   3.799   0.980   5.974  0.6783  0.4134 -0.4424
 2303TIP3    H2 6867   3.648   0.981   5.981  0.7153 -1.1799  1.9248
 2304TIP3   OH2 6868   6.176   3.315   5.925  0.4199  0.1818  0.3202
 2304TIP3    H1 6869   6.230   3.391   5.905 -0.5290  0.2721 -2.3756
 2304TIP3    H2 6870   6.236   3.240   5.919  0.7332  0.4746 -0.2912
 2305TIP3   OH2 6871   8.170   1.463   0.717 -0.1918 -0.2879 -0.5043
 2305TIP3    H1 6872   8.119   1.484   0.639 -0.4487  0.3749 -0.1662
 2305TIP3    H2 6873   8.262   1.468   0.688 -0.3097 -2.0510 -1.2540
 2306TIP3   OH2 6874   7.929   0.699   1.149  0.7111 -0.3706  0.6809
 2306TIP3    H1 6875   8.022   0.687   1.167  0.6550  0.3373  1.5071
 2306TIP3    H2 6876   7.889   0.617   1.177  0.6798  0.5059  3.6480
 2307TIP3   OH2 6877   6.191   0.830   5.240  0.0482  0.9954  0.1921
 2307TIP3    H1 6878   6.239   0.856   5.162 -0.1023  1.9543  0.3938
 2307TIP3    H2 6879   6.213   0.738   5.254 -0.0212  0.7841 -1.0383
 2308TIP3   OH2 6880   1.412   6.256   1.736  0.1573 -0.3832  0.5554
 2308TIP3    H1 6881   1.474   6.326   1.751  0.2808 -0.0149 -1.3526
 2308TIP3    H2 6882   1.455   6.199   1.673 -0.5691 -1.3257  0.8805
 2309TIP3   OH2 6883   6.830   0.584   3.551 -0.5062 -0.5688  0.6090
 2309TIP3    H1 6884   6.820   0.605   3.644  0.8848 -1.0602  0.8857
 2309TIP3    H2 6885   6.899   0.644   3.521 -0.4155 -0.9413  0.0791
 2310TIP3   OH2 6886   5.678   6.740   2.219  0.2461 -0.4177  0.4362
 2310TIP3    H1 6887   5.656   6.648   2.206  2.4627 -0.6984 -2.0207
 2310TIP3    H2 6888   5.633   6.786   2.149 -0.5805  0.3854  1.4522
 2311TIP3   OH2 6889   6.787   2.615   4.713 -0.3530 -0.1618 -0.2492
 2311TIP3    H1 6890   6.826   2.528   4.708 -1.4383 -0.7007  0.4412
 2311TIP3    H2 6891   6.741   2.617   4.797  0.9702  1.6546  0.5275
 2312TIP3   OH2 6892   6.032   2.184   4.698 -0.0988 -0.4549 -0.5699
 2312TIP3    H1 6893   6.121   2.216   4.689 -0.3901  0.5048 -0.1619
 2312TIP3    H2 6894   6.035   2.125   4.774 -0.1587  0.9595  0.5750
 2313TIP3   OH2 6895   4.585   7.564   2.028  0.0514  0.6893 -0.1406
 2313TIP3    H1 6896   4.666   7.603   2.062 -0.0380 -0.2945  1.2724
 2313TIP3    H2 6897   4.558   7.503   2.095 -1.6683  0.6967 -0.7857
 2314TIP3   OH2 6898   2.591   2.914   5.012  0.3649 -0.5025 -0.0747
 2314TIP3    H1 6899   2.627   2.961   4.937 -1.7835  0.3779 -0.6182
 2314TIP3    H2 6900   2.504   2.884   4.983  0.0817 -1.4320  1.5733
 2315TIP3   OH2 6901   3.422   3.490   6.603  0.0032 -0.2183  0.2882
 2315TIP3    H1 6902   3.373   3.410   6.625 -0.2149 -0.3773 -0.7165
 2315TIP3    H2 6903   3.393   3.512   6.515  1.9610 -0.4808 -0.4770
 2316TIP3   OH2 6904   2.446   3.397   4.795  0.5161  0.0660  0.0281
 2316TIP3    H1 6905   2.465   3.325   4.855 -0.4666 -0.2590 -0.0312
 2316TIP3    H2 6906   2.427   3.471   4.853 -0.5919 -0.2888  0.1464
 2317TIP3   OH2 6907   5.456   1.946   5.271 -0.0259 -0.0689 -0.5263
 2317TIP3    H1 6908   5.460   1.999   5.350 -0.3039 -1.7146  0.6485
 2317TIP3    H2 6909   5.521   1.984   5.212 -0.7418  1.9916 -0.0377
 2318TIP3   OH2 6910   5.292   2.908   4.278 -0.1779  0.4313 -0.9556
 2318TIP3    H1 6911   5.329   2.832   4.233 -1.6025 -0.5602 -0.5389
 2318TIP3    H2 6912   5.228   2.871   4.339 -1.4344  1.9985 -1.2486
 2319TIP3   OH2 6913   1.700   3.887   6.484 -0.5806 -0.4128 -0.9734
 2319TIP3    H1 6914   1.619   3.880   6.535 -2.4757 -0.8823 -3.8568
 2319TIP3    H2 6915   1.751   3.811   6.509 -1.0966 -0.2406  0.7212
 2320TIP3   OH2 6916   0.005   1.766   0.333 -0.0831  0.0835  0.3009
 2320TIP3    H1 6917   0.012   1.862   0.337 -2.4558  0.4425 -1.4350
 2320TIP3    H2 6918   0.039   1.743   0.247  1.1531 -0.7702  0.9902
 2321TIP3   OH2 6919   4.456   5.498   6.803 -0.5542 -0.2429  1.2056
 2321TIP3    H1 6920   4.489   5.537   6.721  0.7807 -0.8462  1.4300
 2321TIP3    H2 6921   4.362   5.493   6.790 -0.4097  0.0175 -0.1548
 2322TIP3   OH2 6922   2.390   1.888   4.345  0.3960 -0.1942  0.2993
 2322TIP3    H1 6923   2.347   1.895   4.430 -0.8022  0.1826 -0.3155
 2322TIP3    H2 6924   2.321   1.857   4.286  0.8790  0.7306 -0.7829
 2323TIP3   OH2 6925   0.758   1.484   3.691 -0.0600 -0.2086 -0.0339
 2323TIP3    H1 6926   0.812   1.412   3.723 -0.7170  0.4705  2.9034
 2323TIP3    H2 6927   0.671   1.445   3.677  0.1033 -0.4122 -0.4716
 2324TIP3   OH2 6928   2.877   1.582   6.138 -0.0819  0.3009 -0.1625
 2324TIP3    H1 6929   2.938   1.576   6.211  0.5898  2.0637 -0.5138
 2324TIP3    H2 6930   2.895   1.506   6.084 -0.4752 -0.9446  1.3806
 2325TIP3   OH2 6931   0.618   5.855   3.780  0.1966 -0.3778 -0.2174
 2325TIP3    H1 6932   0.586   5.932   3.826  1.1140 -0.0570 -0.0940
 2325TIP3    H2 6933   0.713   5.856   3.793  0.4455 -0.4875 -1.7757
 2326TIP3   OH2 6934   5.212   6.465   0.040 -0.3800 -0.3084 -0.4290
 2326TIP3    H1 6935   5.135   6.516   0.015 -0.8171 -0.8998 -0.2942
 2326TIP3    H2 6936   5.180   6.402   0.104  0.3771 -0.0300  0.2395
 2327TIP3   OH2 6937   3.110   5.452   0.505 -0.5257 -0.0020  0.2418
 2327TIP3    H1 6938   3.054   5.385   0.545 -0.0028  0.0924  1.1570
 2327TIP3    H2 6939   3.157   5.406   0.436 -1.3584 -0.2001 -0.2060
 2328TIP3   OH2 6940   1.624   7.082   0.635 -0.0940  0.4168  0.4335
 2328TIP3    H1 6941   1.637   7.097   0.729  1.0837  0.6290  0.2524
 2328TIP3    H2 6942   1.693   7.133   0.593  0.3272 -0.8481 -0.4698
 2329TIP3   OH2 6943   2.277   6.005   1.804 -0.2594  0.1827 -0.0027
 2329TIP3    H1 6944   2.192   6.007   1.849 -0.1618 -3.0254  0.5681
 2329TIP3    H2 6945   2.280   5.919   1.763  1.9764  0.9441 -1.6170
 2330TIP3   OH2 6946   7.452   3.051   4.133 -0.2156  0.2567 -0.3669
 2330TIP3    H1 6947   7.437   3.088   4.046 -0.0204  2.5416  0.5105
 2330TIP3    H2 6948   7.372   3.071   4.182  0.8707  1.8475  0.8554
 2331TIP3   OH2 6949   2.188   3.566   5.362  0.0373 -0.0147 -0.2230
 2331TIP3    H1 6950   2.238   3.485   5.374  2.0911  1.1394 -0.4461
 2331TIP3    H2 6951   2.233   3.630   5.417 -0.8774  1.2330 -0.8746
 2332TIP3   OH2 6952   7.787   6.831   0.587 -0.0721 -0.0862  0.6983
 2332TIP3    H1 6953   7.853   6.768   0.613  0.0454 -0.0446  0.5041
 2332TIP3    H2 6954   7.718   6.779   0.546  0.3204 -0.0290 -0.0502
 2333TIP3   OH2 6955   6.120   6.942   1.272 -0.6544 -0.4053 -0.2592
 2333TIP3    H1 6956   6.182   6.898   1.329  1.0578  2.9001  0.6798
 2333TIP3    H2 6957   6.172   7.007   1.224 -3.2774  2.9779  1.0211
 2334TIP3   OH2 6958   3.407   1.421   5.103  0.0307 -0.1917  0.6534
 2334TIP3    H1 6959   3.329   1.392   5.055 -0.6690  1.2908  0.8605
 2334TIP3    H2 6960   3.389   1.512   5.126  2.0560  0.3558  0.2282
 2335TIP3   OH2 6961   0.154   2.017   0.721  0.3417  0.4527 -0.3396
 2335TIP3    H1 6962   0.099   2.083   0.764  0.1589 -0.5261  0.9631
 2335TIP3    H2 6963   0.220   1.994   0.787  0.8890 -0.0940 -1.0656
 2336TIP3   OH2 6964   5.311   5.969   6.502 -0.2945 -0.5227 -0.7009
 2336TIP3    H1 6965   5.260   5.943   6.579  0.7760 -0.9938 -0.1258
 2336TIP3    H2 6966   5.357   5.889   6.477  1.7067  0.3409  0.0353
 2337TIP3   OH2 6967   0.628   6.851   4.450 -0.4698 -0.4662  0.1510
 2337TIP3    H1 6968   0.552   6.811   4.491 -0.4216 -1.4761 -0.6843
 2337TIP3    H2 6969   0.650   6.926   4.505 -0.3673 -1.7864  1.9869
 2338TIP3   OH2 6970   7.401   6.375   2.293  0.5141  0.1244  0.3154
 2338TIP3    H1 6971   7.490   6.349   2.316 -0.3340 -1.5490  1.9221
 2338TIP3    H2 6972   7.406   6.398   2.200  2.3180 -1.3894 -0.0151
 2339TIP3   OH2 6973   2.789   5.570   1.192  0.5120 -0.1823  0.2407
 2339TIP3    H1 6974   2.775   5.484   1.152 -1.7139  0.2504 -0.0484
 2339TIP3    H2 6975   2.750   5.562   1.279 -1.1742  0.9375 -0.3565
 2340TIP3   OH2 6976   4.251   2.642   2.854 -0.0280  0.4779  0.2561
 2340TIP3    H1 6977   4.321   2.635   2.919 -0.0398  1.2622  0.3733
 2340TIP3    H2 6978   4.171   2.620   2.903  0.0569  0.2989  0.3126
 2341TIP3   OH2 6979   0.059   5.324   3.851 -0.2326  0.2782  0.0339
 2341TIP3    H1 6980   0.020   5.319   3.764 -0.0709  0.8240 -0.0768
 2341TIP3    H2 6981   0.111   5.405   3.849  0.6049 -0.2356  0.2902
 2342TIP3   OH2 6982   4.603   3.170   6.733  0.5670  0.0367 -0.1397
 2342TIP3    H1 6983   4.668   3.229   6.769 -0.6236  0.0308  2.2162
 2342TIP3    H2 6984   4.537   3.228   6.694 -0.3356  0.3229  1.6994
 2343TIP3   OH2 6985   1.142   5.971   1.959  0.4395  0.9320  0.0954
 2343TIP3    H1 6986   1.157   5.928   2.043  2.3939  0.4152 -0.4655
 2343TIP3    H2 6987   1.060   5.933   1.926  0.4845 -0.0191  1.0412
 2344TIP3   OH2 6988   0.530   4.545   5.866  0.5369  0.4644 -0.2152
 2344TIP3    H1 6989   0.602   4.495   5.828 -0.8492 -2.6048  0.8266
 2344TIP3    H2 6990   0.548   4.547   5.960 -0.4005  0.1690 -0.0122
 2345TIP3   OH2 6991   5.638   2.630   3.815 -0.0993 -0.6680 -0.1076
 2345TIP3    H1 6992   5.666   2.607   3.903  0.8047  1.8158  0.3410
 2345TIP3    H2 6993   5.632   2.726   3.816 -1.0039 -0.6291 -2.4790
 2346TIP3   OH2 6994   6.784   6.441   6.252 -0.5082 -0.0925  0.3124
 2346TIP3    H1 6995   6.872   6.461   6.283 -0.2829 -2.3856  1.3718
 2346TIP3    H2 6996   6.726   6.492   6.310  0.0587 -1.1061  1.8416
 2347TIP3   OH2 6997   6.595   6.959   4.018  0.6000  0.9130 -0.1979
 2347TIP3    H1 6998   6.577   6.902   4.092  2.4844  0.6293  0.0976
 2347TIP3    H2 6999   6.516   6.955   3.964  0.1807 -0.9164  0.4981
 2348TIP3   OH2 7000   7.512   6.121   4.229 -0.3697 -0.6225 -0.2710
 2348TIP3    H1 7001   7.607   6.112   4.222 -0.0027  1.5036  1.1128
 2348TIP3    H2 7002   7.482   6.128   4.138  1.4395  3.5744 -0.7338
 2349TIP3   OH2 7003   0.579   3.071   1.643 -0.2082  0.1409 -0.2885
 2349TIP3    H1 7004   0.582   3.166   1.654  0.1280 -0.0119  1.1011
 2349TIP3    H2 7005   0.505   3.043   1.696  0.3863 -0.4744  0.2293
 2350TIP3   OH2 7006   6.214   2.015   6.022 -0.0766  0.1751 -0.9342
 2350TIP3    H1 7007   6.154   2.087   6.000  0.1202  0.6549  0.0428
 2350TIP3    H2 7008   6.258   1.995   5.940  1.8552  3.0273 -0.7682
 2351TIP3   OH2 7009   7.221   6.326   0.402  0.3951  0.5457 -0.7478
 2351TIP3    H1 7010   7.246   6.377   0.479  1.5385  0.0189 -0.7631
 2351TIP3    H2 7011   7.204   6.238   0.436 -1.5752  0.8923 -0.7203
 2352TIP3   OH2 7012   4.878   4.284   3.599  0.0432  0.4116  0.3103
 2352TIP3    H1 7013   4.868   4.369   3.556  0.4131  0.6860  0.7628
 2352TIP3    H2 7014   4.792   4.268   3.638  0.4909  1.4477  1.7904
 2353TIP3   OH2 7015   3.135   5.854   1.512 -0.0822 -0.0715  0.4442
 2353TIP3    H1 7016   3.128   5.945   1.483 -0.4212 -0.5031 -0.9209
 2353TIP3    H2 7017   3.052   5.835   1.554 -0.5995 -0.1668 -0.5912
 2354TIP3   OH2 7018   3.792   5.130   6.293 -0.3337  0.0918  0.1583
 2354TIP3    H1 7019   3.775   5.052   6.346 -1.6629 -0.8891 -1.5576
 2354TIP3    H2 7020   3.713   5.183   6.302  0.5381  1.2493  1.2579
 2355TIP3   OH2 7021   1.423   5.603   3.456  0.1650 -0.0101 -0.0453
 2355TIP3    H1 7022   1.360   5.582   3.524 -0.7437  0.8191 -0.6086
 2355TIP3    H2 7023   1.421   5.698   3.450  2.6417  0.2003  1.0121
 2356TIP3   OH2 7024   4.966   3.184   3.074 -0.2461  0.5304  0.4711
 2356TIP3    H1 7025   4.957   3.274   3.043  0.0748  1.5328  3.0267
 2356TIP3    H2 7026   4.877   3.150   3.078 -0.4612  1.0853  0.4122
 2357TIP3   OH2 7027   3.591   2.491   6.647 -0.0047  0.1645 -0.4423
 2357TIP3    H1 7028   3.528   2.562   6.661 -0.4152 -0.5760  1.9101
 2357TIP3    H2 7029   3.550   2.415   6.690  1.4057 -0.9470 -1.0059
 2358TIP3   OH2 7030   2.459   1.350   1.977 -0.1912  0.2581 -0.2450
 2358TIP3    H1 7031   2.394   1.323   1.913 -2.0810  2.5522  0.5568
 2358TIP3    H2 7032   2.443   1.444   1.990  2.3767  0.6281  1.0578
 2359TIP3   OH2 7033   0.399   5.564   1.497 -0.5166  0.1460  0.0697
 2359TIP3    H1 7034   0.372   5.515   1.575 -1.1443  2.5496  1.4554
 2359TIP3    H2 7035   0.489   5.590   1.515 -0.6609  0.7107 -0.0299
 2360TIP3   OH2 7036   5.852   7.720   1.896 -0.7120 -0.0536 -0.3035
 2360TIP3    H1 7037   5.908   7.678   1.830  1.8079 -1.8648  2.6836
 2360TIP3    H2 7038   5.812   7.647   1.943 -0.2203  1.0021  1.8735
 2361TIP3   OH2 7039   7.531   7.774   4.405  0.3434  0.0162 -0.0866
 2361TIP3    H1 7040   7.621   7.798   4.381  0.2758 -1.2699 -1.8399
 2361TIP3    H2 7041   7.514   7.823   4.485  1.8695  1.9316 -0.8464
 2362TIP3   OH2 7042   1.827   2.747   1.762  0.4268  0.1985 -0.4776
 2362TIP3    H1 7043   1.838   2.771   1.670 -0.4867  1.4707 -0.2765
 2362TIP3    H2 7044   1.777   2.819   1.800  0.5496 -0.4410  0.9603
 2363TIP3   OH2 7045   2.270   4.090   6.037 -0.7108  0.1757 -0.1060
 2363TIP3    H1 7046   2.202   4.099   6.103 -0.8552  0.4869 -0.2984
 2363TIP3    H2 7047   2.223   4.088   5.954 -0.6053 -1.1131 -0.1609
 2364TIP3   OH2 7048   3.539   2.327   0.852 -0.3836 -0.1318 -0.3913
 2364TIP3    H1 7049   3.613   2.284   0.809 -0.9478 -0.5502 -0.9703
 2364TIP3    H2 7050   3.502   2.259   0.908 -0.7793 -0.1618 -0.6830
 2365TIP3   OH2 7051   7.462   5.480   6.568 -0.2567  0.7293  0.3648
 2365TIP3    H1 7052   7.452   5.419   6.495  1.0820 -1.2283  1.7146
 2365TIP3    H2 7053   7.378   5.476   6.614 -0.6394  0.9714 -0.2859
 2366TIP3   OH2 7054   5.617   1.096   3.542  0.3537  0.2366  0.3318
 2366TIP3    H1 7055   5.705   1.106   3.578  0.1812  0.4590  0.6938
 2366TIP3    H2 7056   5.560   1.094   3.619 -0.0607  1.1248  0.0610
 2367TIP3   OH2 7057   4.878   0.041   6.345 -0.5884 -0.1276  0.2140
 2367TIP3    H1 7058   4.925   0.123   6.337  1.6978 -1.1039  2.1577
 2367TIP3    H2 7059   4.843   0.024   6.258 -2.0456  3.3216 -0.0235
 2368TIP3   OH2 7060   0.972   4.342   0.219  0.1814  0.2084 -0.1046
 2368TIP3    H1 7061   0.956   4.401   0.293 -1.3319  0.2002 -0.3921
 2368TIP3    H2 7062   0.994   4.258   0.260 -3.8504 -0.7478  0.5539
 2369TIP3   OH2 7063   8.040   1.936   1.747  0.7169 -0.3015  0.3194
 2369TIP3    H1 7064   8.092   1.973   1.676  2.3200  0.2208  1.6888
 2369TIP3    H2 7065   7.985   2.007   1.777  0.4825 -0.3466 -0.0029
 2370TIP3   OH2 7066   4.260   5.418   5.891 -0.0910 -0.1367 -0.3318
 2370TIP3    H1 7067   4.238   5.348   5.952 -0.5380  1.3592  1.2893
 2370TIP3    H2 7068   4.304   5.484   5.944  0.0896  0.9424 -1.7596
 2371TIP3   OH2 7069   5.203   3.454   3.764 -0.3889  0.0477 -0.5146
 2371TIP3    H1 7070   5.230   3.377   3.814 -1.8288  0.1527  0.4993
 2371TIP3    H2 7071   5.247   3.444   3.679  2.1204 -0.1474  0.7211
 2372TIP3   OH2 7072   3.974   3.697   5.023  0.1695  0.0660 -0.3327
 2372TIP3    H1 7073   3.977   3.615   4.973  1.4841 -0.2423  0.2199
 2372TIP3    H2 7074   4.065   3.724   5.030  0.2302 -0.5999  2.9835
 2373TIP3   OH2 7075   0.872   6.817   3.692 -0.1165 -0.2498 -0.2275
 2373TIP3    H1 7076   0.793   6.860   3.724  0.1224 -0.7754  1.1436
 2373TIP3    H2 7077   0.940   6.885   3.695 -0.0031 -0.3904  0.8332
 2374TIP3   OH2 7078   6.208   0.415   5.512  0.3891 -0.4974  0.2263
 2374TIP3    H1 7079   6.268   0.415   5.586  1.2515 -2.9938 -0.3690
 2374TIP3    H2 7080   6.125   0.385   5.548  0.1861  0.4451  0.5676
 2375TIP3   OH2 7081   1.780   0.614   0.370  0.3034  0.3809  0.1007
 2375TIP3    H1 7082   1.851   0.554   0.393 -0.1240 -1.2415 -2.4928
 2375TIP3    H2 7083   1.708   0.588   0.427  0.7430 -0.2407  0.3841
 2376TIP3   OH2 7084   1.147   0.879   1.666  0.2808 -0.0959  0.4075
 2376TIP3    H1 7085   1.082   0.870   1.736  1.6132 -1.7325  1.5116
 2376TIP3    H2 7086   1.101   0.927   1.597 -2.4184 -1.9711  0.7383
 2377TIP3   OH2 7087   7.193   4.816   4.252 -0.9024 -0.1482 -0.5107
 2377TIP3    H1 7088   7.267   4.849   4.201 -0.4524 -0.7275 -0.2373
 2377TIP3    H2 7089   7.183   4.881   4.323 -0.2911 -0.3559 -0.2218
 2378TIP3   OH2 7090   5.878   7.712   3.374  0.3105  0.0910 -0.3241
 2378TIP3    H1 7091   5.958   7.754   3.341  1.5004 -0.3690  1.7854
 2378TIP3    H2 7092   5.848   7.769   3.444 -1.2141  0.2243 -1.0671
 2379TIP3   OH2 7093   6.775   6.299   4.875 -0.1094 -0.0877  0.7558
 2379TIP3    H1 7094   6.779   6.369   4.940  2.7855  0.5732  0.0298
 2379TIP3    H2 7095   6.843   6.238   4.903 -0.3859 -0.9482 -0.4057
 2380TIP3   OH2 7096   4.364   3.215   3.132 -0.4585 -0.0217  0.5192
 2380TIP3    H1 7097   4.403   3.129   3.117 -2.5144 -1.1015  0.9256
 2380TIP3    H2 7098   4.313   3.232   3.052  2.2666  2.2853 -0.8888
 2381TIP3   OH2 7099   2.508   7.298   3.691 -0.5944 -0.5943 -0.1080
 2381TIP3    H1 7100   2.559   7.232   3.737  0.0802 -1.0590 -1.4806
 2381TIP3    H2 7101   2.551   7.381   3.711 -0.8843 -0.6588  0.8500
 2382TIP3   OH2 7102   7.016   1.895   4.471 -0.3105  0.6962 -0.1278
 2382TIP3    H1 7103   7.024   1.824   4.408 -2.0212  0.4454 -0.1091
 2382TIP3    H2 7104   7.027   1.975   4.419  0.2443  0.4452 -0.3954
 2383TIP3   OH2 7105   4.659   0.341   1.945  0.3637 -0.5011 -0.0484
 2383TIP3    H1 7106   4.702   0.419   1.980 -0.3025 -0.6335  1.1097
 2383TIP3    H2 7107   4.718   0.311   1.875  1.0513  0.5453  0.0534
 2384TIP3   OH2 7108   6.709   2.623   2.036  0.0745 -0.1574  0.1552
 2384TIP3    H1 7109   6.690   2.541   1.991 -1.5466 -0.6057  1.5393
 2384TIP3    H2 7110   6.667   2.614   2.122  1.6386  1.2931  1.1517
 2385TIP3   OH2 7111   6.141   6.209   2.091  0.7078  0.4736  0.0911
 2385TIP3    H1 7112   6.151   6.121   2.053 -1.7692  0.2132 -0.1394
 2385TIP3    H2 7113   6.183   6.267   2.028  0.6780 -0.3798 -0.7462
 2386TIP3   OH2 7114   3.486   7.472   2.116  0.3048  0.1039 -0.2234
 2386TIP3    H1 7115   3.451   7.538   2.176  0.7897  0.3965 -0.2599
 2386TIP3    H2 7116   3.540   7.415   2.170 -1.6453 -1.4534  0.1905
 2387TIP3   OH2 7117   0.074   4.135   1.766  0.6552  0.2319  0.2263
 2387TIP3    H1 7118   0.059   4.230   1.764  1.8437  0.4277 -0.3132
 2387TIP3    H2 7119   0.061   4.108   1.675  1.7998  0.1388  0.0789
 2388TIP3   OH2 7120   6.345   1.997   4.834  0.1164 -0.0679  0.3904
 2388TIP3    H1 7121   6.355   2.068   4.770 -2.1901  1.4987  1.6213
 2388TIP3    H2 7122   6.431   1.987   4.874  1.0481  0.4164 -1.4152
 2389TIP3   OH2 7123   7.038   3.980   6.039 -0.3587 -0.2384 -0.2120
 2389TIP3    H1 7124   7.107   3.930   5.996  1.4408  1.7743  0.1464
 2389TIP3    H2 7125   7.083   4.027   6.109 -2.0772  1.2505 -0.0426
 2390TIP3   OH2 7126   7.990   3.765   0.402 -0.1239  0.0599 -0.1565
 2390TIP3    H1 7127   7.951   3.714   0.473  0.4967  0.8038  0.7513
 2390TIP3    H2 7128   7.975   3.713   0.323 -2.0377 -0.1502  0.2914
 2391TIP3   OH2 7129   1.684   2.866   4.336 -0.7840  0.1255  0.1490
 2391TIP3    H1 7130   1.647   2.954   4.345 -1.0892  0.0352 -0.1675
 2391TIP3    H2 7131   1.696   2.835   4.426  1.0962  1.2064  0.3003
 2392TIP3   OH2 7132   2.510   2.865   5.865 -0.0327  0.1873  0.1654
 2392TIP3    H1 7133   2.571   2.937   5.882 -0.8706  0.7684  0.7567
 2392TIP3    H2 7134   2.536   2.832   5.779  1.7971 -0.2785  0.8283
 2393TIP3   OH2 7135   2.510   4.025   1.063  0.3720  0.7542  0.0399
 2393TIP3    H1 7136   2.588   4.062   1.022  1.2937  0.1426  1.1734
 2393TIP3    H2 7137   2.472   3.968   0.996  1.7930 -0.1717 -0.0341
 2394TIP3   OH2 7138   7.879   1.593   4.176 -0.1841  0.3318  0.1365
 2394TIP3    H1 7139   7.932   1.539   4.117 -1.2679 -0.0315 -0.5507
 2394TIP3    H2 7140   7.871   1.677   4.130  0.7256  0.7757  0.7701
 2395TIP3   OH2 7141   5.236   6.225   3.487 -0.1059  0.2904  0.1609
 2395TIP3    H1 7142   5.240   6.252   3.395  1.9459 -0.0832  0.0940
 2395TIP3    H2 7143   5.306   6.276   3.530 -0.6624  0.0501  1.4000
 2396TIP3   OH2 7144   7.805   2.073   3.598  0.1237 -0.2760 -0.2349
 2396TIP3    H1 7145   7.821   1.995   3.544  0.8538 -0.2970  0.0062
 2396TIP3    H2 7146   7.709   2.082   3.599  0.0343 -1.1309 -0.3208
 2397TIP3   OH2 7147   2.810   2.395   1.032 -0.0750  0.1059 -0.6743
 2397TIP3    H1 7148   2.797   2.478   1.078 -1.6465 -0.9473  0.9193
 2397TIP3    H2 7149   2.749   2.398   0.959  1.5393  1.2628 -2.0625
 2398TIP3   OH2 7150   1.251   1.288   0.656  0.1312  0.6112  0.3915
 2398TIP3    H1 7151   1.286   1.376   0.667  0.7370  0.3313  0.7442
 2398TIP3    H2 7152   1.250   1.274   0.562  1.9246  0.2636  0.3821
 2399TIP3   OH2 7153   5.757   4.874   5.560 -0.0300 -0.3371 -0.3623
 2399TIP3    H1 7154   5.776   4.953   5.609  2.3796  0.2932 -2.1623
 2399TIP3    H2 7155   5.709   4.904   5.483  0.1374 -0.7294 -0.6245
 2400TIP3   OH2 7156   7.980   3.585   2.809 -0.2152 -0.4842  0.2523
 2400TIP3    H1 7157   8.024   3.609   2.727 -2.0217  2.5039  0.0264
 2400TIP3    H2 7158   8.039   3.616   2.877 -0.4054  0.4276  0.0102
 2401TIP3   OH2 7159   5.336   2.501   5.456 -0.2117  0.4288 -0.6766
 2401TIP3    H1 7160   5.270   2.565   5.429 -0.3508  1.0443  1.0538
 2401TIP3    H2 7161   5.406   2.553   5.494 -0.6727 -0.4221  1.4975
 2402TIP3   OH2 7162   8.047   5.189   3.765  0.3597 -0.2001  0.5306
 2402TIP3    H1 7163   8.140   5.168   3.769  0.8682  2.0305  1.3401
 2402TIP3    H2 7164   8.023   5.172   3.674  1.6373 -0.4703  0.2231
 2403TIP3   OH2 7165   8.092   2.680   2.530 -0.4392  0.2891 -0.0575
 2403TIP3    H1 7166   8.007   2.653   2.495 -0.5855  0.2802  0.3050
 2403TIP3    H2 7167   8.076   2.768   2.565 -0.1524  0.5323 -0.5366
 2404TIP3   OH2 7168   3.335   2.099   6.639 -0.1550 -0.1397  0.4674
 2404TIP3    H1 7169   3.393   2.024   6.651  0.7692  0.3260 -0.9088
 2404TIP3    H2 7170   3.248   2.061   6.629  0.0419 -0.9075  1.5326
 2405TIP3   OH2 7171   4.627   4.929   5.075 -0.8405 -0.0205 -0.7249
 2405TIP3    H1 7172   4.675   4.896   4.999  0.9811  1.4078 -0.2473
 2405TIP3    H2 7173   4.615   5.022   5.058  0.1371  0.4536  0.9931
 2406TIP3   OH2 7174   5.976   6.018   1.811  0.1826  0.0470  0.1062
 2406TIP3    H1 7175   5.993   6.067   1.731  3.8729  0.6892  1.1364
 2406TIP3    H2 7176   6.062   6.000   1.848 -1.2648  1.7165  5.1176
 2407TIP3   OH2 7177   7.400   5.178   6.701 -0.2454  0.1638  0.1791
 2407TIP3    H1 7178   7.496   5.176   6.702 -0.2444  0.0800 -0.0537
 2407TIP3    H2 7179   7.378   5.202   6.611 -0.4333  0.7947  0.3858
 2408TIP3   OH2 7180   0.443   1.751   2.099 -0.0694  0.5645 -0.8077
 2408TIP3    H1 7181   0.373   1.762   2.163 -0.1772  0.7637 -0.9588
 2408TIP3    H2 7182   0.398   1.719   2.021 -0.2299  2.1493 -1.4077
 2409TIP3   OH2 7183   0.218   1.985   1.480 -0.1309 -0.2257  0.0618
 2409TIP3    H1 7184   0.204   1.891   1.473 -0.7039 -0.1382  0.0273
 2409TIP3    H2 7185   0.165   2.012   1.555 -0.6454  0.2066 -0.4540
 2410TIP3   OH2 7186   1.143   5.645   2.161  0.3264  0.1635 -0.4704
 2410TIP3    H1 7187   1.061   5.694   2.154  0.9987  1.5743  0.8952
 2410TIP3    H2 7188   1.200   5.701   2.214  1.7421 -1.3604 -0.2968
 2411TIP3   OH2 7189   6.365   6.738   2.687  0.1494 -0.1503  0.1048
 2411TIP3    H1 7190   6.301   6.716   2.619 -0.4563  1.2229  0.1909
 2411TIP3    H2 7191   6.340   6.684   2.762  1.7480 -2.8554 -1.1402
 2412TIP3   OH2 7192   5.382   0.106   0.275 -0.0851  0.4511 -0.1732
 2412TIP3    H1 7193   5.441   0.181   0.261  1.0843 -0.8979 -3.2494
 2412TIP3    H2 7194   5.295   0.142   0.261  0.2890  1.5968  0.2405
 2413TIP3   OH2 7195   0.721   3.819   3.636  0.4775  0.0410  0.0309
 2413TIP3    H1 7196   0.732   3.780   3.723  0.9298  1.3395  0.5961
 2413TIP3    H2 7197   0.689   3.908   3.655 -0.7312 -0.1110 -1.1914
 2414TIP3   OH2 7198   5.734   6.705   3.202  0.0288 -0.7526  0.1912
 2414TIP3    H1 7199   5.671   6.747   3.144 -0.0427 -1.7033 -0.4479
 2414TIP3    H2 7200   5.771   6.634   3.150 -1.3631 -2.8400  1.8247
 2415TIP3   OH2 7201   2.113   6.931   3.918 -0.0197  0.2040 -0.0085
 2415TIP3    H1 7202   2.205   6.958   3.917  0.0643 -0.0698 -1.3402
 2415TIP3    H2 7203   2.103   6.879   3.838 -1.3786  0.3750  0.0350
 2416TIP3   OH2 7204   4.902   4.275   4.315 -0.4109  0.7056 -0.1306
 2416TIP3    H1 7205   4.835   4.337   4.285 -0.5290  0.8050  0.3357
 2416TIP3    H2 7206   4.968   4.276   4.245 -0.6190  1.0371 -0.3262
 2417TIP3   OH2 7207   0.256   2.117   2.757  0.1943  0.6268 -0.7640
 2417TIP3    H1 7208   0.322   2.164   2.809 -0.6555  0.4107  0.5862
 2417TIP3    H2 7209   0.173   2.155   2.786 -0.3572 -0.0779 -1.3964
 2418TIP3   OH2 7210   5.847   2.853   2.596  0.5533 -0.5455  0.0179
 2418TIP3    H1 7211   5.762   2.830   2.557  0.8609 -0.3517 -0.8029
 2418TIP3    H2 7212   5.826   2.894   2.679 -0.1245 -1.2493  0.2026
 2419TIP3   OH2 7213   2.795   5.384   6.017 -0.6954  0.0874  0.7734
 2419TIP3    H1 7214   2.791   5.293   5.989 -1.7320  0.7258 -1.3396
 2419TIP3    H2 7215   2.872   5.420   5.973 -1.6525  0.7999 -0.3873
 2420TIP3   OH2 7216   1.999   4.703   2.318  0.0381  0.3568 -0.2699
 2420TIP3    H1 7217   2.026   4.757   2.243 -1.1827  0.9031 -0.3324
 2420TIP3    H2 7218   2.077   4.698   2.373  0.5831  0.9857 -0.9645
 2421TIP3   OH2 7219   4.725   7.637   1.713 -0.0778 -0.4557 -0.1992
 2421TIP3    H1 7220   4.655   7.573   1.726 -0.5030  0.0003 -0.2328
 2421TIP3    H2 7221   4.800   7.585   1.684 -0.7079 -0.8253 -1.1995
 2422TIP3   OH2 7222   7.641   3.886   5.157 -0.3146 -0.4136 -0.3468
 2422TIP3    H1 7223   7.696   3.831   5.212 -0.6531 -0.1902  0.2209
 2422TIP3    H2 7224   7.567   3.910   5.213 -0.0846  0.7567 -0.5281
 2423TIP3   OH2 7225   5.439   3.638   0.038 -0.3008  0.6773  0.1671
 2423TIP3    H1 7226   5.401   3.587  -0.034  1.1107 -1.4313  0.8125
 2423TIP3    H2 7227   5.379   3.711   0.049 -1.5571  0.0779 -1.9300
 2424TIP3   OH2 7228   0.964   7.031   2.617 -0.0374  0.6798  0.9222
 2424TIP3    H1 7229   1.026   7.009   2.547 -1.2466  2.0866 -0.6837
 2424TIP3    H2 7230   0.959   6.952   2.670  1.1650 -0.3536 -0.4030
 2425TIP3   OH2 7231   0.875   2.589   0.680 -0.8821 -0.1180  0.2270
 2425TIP3    H1 7232   0.847   2.680   0.673 -1.5292 -0.3611 -0.5384
 2425TIP3    H2 7233   0.860   2.565   0.771 -0.3117  0.6580  0.5313
 2426TIP3   OH2 7234   2.551   1.760   1.298  0.7910 -0.2843  0.0993
 2426TIP3    H1 7235   2.538   1.665   1.298 -0.0610 -0.1824  0.3617
 2426TIP3    H2 7236   2.510   1.789   1.379  2.5791  0.1309  0.9003
 2427TIP3   OH2 7237   0.767   2.410   2.055  0.1409  0.0313 -0.0625
 2427TIP3    H1 7238   0.686   2.362   2.033  0.3746 -1.4354  2.0293
 2427TIP3    H2 7239   0.747   2.501   2.032 -2.3805 -0.1595  1.0326
 2428TIP3   OH2 7240   1.433   5.384   5.225 -0.1290  0.2559  0.3821
 2428TIP3    H1 7241   1.446   5.420   5.313 -0.4460 -0.4175  0.7154
 2428TIP3    H2 7242   1.381   5.305   5.239  2.3253 -1.5312 -0.1030
 2429TIP3   OH2 7243   5.449   5.871   2.096 -0.4873  0.2802  0.6688
 2429TIP3    H1 7244   5.514   5.859   2.165  0.3310  0.3425 -0.0870
 2429TIP3    H2 7245   5.369   5.832   2.132 -0.0802  0.3411  1.6594
 2430TIP3   OH2 7246   2.965   1.950   1.818 -0.2239 -0.1606 -0.4357
 2430TIP3    H1 7247   2.936   2.030   1.775 -0.8674 -0.0277  0.2094
 2430TIP3    H2 7248   2.956   1.969   1.912  1.0772 -0.4556 -0.2352
 2431TIP3   OH2 7249   4.070   5.254   1.928 -0.2599 -0.1720 -0.2966
 2431TIP3    H1 7250   4.102   5.237   2.017 -2.1813 -1.8145  0.1624
 2431TIP3    H2 7251   3.987   5.205   1.923  0.0074 -0.4877 -3.1358
 2432TIP3   OH2 7252   4.512   3.563   2.720  0.2254  0.0918  0.5955
 2432TIP3    H1 7253   4.429   3.566   2.672  0.9716  2.2322 -0.6520
 2432TIP3    H2 7254   4.579   3.578   2.654  1.4523  0.8612  1.9623
 2433TIP3   OH2 7255   0.745   6.410   4.851  0.6973  0.4552 -0.6143
 2433TIP3    H1 7256   0.749   6.502   4.825  2.2899  0.5738 -0.0501
 2433TIP3    H2 7257   0.692   6.369   4.783  1.2697  1.5107 -1.7422
 2434TIP3   OH2 7258   6.430   7.406   0.549  0.0973  0.2310  0.3746
 2434TIP3    H1 7259   6.482   7.460   0.609  0.2991  1.2428 -0.6669
 2434TIP3    H2 7260   6.475   7.416   0.464 -2.4047  2.1361 -0.8759
 2435TIP3   OH2 7261   1.751   1.184   1.273  0.1059  0.3355 -0.0773
 2435TIP3    H1 7262   1.709   1.234   1.203 -1.6525  1.1920  1.4906
 2435TIP3    H2 7263   1.804   1.248   1.320 -2.8298  1.1383  2.4690
 2436TIP3   OH2 7264  -0.011   4.450   2.014  0.1572  0.4260 -0.0975
 2436TIP3    H1 7265   0.075   4.416   1.991  1.3170  2.6393  0.6814
 2436TIP3    H2 7266  -0.049   4.383   2.071  0.8379 -1.1110 -1.3781
 2437TIP3   OH2 7267   1.693   6.253   0.988  0.7427 -0.4334 -1.0209
 2437TIP3    H1 7268   1.664   6.341   1.012  0.3022 -0.9097  0.2834
 2437TIP3    H2 7269   1.724   6.215   1.070 -1.2693 -2.3157 -1.0294
 2438TIP3   OH2 7270   3.993   7.130   5.247 -0.1462 -0.3614  0.0923
 2438TIP3    H1 7271   3.960   7.210   5.204  0.6311  0.0272  0.2065
 2438TIP3    H2 7272   3.917   7.072   5.250 -0.2856 -0.3363 -1.6365
 2439TIP3   OH2 7273   4.901   3.264   0.880  0.7090  0.5680 -0.1392
 2439TIP3    H1 7274   4.897   3.174   0.910 -0.6245  1.2009  1.7398
 2439TIP3    H2 7275   4.869   3.261   0.789 -1.7487 -0.5539  0.6879
 2440TIP3   OH2 7276   4.646   6.064   1.774  0.4166  0.1683  0.5647
 2440TIP3    H1 7277   4.582   6.057   1.845  1.7531 -0.4414  1.7698
 2440TIP3    H2 7278   4.729   6.081   1.819  1.2321  0.1656 -0.8885
 2441TIP3   OH2 7279   2.967   3.753   4.339  0.3483 -0.4479 -0.2241
 2441TIP3    H1 7280   3.030   3.683   4.356 -0.5161 -1.0810  0.5074
 2441TIP3    H2 7281   2.898   3.710   4.288 -0.1227 -0.1036  0.1173
 2442TIP3   OH2 7282   5.325   4.823   2.151  0.2823  0.2940  0.3209
 2442TIP3    H1 7283   5.259   4.849   2.087  1.2071 -0.5654 -1.0271
 2442TIP3    H2 7284   5.404   4.809   2.100  1.3051  0.4518  1.7843
 2443TIP3   OH2 7285   1.189   6.740   5.184  0.2361  0.1186  0.2804
 2443TIP3    H1 7286   1.173   6.663   5.129  2.2191  1.2131 -2.0086
 2443TIP3    H2 7287   1.136   6.724   5.262 -0.9851 -2.6077 -0.9395
 2444TIP3   OH2 7288   1.445   2.640   0.237  0.4728 -0.0546  0.1401
 2444TIP3    H1 7289   1.501   2.688   0.297  0.5789  0.1736 -0.1348
 2444TIP3    H2 7290   1.505   2.593   0.180  0.3636 -1.5555  1.2092
 2445TIP3   OH2 7291   6.066   7.825   4.421  0.2175 -0.0884  0.4939
 2445TIP3    H1 7292   5.990   7.875   4.451  0.7116  0.4221  0.9110
 2445TIP3    H2 7293   6.053   7.737   4.457  0.0633  0.1237  0.9517
 2446TIP3   OH2 7294   1.346   6.705   2.792 -0.8807 -0.5186  0.1777
 2446TIP3    H1 7295   1.306   6.623   2.818  0.7088 -0.6440  2.5648
 2446TIP3    H2 7296   1.328   6.765   2.864 -1.1364  0.9555 -1.0485
 2447TIP3   OH2 7297   2.314   7.800   2.927  0.0277  0.1142  0.1503
 2447TIP3    H1 7298   2.355   7.846   3.001 -2.2479  2.7195 -0.0399
 2447TIP3    H2 7299   2.238   7.756   2.965  0.3200 -0.7423 -0.2341
 2448TIP3   OH2 7300   4.119   1.165   4.488  0.1883  0.3029  0.1909
 2448TIP3    H1 7301   4.076   1.244   4.456  0.4192  1.7292  3.0307
 2448TIP3    H2 7302   4.192   1.151   4.429  0.8095  2.9402  0.2149
 2449TIP3   OH2 7303   0.887   7.163   5.634  0.0783  0.9054  0.6870
 2449TIP3    H1 7304   0.855   7.252   5.648 -1.1485  0.8661 -1.4810
 2449TIP3    H2 7305   0.945   7.169   5.558 -1.4971 -0.3933 -0.6912
 2450TIP3   OH2 7306   6.131   4.606   0.383 -0.1359  0.8576 -0.3955
 2450TIP3    H1 7307   6.183   4.677   0.420  0.5414  0.4017 -0.4585
 2450TIP3    H2 7308   6.041   4.627   0.408  0.1359  1.3671  0.1874
 2451TIP3   OH2 7309   2.847   7.229   5.207  0.4976  0.3080 -0.1470
 2451TIP3    H1 7310   2.880   7.208   5.120 -1.2954 -1.5332 -0.4387
 2451TIP3    H2 7311   2.879   7.319   5.223  0.5598  0.8513 -2.8229
 2452TIP3   OH2 7312   5.217   7.469   2.536 -0.1540 -0.0340  0.8825
 2452TIP3    H1 7313   5.130   7.475   2.495  0.2387 -0.2490  0.0083
 2452TIP3    H2 7314   5.216   7.538   2.603 -0.7891  0.3401  0.4988
 2453TIP3   OH2 7315   5.439   3.025   3.153 -0.4371  0.3044  0.4802
 2453TIP3    H1 7316   5.431   2.933   3.178 -0.6146  0.3113  0.4457
 2453TIP3    H2 7317   5.527   3.050   3.183 -0.4964  0.2026  0.7432
 2454TIP3   OH2 7318   7.211   5.455   0.912  0.7498  0.4443  0.0021
 2454TIP3    H1 7319   7.293   5.405   0.909 -0.1343 -1.3101  2.1760
 2454TIP3    H2 7320   7.204   5.484   1.002 -1.0157  0.5438 -0.1392
 2455TIP3   OH2 7321   2.637   7.017   1.870 -0.4404 -0.3085  0.9486
 2455TIP3    H1 7322   2.658   6.968   1.791 -2.4776 -0.0707  0.2139
 2455TIP3    H2 7323   2.632   6.950   1.939  0.6833 -0.5953  0.7644
 2456TIP3   OH2 7324   8.283   7.209   5.814 -0.5699  0.2181  0.6304
 2456TIP3    H1 7325   8.218   7.279   5.805 -0.7733 -0.0023  0.4085
 2456TIP3    H2 7326   8.330   7.209   5.730 -0.2510  0.4086  0.8070
 2457TIP3   OH2 7327   8.013   7.662   1.000  0.6890  0.6825 -0.2345
 2457TIP3    H1 7328   8.016   7.567   1.012 -0.9912  0.4762 -1.2590
 2457TIP3    H2 7329   8.076   7.679   0.930  0.2779  0.1855 -0.7404
 2458TIP3   OH2 7330   2.397   3.237   1.504  0.0120  0.2972  0.7827
 2458TIP3    H1 7331   2.479   3.192   1.483  0.4356  1.4684 -0.2026
 2458TIP3    H2 7332   2.411   3.273   1.592  1.0060  1.4179  0.1961
 2459TIP3   OH2 7333   2.291   1.424   3.516 -0.1890  0.1107 -0.2017
 2459TIP3    H1 7334   2.249   1.340   3.499  0.1154  0.1491 -1.1559
 2459TIP3    H2 7335   2.218   1.484   3.530 -0.4111 -0.4059  1.0833
 2460TIP3   OH2 7336   2.396   6.995   5.341 -0.2767  0.5121 -0.0349
 2460TIP3    H1 7337   2.335   7.040   5.283 -0.5179  0.5329  0.2298
 2460TIP3    H2 7338   2.377   6.902   5.327  0.4332  0.4756 -0.8075
 2461TIP3   OH2 7339   3.217   2.035   4.459  0.2924 -0.0537 -0.9418
 2461TIP3    H1 7340   3.126   2.004   4.467  0.3163  0.0879  0.0137
 2461TIP3    H2 7341   3.222   2.072   4.371 -0.3851 -0.6730 -1.2610
 2462TIP3   OH2 7342   5.052   2.342   1.429  0.1546  0.3066 -0.4736
 2462TIP3    H1 7343   5.064   2.347   1.524 -0.6085  0.2795 -0.3697
 2462TIP3    H2 7344   5.127   2.389   1.393  0.3872  0.4204  0.1449
 2463TIP3   OH2 7345   6.509   4.754   0.482  0.2242  0.4441  0.0799
 2463TIP3    H1 7346   6.463   4.751   0.566  1.7054  0.6993  0.9410
 2463TIP3    H2 7347   6.498   4.844   0.452 -3.1455 -0.4188 -1.7315
 2464TIP3   OH2 7348   7.976   1.739   3.573 -0.2010  0.0021  0.0925
 2464TIP3    H1 7349   8.059   1.787   3.569 -0.8070  1.0109 -1.3839
 2464TIP3    H2 7350   7.970   1.694   3.489 -1.0068 -0.3095  0.3096
 2465TIP3   OH2 7351   1.124   6.693   0.102 -0.0794 -0.5126 -0.2155
 2465TIP3    H1 7352   1.119   6.700   0.197 -0.3417 -0.6190 -0.2233
 2465TIP3    H2 7353   1.047   6.740   0.070 -1.0146 -2.0818 -0.3201
 2466TIP3   OH2 7354   3.258   1.168   3.832 -0.3875  0.3043  0.1743
 2466TIP3    H1 7355   3.342   1.137   3.868  0.1066  1.7525  0.3309
 2466TIP3    H2 7356   3.283   1.219   3.755 -1.2060 -0.0211 -0.3120
 2467TIP3   OH2 7357   4.508   6.015   3.528 -0.2273 -0.2250  0.0451
 2467TIP3    H1 7358   4.477   5.994   3.440  0.4153  0.3960 -0.3476
 2467TIP3    H2 7359   4.432   6.051   3.573 -0.2076  0.8133 -0.7305
 2468TIP3   OH2 7360   0.477   2.472   2.326  0.3459 -0.2343  0.8928
 2468TIP3    H1 7361   0.443   2.383   2.337 -2.0235  0.6455  1.3554
 2468TIP3    H2 7362   0.434   2.523   2.395  0.0035  1.6643 -0.6163
 2469TIP3   OH2 7363   1.976   3.583   4.955 -0.5520 -0.4919 -0.2572
 2469TIP3    H1 7364   1.946   3.637   5.028  1.6484 -1.3776  1.4215
 2469TIP3    H2 7365   2.009   3.645   4.891  0.2718  0.2464  0.8489
 2470TIP3   OH2 7366   5.078   1.651   4.265  0.4321 -0.6033  0.6784
 2470TIP3    H1 7367   5.167   1.663   4.234  0.4598 -0.3816  0.8465
 2470TIP3    H2 7368   5.032   1.731   4.238  0.1804 -0.8954  0.2226
 2471TIP3   OH2 7369   2.644   0.037   3.185 -0.6148  0.5695 -0.1456
 2471TIP3    H1 7370   2.605   0.078   3.262  1.1517  1.0212  0.5579
 2471TIP3    H2 7371   2.617  -0.055   3.191  0.1218  0.4199  1.4829
 2472TIP3   OH2 7372   7.546   2.262   2.717  0.0199 -1.0267  0.4469
 2472TIP3    H1 7373   7.491   2.340   2.717 -0.4464 -1.3055 -1.3824
 2472TIP3    H2 7374   7.633   2.294   2.740  0.3883  0.5259 -2.6786
 2473TIP3   OH2 7375   2.883   6.572   0.927  0.9661  0.3546 -0.4201
 2473TIP3    H1 7376   2.895   6.543   1.017 -3.4319  1.6863  0.8653
 2473TIP3    H2 7377   2.820   6.510   0.891  0.8568  1.2214 -1.7742
 2474TIP3   OH2 7378   5.439   7.217   4.968  0.3578 -0.3453  0.1228
 2474TIP3    H1 7379   5.487   7.190   4.890 -0.7814  0.6987 -0.9881
 2474TIP3    H2 7380   5.491   7.183   5.041  0.6143 -2.7233 -1.0954
 2475TIP3   OH2 7381   5.431   6.259   0.716 -0.8633  0.0489 -0.4761
 2475TIP3    H1 7382   5.374   6.199   0.668 -1.4414 -0.6535  1.0556
 2475TIP3    H2 7383   5.461   6.209   0.792 -0.1405  1.2130  0.0346
 2476TIP3   OH2 7384   2.197   2.127   1.544 -0.0744  0.2062  0.3315
 2476TIP3    H1 7385   2.131   2.180   1.590 -0.9588 -0.6041  0.0374
 2476TIP3    H2 7386   2.269   2.188   1.526 -0.0682  0.7345  2.0401
 2477TIP3   OH2 7387   7.278   6.962   4.328 -0.1082 -0.1193 -0.3794
 2477TIP3    H1 7388   7.272   6.945   4.234  0.7170 -1.0539 -0.2813
 2477TIP3    H2 7389   7.362   7.005   4.340  0.3417 -1.0683  0.0510
 2478TIP3   OH2 7390   7.510   1.093   5.443  0.2737  0.0301 -0.7089
 2478TIP3    H1 7391   7.417   1.071   5.431  0.1722  1.0195 -2.0173
 2478TIP3    H2 7392   7.509   1.183   5.475  0.7635 -0.4761  0.7694
 2479TIP3   OH2 7393   0.037   3.614   0.425  0.4733 -0.2561  0.2470
 2479TIP3    H1 7394   0.117   3.627   0.374  0.6129  0.6522  0.6699
 2479TIP3    H2 7395  -0.007   3.540   0.383  0.4974  0.5679 -1.2763
 2480TIP3   OH2 7396   7.798   1.259   3.445 -0.6644  0.0117 -0.1478
 2480TIP3    H1 7397   7.865   1.195   3.421 -1.2345 -1.3254  1.5859
 2480TIP3    H2 7398   7.717   1.224   3.408 -0.7949  0.3345 -0.1684
 2481TIP3   OH2 7399   0.042   6.979   6.081 -0.0377 -0.2430 -0.1502
 2481TIP3    H1 7400   0.116   7.029   6.048  0.4285 -1.1510 -0.5137
 2481TIP3    H2 7401   0.074   6.889   6.085 -0.6704 -0.4298  1.0493
 2482TIP3   OH2 7402   5.157   5.207   2.382 -0.5712  0.5331  0.0717
 2482TIP3    H1 7403   5.182   5.299   2.380 -0.8644  0.6491  1.0783
 2482TIP3    H2 7404   5.133   5.191   2.473  0.7048 -0.8643  0.2055
 2483TIP3   OH2 7405   6.946   0.430   2.438 -0.2342 -0.5885  0.0023
 2483TIP3    H1 7406   6.850   0.432   2.440 -0.3174  1.4824 -1.6392
 2483TIP3    H2 7407   6.969   0.492   2.369  2.3246 -0.2002  1.0892
 2484TIP3   OH2 7408   0.699   2.805   0.731  0.2208  0.4012 -0.1132
 2484TIP3    H1 7409   0.680   2.799   0.825 -1.4671 -1.5182 -0.5195
 2484TIP3    H2 7410   0.666   2.892   0.706  0.1156  0.6813  0.9284
 2485TIP3   OH2 7411   1.179   6.400   0.032  0.5947  0.2379  0.0493
 2485TIP3    H1 7412   1.178   6.474   0.092  0.5430  0.7436 -0.5622
 2485TIP3    H2 7413   1.257   6.412  -0.021  1.3659 -0.9200  0.8611
 2486TIP3   OH2 7414   5.086   1.786   6.700  0.2622 -0.0156 -0.3063
 2486TIP3    H1 7415   5.010   1.739   6.666 -0.5332  1.4621 -0.6120
 2486TIP3    H2 7416   5.096   1.862   6.643  1.5019  0.2434  0.2057
 2487TIP3   OH2 7417   0.701   5.392   0.537 -0.4471 -0.0045 -0.5818
 2487TIP3    H1 7418   0.621   5.437   0.509 -0.5505 -0.3959 -0.9332
 2487TIP3    H2 7419   0.727   5.340   0.460 -0.2192 -0.3827 -0.2522
 2488TIP3   OH2 7420   1.766   5.719   2.693  0.2125 -0.1594  0.2579
 2488TIP3    H1 7421   1.787   5.811   2.710  0.4715 -0.1221 -0.2577
 2488TIP3    H2 7422   1.684   5.704   2.741  0.9012 -0.0436  1.5026
 2489TIP3   OH2 7423   6.236   7.357   5.985  0.1604  0.0009 -0.4647
 2489TIP3    H1 7424   6.145   7.382   5.965 -0.2133 -1.0105 -0.0821
 2489TIP3    H2 7425   6.237   7.348   6.080  0.5240 -0.5167 -0.5172
 2490TIP3   OH2 7426   4.786   3.965   0.105  0.0611 -0.1289 -0.1541
 2490TIP3    H1 7427   4.868   4.004   0.135 -1.5687  1.5485  2.4484
 2490TIP3    H2 7428   4.763   3.900   0.171 -0.6745 -0.6807 -0.9157
 2491TIP3   OH2 7429   2.777   1.603   3.817  0.6859 -0.3417  0.1568
 2491TIP3    H1 7430   2.761   1.696   3.802  0.8151 -0.5888 -1.7625
 2491TIP3    H2 7431   2.692   1.569   3.845  0.6557  0.3616  0.9357
 2492TIP3   OH2 7432   3.273   3.871   1.443 -0.2394 -0.1926 -0.2735
 2492TIP3    H1 7433   3.332   3.944   1.425 -1.5602  0.6251 -1.5290
 2492TIP3    H2 7434   3.327   3.793   1.437  1.2486  0.6588  1.2501
 2493TIP3   OH2 7435   6.528   2.477   0.564 -0.6337  0.1922 -0.0199
 2493TIP3    H1 7436   6.474   2.472   0.485 -0.9829 -0.2000  0.2383
 2493TIP3    H2 7437   6.569   2.564   0.560 -0.2529 -0.0105 -0.8820
 2494TIP3   OH2 7438   2.699   1.742   5.944  0.4166 -0.5541 -0.1175
 2494TIP3    H1 7439   2.771   1.680   5.955  1.3385  0.6438  0.9835
 2494TIP3    H2 7440   2.733   1.806   5.882 -0.0116 -0.4278 -0.2212
 2495TIP3   OH2 7441   4.996   3.335   4.649 -0.5534 -0.7341 -0.3643
 2495TIP3    H1 7442   4.939   3.303   4.719  0.4460  0.0722  0.8545
 2495TIP3    H2 7443   4.944   3.402   4.605 -0.7346 -0.3587  0.4118
 2496TIP3   OH2 7444   7.787   0.068   1.477  0.3537  0.4236 -0.0028
 2496TIP3    H1 7445   7.840   0.112   1.410 -0.6265  1.9359  0.1677
 2496TIP3    H2 7446   7.782  -0.023   1.448  1.4081  0.6701 -1.0382
 2497TIP3   OH2 7447   0.099   4.760   0.739  0.4675 -0.0008  0.1778
 2497TIP3    H1 7448   0.111   4.782   0.831 -0.3157  1.0837  0.0377
 2497TIP3    H2 7449   0.006   4.739   0.731  0.2739  1.0743 -0.5857
 2498TIP3   OH2 7450   5.326   0.027   4.935 -0.4372 -0.1588 -0.2483
 2498TIP3    H1 7451   5.242   0.058   4.968  0.7276  1.4138  1.4484
 2498TIP3    H2 7452   5.377   0.106   4.919  0.9166 -1.0786 -0.7133
 2499TIP3   OH2 7453   6.109   6.213   3.397 -0.5096  0.6432  0.3311
 2499TIP3    H1 7454   6.101   6.117   3.405  0.7449  0.4798 -0.1429
 2499TIP3    H2 7455   6.103   6.229   3.303 -0.3539  0.9898  0.3819
 2500TIP3   OH2 7456   4.934   4.103   5.198 -0.1578  0.6155  0.0239
 2500TIP3    H1 7457   4.992   4.056   5.138  2.3697  1.8244  1.3434
 2500TIP3    H2 7458   4.906   4.037   5.261  2.9523  0.6350  1.5847
 2501TIP3   OH2 7459   4.247   7.115   5.160  0.0080  0.1080  0.4160
 2501TIP3    H1 7460   4.158   7.142   5.181  0.2065  0.6269  0.5967
 2501TIP3    H2 7461   4.292   7.112   5.244  1.2421  3.7470  0.0443
 2502TIP3   OH2 7462   4.685   2.074   0.309 -0.0421  0.3261 -0.2245
 2502TIP3    H1 7463   4.744   2.016   0.358  0.0129 -0.0204 -0.6896
 2502TIP3    H2 7464   4.656   2.139   0.373 -0.8600 -0.7773  0.5793
 2503TIP3   OH2 7465   3.721   3.576   0.571  0.1914 -0.0145  0.1463
 2503TIP3    H1 7466   3.795   3.523   0.599  0.3277  1.6299  3.3412
 2503TIP3    H2 7467   3.664   3.581   0.647 -1.3583  1.8210 -1.0316
 2504TIP3   OH2 7468   6.725   1.606   0.577 -0.2201  0.0063  0.3757
 2504TIP3    H1 7469   6.697   1.625   0.488  1.8330 -0.7403 -0.4817
 2504TIP3    H2 7470   6.767   1.686   0.607 -1.1742  0.3612  0.8295
 2505TIP3   OH2 7471   2.420   0.364   0.499 -0.0493 -0.2211  0.4214
 2505TIP3    H1 7472   2.506   0.331   0.523  0.5893  1.2170  0.2384
 2505TIP3    H2 7473   2.427   0.382   0.405 -0.2812  0.6214  0.5538
 2506TIP3   OH2 7474   1.492   7.482   2.394 -0.2974  0.3686  0.6734
 2506TIP3    H1 7475   1.424   7.419   2.419  0.7951 -0.0739  2.7462
 2506TIP3    H2 7476   1.449   7.567   2.404 -1.4899  0.0564 -1.2145
 2507TIP3   OH2 7477   0.058   7.074   1.000  0.1404 -0.2733 -0.0896
 2507TIP3    H1 7478  -0.009   7.023   0.953 -1.3593 -0.0698  1.7179
 2507TIP3    H2 7479   0.137   7.066   0.946 -1.4837  0.0168 -2.6731
 2508TIP3   OH2 7480   3.422   7.138   2.375 -0.0817 -0.5579 -0.3742
 2508TIP3    H1 7481   3.397   7.230   2.389  0.3992 -0.2053 -1.6842
 2508TIP3    H2 7482   3.410   7.097   2.461  0.5680  0.9218  0.4625
 2509TIP3   OH2 7483   6.313   2.833   4.204 -0.0733 -0.3945 -0.2996
 2509TIP3    H1 7484   6.331   2.893   4.276  2.3616  0.3359 -1.3951
 2509TIP3    H2 7485   6.291   2.750   4.247 -1.6822  0.7623  1.2344
 2510TIP3   OH2 7486   4.161   7.731   2.577 -0.1918 -0.0873  0.0840
 2510TIP3    H1 7487   4.122   7.644   2.580  0.0882 -0.2010  1.9274
 2510TIP3    H2 7488   4.145   7.767   2.665  2.4640  0.4882  0.3987
 2511TIP3   OH2 7489   2.321   7.404   3.047  0.9067  0.1411 -0.5008
 2511TIP3    H1 7490   2.259   7.418   2.975  1.1368  0.2643 -0.6763
 2511TIP3    H2 7491   2.276   7.344   3.107  0.5246  0.4153 -0.5111
 2512TIP3   OH2 7492   5.058   0.055   4.969  0.0717 -0.2430  0.5369
 2512TIP3    H1 7493   5.045   0.136   5.018 -1.6553  0.8564 -1.5998
 2512TIP3    H2 7494   4.971   0.017   4.960  0.8255 -2.3510  1.3773
 2513TIP3   OH2 7495   2.376   5.457   1.070  0.2622 -0.5154  0.7781
 2513TIP3    H1 7496   2.304   5.513   1.039 -0.6688 -2.2176 -0.3103
 2513TIP3    H2 7497   2.378   5.472   1.165  2.2365  3.7728  0.3083
 2514TIP3   OH2 7498   1.132   1.787   3.756 -0.2321 -0.2495  0.0290
 2514TIP3    H1 7499   1.070   1.731   3.707  1.0580 -0.1952 -1.7505
 2514TIP3    H2 7500   1.214   1.737   3.755  0.2000  0.4363  0.8830
 2515TIP3   OH2 7501   1.619   7.744   0.352  0.3487 -0.0856 -0.4795
 2515TIP3    H1 7502   1.657   7.656   0.353  1.0243  0.1942  0.7549
 2515TIP3    H2 7503   1.533   7.734   0.393  0.9757  0.0304  0.9240
 2516TIP3   OH2 7504   3.982   2.251   2.860  0.7312 -0.3685  0.2614
 2516TIP3    H1 7505   3.913   2.201   2.905  0.9708 -0.8926  0.0628
 2516TIP3    H2 7506   4.039   2.282   2.930  0.8043 -0.7241  0.3639
 2517TIP3   OH2 7507   6.568   4.062   0.370  0.4235 -0.0900 -0.2871
 2517TIP3    H1 7508   6.533   4.116   0.442  0.6631  0.2118 -0.3956
 2517TIP3    H2 7509   6.618   4.123   0.316  1.2069 -0.5330 -0.0807
 2518TIP3   OH2 7510   2.944   5.517   3.857  0.5467 -0.4369  0.4513
 2518TIP3    H1 7511   3.029   5.552   3.832 -0.1350 -0.0035 -1.4486
 2518TIP3    H2 7512   2.914   5.574   3.928  1.2528  0.2469  0.2134
 2519TIP3   OH2 7513   0.081   6.103   1.636 -0.0200 -0.3101 -0.5335
 2519TIP3    H1 7514   0.026   6.061   1.703  0.3833 -1.6925 -1.0530
 2519TIP3    H2 7515   0.050   6.066   1.553  1.0774 -0.4119 -0.9097
 2520TIP3   OH2 7516   4.067   7.059   1.332 -0.4402  0.0455  0.0134
 2520TIP3    H1 7517   4.115   7.057   1.415 -2.0982  0.3414  1.0149
 2520TIP3    H2 7518   4.110   6.992   1.278  1.1934  0.4279  0.7808
 2521TIP3   OH2 7519   5.376   1.025   4.307  0.1252  0.8257  0.2793
 2521TIP3    H1 7520   5.350   0.936   4.285  0.8348 -0.1420  2.9331
 2521TIP3    H2 7521   5.298   1.063   4.347  0.8474 -0.0129  2.6803
 2522TIP3   OH2 7522   2.526   5.084   1.614 -0.2190  0.1478 -0.2173
 2522TIP3    H1 7523   2.446   5.115   1.659  0.3968  2.2581 -0.4528
 2522TIP3    H2 7524   2.494   5.022   1.549 -1.6826  0.9503 -0.3065
 2523TIP3   OH2 7525   4.939   7.089   2.958  0.3259  0.2090  0.3037
 2523TIP3    H1 7526   4.853   7.063   2.926  1.0946  0.0888 -1.8268
 2523TIP3    H2 7527   4.947   7.181   2.933  0.8931  0.1707  0.3309
 2524TIP3   OH2 7528   1.445   1.830   1.678 -0.0797 -0.2279  0.5728
 2524TIP3    H1 7529   1.489   1.854   1.760  0.1076  0.5187  0.2597
 2524TIP3    H2 7530   1.515   1.831   1.612 -0.2359 -0.7972  0.3930
 2525TIP3   OH2 7531   0.382   0.142   2.287  0.2625 -0.2345  0.5835
 2525TIP3    H1 7532   0.415   0.114   2.201  0.4713  0.5374  0.4057
 2525TIP3    H2 7533   0.461   0.166   2.336  0.0825  0.0691  0.7242
 2526TIP3   OH2 7534   6.161   7.282   5.589 -0.4304 -0.2176 -0.4220
 2526TIP3    H1 7535   6.161   7.372   5.621 -3.8436 -0.0002 -0.6715
 2526TIP3    H2 7536   6.254   7.258   5.585  0.5131  2.5852  1.4890
 2527TIP3   OH2 7537   2.401   7.745   1.086 -0.2946 -0.3774  0.2360
 2527TIP3    H1 7538   2.360   7.746   0.999 -1.3657 -0.3540  0.7232
 2527TIP3    H2 7539   2.491   7.773   1.071 -0.4302 -0.5017 -0.8838
 2528TIP3   OH2 7540   7.320   6.699   6.414  0.0280  0.0280  0.3488
 2528TIP3    H1 7541   7.389   6.695   6.348 -0.1729 -0.9567  0.1777
 2528TIP3    H2 7542   7.361   6.664   6.493 -0.1842 -0.3061  0.3159
 2529TIP3   OH2 7543   5.961   0.641   3.069  0.1373 -0.0959  0.3486
 2529TIP3    H1 7544   5.927   0.578   3.006 -1.2107  1.9629 -1.1038
 2529TIP3    H2 7545   5.892   0.647   3.136 -0.8072  1.3856 -0.6864
 2530TIP3   OH2 7546   2.593   0.895   3.688  0.3016  0.4619 -0.5165
 2530TIP3    H1 7547   2.577   0.958   3.758 -0.6122  2.1431 -2.1775
 2530TIP3    H2 7548   2.512   0.843   3.684  0.1588  0.6959 -0.6626
 2531TIP3   OH2 7549   7.271   0.539   4.109 -0.6086 -0.8423  0.0863
 2531TIP3    H1 7550   7.206   0.470   4.123 -2.2806  0.6271 -0.0489
 2531TIP3    H2 7551   7.260   0.565   4.017 -0.3831 -0.0432  0.2733
 2532TIP3   OH2 7552   5.425   3.607   3.910 -0.0280 -0.3622  0.4010
 2532TIP3    H1 7553   5.331   3.624   3.908 -0.3281 -1.9553 -0.4912
 2532TIP3    H2 7554   5.432   3.511   3.911  1.5831 -0.2681  0.2641
 2533TIP3   OH2 7555   2.805   0.965   3.994 -0.6097 -0.4513  0.2679
 2533TIP3    H1 7556   2.829   1.015   3.916 -0.9761 -0.8572 -0.1104
 2533TIP3    H2 7557   2.845   1.013   4.066 -1.9434  1.0653  0.0500
 2534TIP3   OH2 7558   7.806   7.670   5.132 -0.2008 -0.0099 -0.4239
 2534TIP3    H1 7559   7.835   7.700   5.219 -1.8650 -1.7755  0.8265
 2534TIP3    H2 7560   7.778   7.750   5.087  2.4290  1.1892 -0.0980
 2535TIP3   OH2 7561   0.408   2.581   2.784 -0.0904  0.1556 -0.8072
 2535TIP3    H1 7562   0.503   2.590   2.777 -0.1345  1.6982  0.0127
 2535TIP3    H2 7563   0.374   2.608   2.699  0.1465  1.5890 -0.4825
 2536TIP3   OH2 7564   6.536   6.811   1.436  1.0067 -0.1798 -0.2056
 2536TIP3    H1 7565   6.523   6.844   1.347 -1.0403  1.2381  0.5293
 2536TIP3    H2 7566   6.613   6.755   1.430  0.0098 -1.4590 -3.2173
 2537TIP3   OH2 7567   5.307   3.828   3.683  0.0316  0.2704 -0.1342
 2537TIP3    H1 7568   5.335   3.908   3.640 -0.0025  0.0962 -0.4789
 2537TIP3    H2 7569   5.230   3.799   3.634 -1.4580  1.3346  1.4415
 2538TIP3   OH2 7570   6.025   5.361   2.099  0.5237  0.0623  0.0924
 2538TIP3    H1 7571   6.007   5.300   2.170  0.1437  2.4660  2.1951
 2538TIP3    H2 7572   5.939   5.379   2.061  0.5476 -0.1818 -0.0796
 2539TIP3   OH2 7573   4.661   6.453   0.412 -0.3670 -0.2285 -0.0899
 2539TIP3    H1 7574   4.720   6.526   0.426 -0.1862 -0.5947  1.2380
 2539TIP3    H2 7575   4.582   6.493   0.375  0.1335  0.4763 -0.4156
 2540TIP3   OH2 7576   5.080   1.158   0.141  0.6939  0.1367  0.2572
 2540TIP3    H1 7577   5.065   1.235   0.196 -0.2326  0.3127 -0.2162
 2540TIP3    H2 7578   5.045   1.183   0.055 -4.5155 -2.4306  1.2013
 2541TIP3   OH2 7579   3.653   4.904   5.562 -0.0994  0.3819  0.1686
 2541TIP3    H1 7580   3.575   4.890   5.508  0.7531 -1.8352 -0.6264
 2541TIP3    H2 7581   3.711   4.956   5.507 -0.1214  0.0660 -0.1584
 2542TIP3   OH2 7582   3.601   2.170   4.464  0.1193  0.1756 -0.5480
 2542TIP3    H1 7583   3.550   2.162   4.545  0.5465  0.4119 -0.2558
 2542TIP3    H2 7584   3.678   2.219   4.489  0.5528 -0.2806 -0.9695
 2543TIP3   OH2 7585   3.879   6.252   6.526  0.1680  0.4394 -0.1397
 2543TIP3    H1 7586   3.841   6.173   6.563  0.8581 -0.0890 -0.5387
 2543TIP3    H2 7587   3.889   6.312   6.600 -2.4875  1.0542 -0.1829
 2544TIP3   OH2 7588   2.804   7.345   2.140  0.0797 -0.3741 -0.2830
 2544TIP3    H1 7589   2.825   7.362   2.048  1.1663  0.9689  0.1823
 2544TIP3    H2 7590   2.771   7.256   2.141  0.0204 -0.4022 -1.9847
 2545TIP3   OH2 7591   5.579   7.438   5.593  0.5108  0.1814 -0.3377
 2545TIP3    H1 7592   5.500   7.415   5.643  0.0018  0.1270 -1.1442
 2545TIP3    H2 7593   5.638   7.364   5.606  0.9340  0.7634  1.2669
 2546TIP3   OH2 7594   1.201   4.591   2.159  1.0979 -0.0288  0.2408
 2546TIP3    H1 7595   1.251   4.511   2.173  1.1344 -0.2549 -1.0329
 2546TIP3    H2 7596   1.223   4.617   2.069 -1.0655 -0.1405 -0.3783
 2547TIP3   OH2 7597   6.616   3.356   0.274 -0.0126 -0.8371  0.1619
 2547TIP3    H1 7598   6.524   3.375   0.253  0.3576 -0.4215 -1.1834
 2547TIP3    H2 7599   6.645   3.433   0.323 -0.3352 -0.8863  0.4357
 2548TIP3   OH2 7600   5.999   3.234   1.456 -0.2516  0.3838 -0.1221
 2548TIP3    H1 7601   6.061   3.162   1.461  0.2891  0.8861  0.9134
 2548TIP3    H2 7602   6.053   3.313   1.468 -1.0444  0.8473  0.5229
 2549TIP3   OH2 7603   2.718   3.501   3.925 -0.4278 -0.0664  0.2918
 2549TIP3    H1 7604   2.697   3.572   3.864  0.2771 -0.1132 -0.0130
 2549TIP3    H2 7605   2.640   3.445   3.923  0.0057 -0.6657 -1.4443
 2550TIP3   OH2 7606   5.381   5.280   2.858 -0.0065 -0.2343  0.3518
 2550TIP3    H1 7607   5.290   5.258   2.876 -0.6498 -0.0792 -2.3518
 2550TIP3    H2 7608   5.428   5.198   2.871 -0.6747 -0.5527  0.8244
 2551TIP3   OH2 7609   3.258   7.567   6.178 -0.4913  0.1397 -0.2120
 2551TIP3    H1 7610   3.213   7.525   6.105 -1.1521  1.3486 -0.5317
 2551TIP3    H2 7611   3.207   7.646   6.195  0.0020  0.1840  1.1711
 2552TIP3   OH2 7612   6.141   1.294   6.157  0.1898  0.1814  0.1657
 2552TIP3    H1 7613   6.055   1.259   6.182  0.4969 -0.4598  0.3342
 2552TIP3    H2 7614   6.175   1.231   6.094  1.8349 -1.1810  2.3314
 2553TIP3   OH2 7615   5.069   0.279   2.377  0.2394  0.1243 -0.3575
 2553TIP3    H1 7616   5.013   0.208   2.409 -1.2142  0.7201 -1.4238
 2553TIP3    H2 7617   5.155   0.239   2.368 -0.4301 -1.3825 -0.5022
 2554TIP3   OH2 7618   2.318   1.372   5.726 -0.0413 -0.0666  0.1335
 2554TIP3    H1 7619   2.347   1.458   5.756  0.2756 -0.7627  1.9005
 2554TIP3    H2 7620   2.240   1.353   5.778 -0.4325 -0.6315 -0.6263
 2555TIP3   OH2 7621   6.074   3.805   6.079 -0.0741  0.0732 -0.8060
 2555TIP3    H1 7622   6.092   3.845   5.993  0.1500  1.2616 -0.2219
 2555TIP3    H2 7623   5.992   3.845   6.108 -0.6270 -0.9802 -0.8306
 2556TIP3   OH2 7624   5.949   5.600   6.539 -0.1875 -0.0754  0.2967
 2556TIP3    H1 7625   5.896   5.594   6.619  1.3378 -1.1418  1.2910
 2556TIP3    H2 7626   6.039   5.611   6.571  0.4697 -0.6258 -1.2666
 2557TIP3   OH2 7627   7.769   0.060   3.966  0.7660 -0.3750  0.1593
 2557TIP3    H1 7628   7.721   0.143   3.969 -0.1927 -0.9491  1.5633
 2557TIP3    H2 7629   7.795   0.044   4.056  0.5057 -1.8379 -0.0011
 2558TIP3   OH2 7630   1.294   0.886   1.942 -0.4146 -0.2464 -0.1019
 2558TIP3    H1 7631   1.250   0.949   1.884 -0.8133 -1.2420 -0.9118
 2558TIP3    H2 7632   1.384   0.883   1.908 -0.5758 -0.6204 -0.5112
 2559TIP3   OH2 7633   0.360   4.658   5.690 -0.1632  0.0647 -0.0837
 2559TIP3    H1 7634   0.433   4.629   5.744  0.4449  1.4443 -0.1352
 2559TIP3    H2 7635   0.297   4.585   5.694  1.8688 -1.8874 -1.3942
 2560TIP3   OH2 7636   3.133   0.956   4.077 -0.2554 -0.0665 -0.7652
 2560TIP3    H1 7637   3.108   0.929   3.988 -1.2579 -0.8081 -0.2700
 2560TIP3    H2 7638   3.059   1.008   4.108 -0.3849 -0.7085  0.0258
 2561TIP3   OH2 7639   0.232   5.929   4.606 -0.3192 -0.2366  0.1909
 2561TIP3    H1 7640   0.202   5.885   4.526  0.3795  0.3401 -0.3983
 2561TIP3    H2 7641   0.327   5.932   4.598 -0.3064  0.7568  0.5526
 2562TIP3   OH2 7642   4.990   2.039   5.418  0.3614 -0.3055  0.2584
 2562TIP3    H1 7643   5.003   2.011   5.328  0.2418  2.2344 -0.6336
 2562TIP3    H2 7644   4.997   2.135   5.415 -0.9295 -0.0397  2.7220
 2563TIP3   OH2 7645   6.123   1.389   2.291  0.5865 -0.0829 -0.1824
 2563TIP3    H1 7646   6.124   1.473   2.245 -2.8362  0.1545 -0.1262
 2563TIP3    H2 7647   6.085   1.409   2.376  0.9476 -1.4923  0.3370
 2564TIP3   OH2 7648   2.339   6.553   0.602  0.4684  0.0357 -0.1148
 2564TIP3    H1 7649   2.332   6.497   0.525 -1.1130  0.6096 -0.4283
 2564TIP3    H2 7650   2.336   6.492   0.676  0.1360 -0.3900 -0.4714
 2565TIP3   OH2 7651   2.856   3.575   0.881  0.0119  0.0707 -0.3044
 2565TIP3    H1 7652   2.787   3.635   0.911  0.1153 -0.3028  0.7394
 2565TIP3    H2 7653   2.911   3.564   0.958  0.5977 -0.5323 -0.8077
 2566TIP3   OH2 7654   2.908   1.175   5.058  0.0130 -0.0943 -0.1433
 2566TIP3    H1 7655   2.837   1.113   5.071 -0.5324 -0.9568 -5.1408
 2566TIP3    H2 7656   2.988   1.123   5.072 -0.3534 -0.3859  0.9492
 2567TIP3   OH2 7657   1.077   6.697   1.483  0.1908  0.3677 -0.1657
 2567TIP3    H1 7658   1.105   6.606   1.492  2.0043  0.9287  0.5145
 2567TIP3    H2 7659   1.050   6.705   1.392  0.5538 -0.7284 -0.3860
 2568TIP3   OH2 7660   5.695   3.903   2.943  0.0832 -0.2905  0.2333
 2568TIP3    H1 7661   5.636   3.873   2.873  1.3647 -0.2196 -0.9182
 2568TIP3    H2 7662   5.781   3.871   2.917  0.9475  1.5376  0.6770
 2569TIP3   OH2 7663   1.625   2.421   3.794  0.3230  0.2621 -0.3187
 2569TIP3    H1 7664   1.676   2.489   3.838 -0.8039  1.7994 -1.3001
 2569TIP3    H2 7665   1.535   2.451   3.800 -0.3020 -1.5569 -0.1146
 2570TIP3   OH2 7666   8.103   1.947   4.932  0.0022 -0.0177 -0.4988
 2570TIP3    H1 7667   8.197   1.932   4.926  0.4030 -0.3734  3.9238
 2570TIP3    H2 7668   8.093   2.042   4.932  0.8417  0.1421  2.4654
 2571TIP3   OH2 7669   8.074   7.609   3.487 -0.4737  0.2199  0.3184
 2571TIP3    H1 7670   8.007   7.571   3.429  0.5955 -1.3028  0.0308
 2571TIP3    H2 7671   8.025   7.668   3.544 -1.9057 -0.0222 -0.6102
 2572TIP3   OH2 7672   2.687   0.879   0.653 -0.1464 -0.0413 -0.2088
 2572TIP3    H1 7673   2.668   0.963   0.611  1.8255  0.3430 -0.4020
 2572TIP3    H2 7674   2.636   0.816   0.603  0.2035  0.7318 -1.5906
 2573TIP3   OH2 7675   3.996   6.830   4.948 -0.0570 -0.2803  0.1664
 2573TIP3    H1 7676   4.059   6.797   5.013  0.5127 -0.2393 -0.3531
 2573TIP3    H2 7677   4.046   6.895   4.898 -0.3769 -0.5675 -0.5429
 2574TIP3   OH2 7678   5.380   6.444   5.807  0.1114 -0.3911 -0.4129
 2574TIP3    H1 7679   5.332   6.379   5.755 -2.5663  0.6239  0.5663
 2574TIP3    H2 7680   5.313   6.481   5.866  1.8315  2.1963  0.0898
 2575TIP3   OH2 7681   4.388   1.134   4.371  0.2811  0.0069  0.5054
 2575TIP3    H1 7682   4.397   1.093   4.285  0.1090 -0.9712  0.9291
 2575TIP3    H2 7683   4.359   1.062   4.428  0.0910  0.7067  1.3119
 2576TIP3   OH2 7684   3.386   4.793   2.660 -0.7326 -0.0231 -0.2872
 2576TIP3    H1 7685   3.343   4.789   2.745 -2.8052 -1.5208 -1.3097
 2576TIP3    H2 7686   3.427   4.707   2.649 -0.5663  0.1183 -0.8397
 2577TIP3   OH2 7687   2.385   2.160   0.506 -0.6365 -0.1774 -0.2072
 2577TIP3    H1 7688   2.432   2.093   0.457 -0.0830 -0.3538  0.5480
 2577TIP3    H2 7689   2.320   2.112   0.557  1.0699 -0.4144  1.8774
 2578TIP3   OH2 7690   4.303   4.271   4.602  0.7633 -0.4825  0.0566
 2578TIP3    H1 7691   4.333   4.185   4.632 -0.6659 -1.1067 -0.2087
 2578TIP3    H2 7692   4.302   4.325   4.681 -1.6562 -1.7216  0.9680
 2579TIP3   OH2 7693   2.048   4.270   4.928 -0.3033 -0.0274 -0.0073
 2579TIP3    H1 7694   1.978   4.330   4.955 -0.6820 -0.7169  0.5793
 2579TIP3    H2 7695   2.019   4.235   4.844 -0.0427  0.6605 -0.3910
 2580TIP3   OH2 7696   0.153   5.102   6.009  0.3604  0.3814  0.4804
 2580TIP3    H1 7697   0.185   5.019   5.973 -0.1963  0.1373  0.5286
 2580TIP3    H2 7698   0.160   5.164   5.936 -0.7855 -0.1162 -0.0811
 2581TIP3   OH2 7699   7.954   7.113   4.068  0.3278  0.2289 -0.4559
 2581TIP3    H1 7700   7.873   7.086   4.112  0.0575 -0.3341 -1.2734
 2581TIP3    H2 7701   8.023   7.069   4.118 -0.0105 -0.8094 -0.8590
 2582TIP3   OH2 7702   2.239   3.503   6.201  0.2243  0.0729 -0.8594
 2582TIP3    H1 7703   2.203   3.512   6.113 -0.0239 -0.0788 -0.7765
 2582TIP3    H2 7704   2.240   3.408   6.216  0.8330  0.0632 -0.9299
 2583TIP3   OH2 7705   2.108   1.767   4.452 -0.3822 -0.2013 -0.3795
 2583TIP3    H1 7706   2.167   1.693   4.435  0.0391 -0.8931  3.2280
 2583TIP3    H2 7707   2.026   1.726   4.479 -0.8316  0.6986 -0.3583
 2584TIP3   OH2 7708   8.171   2.568   4.917  0.8863  0.1546 -0.0581
 2584TIP3    H1 7709   8.098   2.578   4.856  0.5119 -0.7735  0.2132
 2584TIP3    H2 7710   8.250   2.578   4.864  0.6131 -2.3472 -1.0778
 2585TIP3   OH2 7711   0.445   7.124   0.165  0.1093 -0.8911 -0.1074
 2585TIP3    H1 7712   0.447   7.041   0.213 -0.7850 -0.9910 -0.2173
 2585TIP3    H2 7713   0.489   7.186   0.223 -0.5564 -1.1067  0.6529
 2586TIP3   OH2 7714   4.464   5.936   5.064  0.0946 -0.1638 -0.1070
 2586TIP3    H1 7715   4.441   6.028   5.046 -0.4679 -0.2981 -0.0884
 2586TIP3    H2 7716   4.544   5.942   5.117  1.9015  0.2300 -2.7157
 2587TIP3   OH2 7717   6.641   7.359   0.353  0.3757 -0.1769  0.3504
 2587TIP3    H1 7718   6.622   7.353   0.260 -1.0923 -0.7433  0.6592
 2587TIP3    H2 7719   6.730   7.325   0.362  0.7851  0.5132 -0.9110
 2588TIP3   OH2 7720   4.811   6.619   5.924 -0.2535 -0.2938 -0.0578
 2588TIP3    H1 7721   4.881   6.659   5.977  1.2278  0.1249 -2.2012
 2588TIP3    H2 7722   4.732   6.666   5.950  0.5935  0.6241  1.0082
 2589TIP3   OH2 7723   5.261   3.237   3.080  0.3952 -0.1334  0.4252
 2589TIP3    H1 7724   5.179   3.248   3.127  0.9429  0.3818  1.3015
 2589TIP3    H2 7725   5.327   3.226   3.148  0.9511 -1.4533 -0.2738
 2590TIP3   OH2 7726   5.295   6.085   0.522 -0.4269  0.8992 -0.0642
 2590TIP3    H1 7727   5.206   6.108   0.548 -0.9521 -0.2487 -0.7657
 2590TIP3    H2 7728   5.296   6.094   0.427  0.1615  0.7455 -0.0785
 2591TIP3   OH2 7729   4.368   5.229   5.703  0.2148  0.4842 -0.2859
 2591TIP3    H1 7730   4.284   5.183   5.701  0.5266 -0.1467  0.4967
 2591TIP3    H2 7731   4.352   5.304   5.761  1.0238 -1.4606  2.6968
 2592TIP3   OH2 7732   7.032   5.432   0.170  0.0012 -0.0425 -0.6933
 2592TIP3    H1 7733   7.060   5.402   0.084 -3.7964 -1.4582 -1.5888
 2592TIP3    H2 7734   7.046   5.356   0.227  1.3886  0.5122 -0.2355
 2593TIP3   OH2 7735   2.625   0.755   3.162  0.1017  0.1667  0.0414
 2593TIP3    H1 7736   2.533   0.747   3.136 -0.0531  0.0022  0.6222
 2593TIP3    H2 7737   2.621   0.779   3.255  0.6514 -0.2744  0.1792
 2594TIP3   OH2 7738   5.985   1.591   3.495 -0.4537  0.4998 -0.3935
 2594TIP3    H1 7739   5.922   1.662   3.509 -0.5180  1.1339 -3.1428
 2594TIP3    H2 7740   6.057   1.632   3.446  0.3409 -0.9703 -0.5335
 2595TIP3   OH2 7741   5.726   4.901   1.692 -0.0110 -0.2807  0.1595
 2595TIP3    H1 7742   5.734   4.945   1.776  0.3970 -1.2065  0.6201
 2595TIP3    H2 7743   5.638   4.865   1.691 -0.0205 -0.2579  0.1890
 2596TIP3   OH2 7744   0.295   6.008   4.280 -0.2382  0.3853  0.7449
 2596TIP3    H1 7745   0.366   6.020   4.343 -0.5502 -0.4637  1.2739
 2596TIP3    H2 7746   0.302   5.917   4.251 -0.9013  0.3858  0.5469
 2597TIP3   OH2 7747   7.150   5.256   4.853 -0.0622  0.0249 -0.4545
 2597TIP3    H1 7748   7.170   5.209   4.772 -0.6684 -1.7514  0.3597
 2597TIP3    H2 7749   7.222   5.233   4.912  0.4308  1.3894 -0.5090
 2598TIP3   OH2 7750   4.795   1.712   2.975 -0.4072 -0.0826 -0.2419
 2598TIP3    H1 7751   4.865   1.775   2.991  1.7790 -1.3568 -3.5685
 2598TIP3    H2 7752   4.821   1.634   3.023 -1.0893  0.3077  0.7879
 2599TIP3   OH2 7753   6.476   1.164   0.213  0.3975  0.1651 -0.0058
 2599TIP3    H1 7754   6.388   1.181   0.246 -0.1884 -3.1403  0.5341
 2599TIP3    H2 7755   6.469   1.080   0.167  2.9781  0.5279 -1.2795
 2600TIP3   OH2 7756   6.900   6.103   2.912  0.0077  0.1345  0.1588
 2600TIP3    H1 7757   6.959   6.122   2.986 -0.9136 -0.2581  1.0082
 2600TIP3    H2 7758   6.871   6.189   2.883  0.5675  0.3047  0.0907
 2601TIP3   OH2 7759   8.262   7.495   1.598 -0.0719  0.1857  0.0054
 2601TIP3    H1 7760   8.334   7.484   1.660  0.8037  3.2134 -0.3104
 2601TIP3    H2 7761   8.250   7.590   1.592 -1.0997 -0.0425 -3.3776
 2602TIP3   OH2 7762   1.654   2.025   0.422 -0.1681  0.0131  0.3622
 2602TIP3    H1 7763   1.607   1.964   0.479  1.1808  0.2404  1.7908
 2602TIP3    H2 7764   1.587   2.086   0.392 -1.1979 -1.0519  0.4089
 2603TIP3   OH2 7765   6.154   3.678   1.715  0.2739 -0.2025  0.1734
 2603TIP3    H1 7766   6.180   3.628   1.793 -0.9378 -1.1015  0.0417
 2603TIP3    H2 7767   6.157   3.769   1.743  1.0369 -0.4388  0.8972
 2604TIP3   OH2 7768   6.467   2.372   1.392 -0.6339  0.8486 -0.6175
 2604TIP3    H1 7769   6.376   2.397   1.402 -0.7239  0.3983 -0.3165
 2604TIP3    H2 7770   6.482   2.304   1.457  0.1241  1.4454 -0.1490
 2605TIP3   OH2 7771   5.336   4.319   2.313 -0.3218 -0.0504 -0.2264
 2605TIP3    H1 7772   5.323   4.231   2.348  2.0426 -0.5968 -0.5193
 2605TIP3    H2 7773   5.349   4.374   2.390  1.0198 -0.5187 -0.1000
 2606TIP3   OH2 7774   3.165   7.246   4.242 -0.0541 -0.5410  0.2262
 2606TIP3    H1 7775   3.143   7.331   4.279  0.8490 -0.7577  1.3196
 2606TIP3    H2 7776   3.258   7.254   4.220  0.1551 -1.3948  0.7753
 2607TIP3   OH2 7777   3.634   5.047   2.122 -0.1843 -0.4050 -0.3370
 2607TIP3    H1 7778   3.633   5.103   2.199  0.2630 -1.3146  0.3537
 2607TIP3    H2 7779   3.547   5.056   2.084 -0.1067  0.7747 -0.2673
 2608TIP3   OH2 7780   0.190   3.750   4.024  0.4456 -0.2048 -0.0238
 2608TIP3    H1 7781   0.191   3.796   3.940 -0.3724 -0.1888 -0.0268
 2608TIP3    H2 7782   0.283   3.737   4.045  0.7219  1.5077  0.0095
 2609TIP3   OH2 7783   6.269   4.194   0.518  0.0129 -0.3450 -0.0217
 2609TIP3    H1 7784   6.210   4.190   0.593  2.0827  0.5403  1.7689
 2609TIP3    H2 7785   6.352   4.226   0.554  1.2699 -0.3967 -2.6080
 2610TIP3   OH2 7786   7.160   3.838   5.117 -0.2851 -0.2482  0.1537
 2610TIP3    H1 7787   7.232   3.777   5.100 -0.9901 -0.9614 -0.3477
 2610TIP3    H2 7788   7.127   3.860   5.030  0.2538  1.2293  0.3014
 2611TIP3   OH2 7789   2.274   0.199   1.226 -0.0205 -0.0881 -0.2408
 2611TIP3    H1 7790   2.316   0.252   1.294 -0.3410  1.5282 -1.2564
 2611TIP3    H2 7791   2.346   0.167   1.172  0.0912  0.4353 -0.4050
 2612TIP3   OH2 7792   5.553   4.931   0.302  0.0301 -0.6223  0.1132
 2612TIP3    H1 7793   5.562   4.872   0.227  0.9021 -1.2579  0.6969
 2612TIP3    H2 7794   5.458   4.935   0.318 -0.1035 -1.1225 -0.5115
 2613TIP3   OH2 7795   6.522   2.126   4.052  0.2771 -0.2561  0.0655
 2613TIP3    H1 7796   6.537   2.043   4.008  4.3696  1.1807 -1.7223
 2613TIP3    H2 7797   6.537   2.107   4.145 -0.3084 -1.7568 -0.1269
 2614TIP3   OH2 7798   0.100   2.876   5.548  0.1053  0.0509 -0.3428
 2614TIP3    H1 7799   0.026   2.821   5.522 -0.3387  0.3889  0.1727
 2614TIP3    H2 7800   0.106   2.863   5.643  0.9228 -0.2277 -0.4230
 2615TIP3   OH2 7801   2.656   3.561   3.325  0.5849 -0.4328  0.1761
 2615TIP3    H1 7802   2.707   3.639   3.305  1.4311 -0.9697  0.1548
 2615TIP3    H2 7803   2.720   3.500   3.363 -0.3767 -0.5169  1.7541
 2616TIP3   OH2 7804   3.899   6.146   3.017  0.1097  0.4684 -0.0374
 2616TIP3    H1 7805   3.846   6.217   3.055 -0.4388  0.6669 -1.1102
 2616TIP3    H2 7806   3.922   6.178   2.929 -0.5450 -0.8520 -0.7289
 2617TIP3   OH2 7807   4.157   1.808   3.227  0.5670  0.1598  0.7805
 2617TIP3    H1 7808   4.216   1.861   3.173  0.0337 -0.1932 -0.1719
 2617TIP3    H2 7809   4.071   1.847   3.215  0.2917 -0.4743  0.6464
 2618TIP3   OH2 7810   7.943   2.514   1.534 -0.0045  0.6107 -0.1884
 2618TIP3    H1 7811   7.982   2.427   1.542  0.8003  0.8280 -1.3850
 2618TIP3    H2 7812   7.850   2.500   1.550  0.3223 -0.1811  1.2380
 2619TIP3   OH2 7813   4.054   7.239   2.811 -0.1717  0.1154 -0.4780
 2619TIP3    H1 7814   4.043   7.163   2.755 -0.1184 -0.7823  0.6944
 2619TIP3    H2 7815   3.971   7.286   2.804 -0.1024  0.1076 -1.4245
 2620TIP3   OH2 7816   8.049   1.318   0.056  0.0895 -0.4883 -0.0483
 2620TIP3    H1 7817   7.960   1.291   0.036 -0.1481  1.4650 -2.0351
 2620TIP3    H2 7818   8.039   1.388   0.121  0.1427 -0.1520 -0.3975
 2621TIP3   OH2 7819   4.784   1.137   6.433  0.5056  0.4979  0.0921
 2621TIP3    H1 7820   4.805   1.049   6.402  1.3977  0.6640  0.1809
 2621TIP3    H2 7821   4.807   1.194   6.360 -0.6306  0.6131 -0.1821
 2622TIP3   OH2 7822   5.196   3.184   3.509 -0.2322  0.4715 -0.7038
 2622TIP3    H1 7823   5.263   3.236   3.554 -2.1588  0.9874  1.8862
 2622TIP3    H2 7824   5.150   3.248   3.455 -1.2100  1.1079  0.7913
 2623TIP3   OH2 7825   6.502   6.347   4.995 -0.3702 -0.0170  0.1713
 2623TIP3    H1 7826   6.558   6.305   4.930  1.1423 -0.7289  1.8387
 2623TIP3    H2 7827   6.553   6.423   5.025 -1.3992  0.7856 -0.0427
 2624TIP3   OH2 7828   2.049   0.725   6.155 -0.2271 -0.4740 -0.7029
 2624TIP3    H1 7829   2.028   0.633   6.139 -1.7353 -0.0824 -1.1432
 2624TIP3    H2 7830   2.122   0.744   6.096  0.3138 -1.4583 -0.3691
 2625TIP3   OH2 7831   7.020   4.596   3.534 -0.5555 -0.0701 -0.4408
 2625TIP3    H1 7832   6.949   4.660   3.537 -0.2764  0.2139  0.3534
 2625TIP3    H2 7833   7.100   4.649   3.524 -0.2423 -0.2216  1.0954
 2626TIP3   OH2 7834   0.831   0.761   3.304  0.3294 -0.2257  0.2637
 2626TIP3    H1 7835   0.818   0.667   3.300  0.8777 -0.4172  2.1906
 2626TIP3    H2 7836   0.789   0.788   3.386  2.1061  0.8280  0.8867
 2627TIP3   OH2 7837   4.468   2.841   1.322  0.3640  0.1496  0.1638
 2627TIP3    H1 7838   4.462   2.746   1.333  0.4711  0.2403  1.0737
 2627TIP3    H2 7839   4.413   2.860   1.246  0.9084 -0.7177 -0.4706
 2628TIP3   OH2 7840   0.310   5.192   4.506  0.6569  0.4851  0.4788
 2628TIP3    H1 7841   0.244   5.177   4.438  1.1668  0.0870  0.0612
 2628TIP3    H2 7842   0.277   5.267   4.555 -0.8535 -0.5790  1.1990
 2629TIP3   OH2 7843   7.192   5.902   4.749  0.2703 -0.2568  0.5945
 2629TIP3    H1 7844   7.284   5.876   4.743  0.7837  0.7632  2.8355
 2629TIP3    H2 7845   7.166   5.878   4.837 -1.8760 -1.1633 -0.2277
 2630TIP3   OH2 7846   1.368   3.907   2.171  0.1468  0.1203  0.6886
 2630TIP3    H1 7847   1.416   3.949   2.101  1.0176  1.3983  1.9958
 2630TIP3    H2 7848   1.435   3.868   2.227 -0.4651 -0.0581  1.3271
 2631TIP3   OH2 7849   3.183   4.461   4.599 -0.2058 -0.0047  0.3590
 2631TIP3    H1 7850   3.096   4.427   4.621 -0.8763  1.0622 -0.5504
 2631TIP3    H2 7851   3.170   4.510   4.517  1.2061  0.3487  0.3213
 2632TIP3   OH2 7852   0.275   4.584   6.017 -0.6021 -0.1718  0.0805
 2632TIP3    H1 7853   0.364   4.606   5.991 -0.1175 -2.8747 -0.8142
 2632TIP3    H2 7854   0.285   4.525   6.092 -1.6070 -1.0876 -0.4843
 2633TIP3   OH2 7855   2.617   3.993   3.229  0.0959 -0.2094 -0.5584
 2633TIP3    H1 7856   2.551   3.966   3.165  0.9759 -0.6992 -1.2674
 2633TIP3    H2 7857   2.621   4.088   3.219  1.5424 -0.4306 -2.5685
 2634TIP3   OH2 7858   2.383   4.477   5.828  0.6649  0.0019  0.0576
 2634TIP3    H1 7859   2.410   4.536   5.899  0.4201  2.1827 -1.5854
 2634TIP3    H2 7860   2.448   4.406   5.830 -0.5964 -1.3019  3.8656
 2635TIP3   OH2 7861   1.819   2.229   0.478  0.0362 -0.3880 -0.2144
 2635TIP3    H1 7862   1.763   2.158   0.445  0.3223 -0.3569 -0.7819
 2635TIP3    H2 7863   1.758   2.293   0.514 -0.2663 -0.5862 -0.3664
 2636TIP3   OH2 7864   5.621   6.850   2.504 -0.1184 -0.6309 -0.2846
 2636TIP3    H1 7865   5.626   6.811   2.417 -1.8446 -0.3402 -0.5463
 2636TIP3    H2 7866   5.583   6.781   2.559 -0.0685 -0.4361 -0.0047
 2637TIP3   OH2 7867   3.693   2.541   4.371  0.2885  0.8306  0.1082
 2637TIP3    H1 7868   3.700   2.635   4.359  1.8611  0.8082  0.7191
 2637TIP3    H2 7869   3.631   2.513   4.303  0.8574  2.1062 -0.9745
 2638TIP3   OH2 7870   1.310   0.872   3.346 -0.3657 -0.4237  0.1679
 2638TIP3    H1 7871   1.374   0.811   3.309 -0.7569  0.3610 -1.9025
 2638TIP3    H2 7872   1.242   0.879   3.279 -1.3872  0.6696  1.2718
 2639TIP3   OH2 7873   1.037   3.289   2.396 -0.1811  0.3356 -0.0013
 2639TIP3    H1 7874   1.059   3.232   2.470  0.3497  0.6041  0.0517
 2639TIP3    H2 7875   1.079   3.248   2.320 -1.9322 -0.7438 -0.4404
 2640TIP3   OH2 7876   5.492   7.833   2.326 -0.1575  0.4233 -0.5629
 2640TIP3    H1 7877   5.499   7.746   2.367  0.3649  1.5478  1.9124
 2640TIP3    H2 7878   5.473   7.814   2.234 -0.1536 -2.3064 -0.1005
 2641TIP3   OH2 7879   2.666   0.265   0.596 -0.0968 -0.2317 -0.3903
 2641TIP3    H1 7880   2.684   0.283   0.688  0.0825 -0.9339 -0.2839
 2641TIP3    H2 7881   2.743   0.218   0.564  1.5653  3.1806 -1.9021
 2642TIP3   OH2 7882   4.781   3.648   1.575 -0.0237 -0.5038  0.2179
 2642TIP3    H1 7883   4.721   3.578   1.599 -0.3251 -0.4572 -0.3806
 2642TIP3    H2 7884   4.845   3.607   1.518  0.3305 -0.4838  0.5955
 2643TIP3   OH2 7885   5.693   0.151   6.378  0.1458  0.0638  0.5901
 2643TIP3    H1 7886   5.718   0.088   6.311  1.5574  1.8708 -0.7100
 2643TIP3    H2 7887   5.765   0.148   6.442  1.4148  1.8165 -0.6342
 2644TIP3   OH2 7888   7.588   4.917   1.326  0.2942 -0.0193  0.4856
 2644TIP3    H1 7889   7.609   4.861   1.401  1.0540 -1.2680 -0.6131
 2644TIP3    H2 7890   7.588   4.857   1.251 -2.5937  0.7548 -0.2712
 2645TIP3   OH2 7891   3.027   5.598   5.979  0.2563  0.0712  0.0426
 2645TIP3    H1 7892   3.116   5.620   5.951 -0.5793  1.1626 -1.9847
 2645TIP3    H2 7893   2.976   5.601   5.899 -1.8144  0.5358  1.3126
 2646TIP3   OH2 7894   1.184   4.119   1.394 -0.1128  0.0218 -0.3835
 2646TIP3    H1 7895   1.204   4.117   1.488  0.7444 -1.1936 -0.5564
 2646TIP3    H2 7896   1.205   4.208   1.367  1.6069 -0.1622  0.2097
 2647TIP3   OH2 7897   8.224   1.997   6.523 -0.0070  0.0232  0.1596
 2647TIP3    H1 7898   8.202   1.932   6.457  0.9624  0.9730 -1.1380
 2647TIP3    H2 7899   8.164   2.069   6.506 -0.0653  0.0861  0.6233
 2648TIP3   OH2 7900   3.808   2.859   3.479 -0.3348  0.5112  0.1207
 2648TIP3    H1 7901   3.718   2.890   3.473  0.0145  1.5114 -0.2598
 2648TIP3    H2 7902   3.859   2.926   3.434  0.4433 -0.7639 -0.9546
 2649TIP3   OH2 7903   7.351   0.683   5.507 -0.2160 -0.5021  0.3307
 2649TIP3    H1 7904   7.348   0.587   5.517  0.2409 -0.4134  1.5480
 2649TIP3    H2 7905   7.393   0.697   5.423 -2.3421 -1.3788 -0.9676
 2650TIP3   OH2 7906   6.595   1.549   2.937 -0.7396 -0.1317  0.7492
 2650TIP3    H1 7907   6.615   1.582   3.024 -1.0137 -1.3073  1.2827
 2650TIP3    H2 7908   6.650   1.600   2.878  0.9156 -0.6386  1.8019
 2651TIP3   OH2 7909   3.997   0.304   4.955  0.9418 -0.5638 -0.5958
 2651TIP3    H1 7910   4.029   0.245   4.886  1.2762  0.8941 -1.7305
 2651TIP3    H2 7911   4.044   0.275   5.033 -0.0759 -2.8034 -0.7301
 2652TIP3   OH2 7912   4.069   6.468   1.976  0.0426 -0.3442 -0.1077
 2652TIP3    H1 7913   4.152   6.487   1.933  0.4609  0.0588  0.8391
 2652TIP3    H2 7914   4.060   6.372   1.970  0.6707 -0.4110 -0.0507
 2653TIP3   OH2 7915   2.696   1.384   4.221  0.3579  0.2572 -0.1032
 2653TIP3    H1 7916   2.705   1.320   4.291 -1.0656  0.7996  0.6091
 2653TIP3    H2 7917   2.767   1.447   4.237  0.2984  0.1511  0.6062
 2654TIP3   OH2 7918   3.048   6.478   0.601  0.2212  0.2599 -0.1004
 2654TIP3    H1 7919   3.091   6.539   0.541 -0.4740  0.9393  0.0781
 2654TIP3    H2 7920   2.957   6.508   0.605  0.2562  0.2454  1.3012
 2655TIP3   OH2 7921   6.969   2.676   6.232 -0.6487 -0.2793  0.9063
 2655TIP3    H1 7922   7.028   2.715   6.296  0.4434  2.5812 -1.6161
 2655TIP3    H2 7923   7.026   2.628   6.172 -1.5385 -1.9156  1.2835
 2656TIP3   OH2 7924   7.314   2.757   4.706 -0.1616  0.0100  0.4562
 2656TIP3    H1 7925   7.337   2.781   4.796  0.1731 -1.3191  0.7473
 2656TIP3    H2 7926   7.267   2.673   4.715  0.2978 -0.3808 -0.6388
 2657TIP3   OH2 7927   2.820   0.101   6.094  0.2961  0.0930 -0.4261
 2657TIP3    H1 7928   2.812   0.116   6.188  1.3650 -1.4022 -0.0691
 2657TIP3    H2 7929   2.806   0.007   6.083 -1.4837  0.4834 -1.9814
 2658TIP3   OH2 7930   1.992   7.171   3.636  0.5226 -0.1642  0.1819
 2658TIP3    H1 7931   2.036   7.132   3.560 -2.1664  2.1128 -2.8641
 2658TIP3    H2 7932   2.060   7.225   3.677  1.8948 -0.7687 -1.1534
 2659TIP3   OH2 7933   7.327   2.565   2.028  0.2391 -0.2622 -0.3836
 2659TIP3    H1 7934   7.292   2.635   2.082 -0.0241  0.0669 -0.9716
 2659TIP3    H2 7935   7.350   2.496   2.090 -1.2615 -0.4134  0.0367
 2660TIP3   OH2 7936   0.075   6.178   6.086 -0.4716  0.4150 -0.4341
 2660TIP3    H1 7937   0.001   6.166   6.027 -1.6475  1.4869  0.7556
 2660TIP3    H2 7938   0.048   6.136   6.168  0.5882  0.1007 -0.2211
 2661TIP3   OH2 7939   5.983   0.592   0.097 -0.4080 -0.1435  0.8404
 2661TIP3    H1 7940   6.029   0.529   0.152 -0.3072 -1.8119 -1.0365
 2661TIP3    H2 7941   5.894   0.595   0.133  0.0198 -0.1139  1.9198
 2662TIP3   OH2 7942   1.405   4.365   6.239  0.4887  0.1538  0.3154
 2662TIP3    H1 7943   1.455   4.284   6.246  1.3198  0.7386  1.3477
 2662TIP3    H2 7944   1.335   4.345   6.176  0.9006 -1.2387  0.2828
 2663TIP3   OH2 7945   1.901   2.156   0.848  0.1164 -0.5734  0.2471
 2663TIP3    H1 7946   1.923   2.142   0.756 -2.8207 -0.1561 -0.5917
 2663TIP3    H2 7947   1.981   2.131   0.895  2.5179  1.3243 -2.4677
 2664TIP3   OH2 7948   3.018   6.886   1.700 -0.3748  0.0711  0.1600
 2664TIP3    H1 7949   2.932   6.870   1.738 -0.3058 -0.9398 -0.0932
 2664TIP3    H2 7950   3.036   6.809   1.647  0.5104  0.4573 -0.1204
 2665TIP3   OH2 7951   5.673   5.530   2.221 -0.0209  0.1930 -0.5794
 2665TIP3    H1 7952   5.634   5.503   2.304 -1.4982 -1.6881 -1.7798
 2665TIP3    H2 7953   5.622   5.483   2.155  2.2789  0.1568 -2.4540
 2666TIP3   OH2 7954   5.065   4.403   5.807 -0.3989 -0.0377 -0.2047
 2666TIP3    H1 7955   4.973   4.397   5.782 -0.9711 -3.2922  2.0709
 2666TIP3    H2 7956   5.075   4.493   5.837 -2.7368  0.5197 -0.8626
 2667TIP3   OH2 7957   1.316   7.243   5.458 -0.0285 -0.6670 -0.0261
 2667TIP3    H1 7958   1.292   7.237   5.365  0.4449  0.6906 -0.2636
 2667TIP3    H2 7959   1.401   7.201   5.464  0.6722  0.6332 -0.5337
 2668TIP3   OH2 7960   3.301   1.089   5.618  0.3470  0.2862  0.0834
 2668TIP3    H1 7961   3.248   1.072   5.540  1.1743  1.6123 -0.8025
 2668TIP3    H2 7962   3.310   1.003   5.660 -0.3457 -0.4016 -1.1175
 2669TIP3   OH2 7963   4.754   2.099   6.749 -0.0577 -0.4193 -0.4662
 2669TIP3    H1 7964   4.814   2.135   6.684 -0.1574 -0.5699 -0.6428
 2669TIP3    H2 7965   4.707   2.030   6.703 -2.7542  1.8003 -1.3349
 2670TIP3   OH2 7966   5.586   2.458   3.498 -0.3097  0.0850  0.1081
 2670TIP3    H1 7967   5.601   2.551   3.515 -1.1752  0.5076 -1.3376
 2670TIP3    H2 7968   5.668   2.426   3.461  0.2722  0.0548  1.3724
 2671TIP3   OH2 7969   0.932   1.236   0.185 -0.8623 -0.0679 -0.2645
 2671TIP3    H1 7970   0.895   1.250   0.098  0.0669  2.1698 -0.3625
 2671TIP3    H2 7971   1.002   1.172   0.172  0.5150  1.6005 -1.5662
 2672TIP3   OH2 7972   2.707   4.116   2.349  0.6144  0.7252  0.2919
 2672TIP3    H1 7973   2.711   4.115   2.253 -0.6461  0.7314  0.2149
 2672TIP3    H2 7974   2.771   4.052   2.377  0.8177  0.5418 -0.5686
 2673TIP3   OH2 7975   6.154   5.538   1.737  0.3257  0.0071 -0.2633
 2673TIP3    H1 7976   6.206   5.618   1.735  1.6165 -0.7208  1.5669
 2673TIP3    H2 7977   6.217   5.469   1.757 -0.9260 -1.3272 -0.7600
 2674TIP3   OH2 7978   4.351   1.790   4.801  0.0110  0.2489 -0.4544
 2674TIP3    H1 7979   4.328   1.704   4.836  0.5310  0.6207  0.8564
 2674TIP3    H2 7980   4.382   1.772   4.712 -2.3887 -0.5867 -1.1802
 2675TIP3   OH2 7981   0.797   7.638   2.349 -0.0088 -0.0786  0.1990
 2675TIP3    H1 7982   0.716   7.667   2.307  1.2029  2.0838 -0.7765
 2675TIP3    H2 7983   0.832   7.572   2.289 -0.5355 -0.2878  0.1146
 2676TIP3   OH2 7984   6.429   0.599   4.903  0.0977  0.4634 -0.1255
 2676TIP3    H1 7985   6.400   0.612   4.813 -1.6468  0.7339  0.4432
 2676TIP3    H2 7986   6.525   0.606   4.898  0.0214  0.7839 -1.8933
 2677TIP3   OH2 7987   5.531   6.987   6.036 -0.7010 -0.2958 -0.7892
 2677TIP3    H1 7988   5.608   7.043   6.046 -1.5960  0.9769 -0.8776
 2677TIP3    H2 7989   5.512   6.957   6.125 -0.8494  0.4170 -0.5724
 2678TIP3   OH2 7990   3.374   1.871   1.697  0.0988 -0.0604 -0.1026
 2678TIP3    H1 7991   3.393   1.947   1.641  0.2113  0.5701  0.7660
 2678TIP3    H2 7992   3.439   1.806   1.673 -0.5537 -0.2417 -1.5067
 2679TIP3   OH2 7993   8.231   4.612   6.017 -0.5467 -0.0719 -0.8787
 2679TIP3    H1 7994   8.162   4.549   6.036 -0.1509 -0.8229 -1.8236
 2679TIP3    H2 7995   8.304   4.586   6.073 -0.4284 -0.3968 -1.1747
 2680TIP3   OH2 7996   4.267   1.809   0.695 -0.1744 -0.2113 -0.5260
 2680TIP3    H1 7997   4.308   1.746   0.754 -0.6894 -0.3325 -0.2979
 2680TIP3    H2 7998   4.199   1.760   0.650  0.3320 -0.1673 -1.3659
 2681TIP3   OH2 7999   5.025   0.393   4.110  0.0364  0.5438  0.7526
 2681TIP3    H1 8000   5.049   0.300   4.117  1.0524  0.8611  1.8805
 2681TIP3    H2 8001   4.931   0.392   4.090 -0.0635 -0.7325  1.1735
 2682TIP3   OH2 8002   0.046   1.742   0.652  0.4953  0.3900 -0.2987
 2682TIP3    H1 8003   0.106   1.674   0.622  0.7647  0.6508 -0.3512
 2682TIP3    H2 8004   0.083   1.824   0.619  0.5111  0.6284  0.2886
 2683TIP3   OH2 8005   6.412   0.410   4.141  0.0464  0.2694  0.1297
 2683TIP3    H1 8006   6.360   0.463   4.201 -1.1523  2.9789 -3.0183
 2683TIP3    H2 8007   6.349   0.351   4.100  0.5761 -0.5230  0.4313
 2684TIP3   OH2 8008   7.052   4.755   2.263 -0.7929  0.1501  0.2405
 2684TIP3    H1 8009   7.038   4.715   2.177  2.4171 -2.8699  0.8922
 2684TIP3    H2 8010   6.995   4.706   2.322 -0.7448  0.1390  0.2773
 2685TIP3   OH2 8011   3.836   6.769   5.464  0.1744  0.3219  0.2413
 2685TIP3    H1 8012   3.824   6.839   5.400  0.8538 -1.7086 -2.3082
 2685TIP3    H2 8013   3.781   6.794   5.538  0.0032  3.2405 -0.7304
 2686TIP3   OH2 8014   1.575   0.104   0.627  0.3478  0.5509 -0.4273
 2686TIP3    H1 8015   1.518   0.129   0.555  0.1691  2.9175  0.4380
 2686TIP3    H2 8016   1.616   0.186   0.654  0.2568 -0.2037  2.2764
 2687TIP3   OH2 8017   6.664   3.674   4.293  0.0759  0.0814 -0.1710
 2687TIP3    H1 8018   6.759   3.681   4.280  0.1158 -1.0941 -0.6090
 2687TIP3    H2 8019   6.644   3.742   4.358  1.3350 -0.1758  0.5175
 2688TIP3   OH2 8020   1.758   4.702   4.199  0.3441  0.1531 -0.1239
 2688TIP3    H1 8021   1.809   4.697   4.118 -0.9452 -2.9725 -0.9086
 2688TIP3    H2 8022   1.703   4.779   4.188  0.9625  0.4098 -1.7574
 2689TIP3   OH2 8023   2.825   5.263   0.397  0.7202  0.0368 -0.1139
 2689TIP3    H1 8024   2.795   5.319   0.469  0.4679  0.5296 -0.6015
 2689TIP3    H2 8025   2.881   5.319   0.344 -0.3833  0.1463 -1.2054
 2690TIP3   OH2 8026   5.788   5.821   3.328  0.4511  0.4010 -0.0671
 2690TIP3    H1 8027   5.774   5.845   3.236  0.9672 -1.5206 -0.6878
 2690TIP3    H2 8028   5.851   5.749   3.325  0.0875 -0.0449  1.7560
 2691TIP3   OH2 8029   1.010   2.654   0.071 -0.5787  0.6798  0.2305
 2691TIP3    H1 8030   0.994   2.635  -0.022 -1.8475 -0.5681  0.6711
 2691TIP3    H2 8031   1.078   2.593   0.097 -0.0815  1.1638  0.0932
 2692TIP3   OH2 8032   8.070   5.231   4.888  0.5834 -0.1405 -0.1481
 2692TIP3    H1 8033   8.137   5.297   4.874 -1.8095  2.8620  1.3739
 2692TIP3    H2 8034   8.018   5.232   4.808  0.8649 -0.6159 -0.3405
 2693TIP3   OH2 8035   1.749   7.130   6.262 -0.1957 -0.0706 -0.0058
 2693TIP3    H1 8036   1.699   7.210   6.278  0.4903  0.3700 -0.0768
 2693TIP3    H2 8037   1.840   7.158   6.258 -0.0192 -0.7374 -0.8600
 2694TIP3   OH2 8038   3.559   4.820   0.058  0.0899  0.4376  0.1458
 2694TIP3    H1 8039   3.494   4.789  -0.005  0.7856 -1.1057  0.1468
 2694TIP3    H2 8040   3.542   4.769   0.138  1.3449 -0.0643  0.1155
 2695TIP3   OH2 8041   4.704   4.644   2.457 -0.1334 -0.6729 -0.5074
 2695TIP3    H1 8042   4.635   4.609   2.400 -0.2529 -1.3449  0.0391
 2695TIP3    H2 8043   4.712   4.580   2.528 -2.2126  1.6429  2.0305
 2696TIP3   OH2 8044   1.960   3.882   5.174  0.1493  0.2951  0.0815
 2696TIP3    H1 8045   2.001   3.912   5.093  1.8706 -3.7041 -0.7776
 2696TIP3    H2 8046   2.009   3.927   5.243  1.7255  0.4106 -1.0531
 2697TIP3   OH2 8047   6.756   7.310   6.664 -0.3464 -0.1628  0.5236
 2697TIP3    H1 8048   6.687   7.288   6.726 -1.4151 -3.1604 -1.4788
 2697TIP3    H2 8049   6.717   7.374   6.605 -1.3297 -1.4504 -0.2799
 2698TIP3   OH2 8050   1.255   4.955   2.916  0.0551  0.0524 -0.4953
 2698TIP3    H1 8051   1.339   4.955   2.963 -0.9975  0.0107  1.4957
 2698TIP3    H2 8052   1.253   5.039   2.871 -0.2052  1.6043  2.1693
 2699TIP3   OH2 8053   6.131   0.103   1.323 -0.1344  0.2649  0.2474
 2699TIP3    H1 8054   6.081   0.062   1.394 -0.0643  0.7078  0.5536
 2699TIP3    H2 8055   6.135   0.036   1.255  0.5436 -0.4935  1.0037
 2700TIP3   OH2 8056   1.469   0.672   2.391  0.3519 -0.0828  0.2062
 2700TIP3    H1 8057   1.485   0.608   2.460 -1.3193 -1.4611 -0.5857
 2700TIP3    H2 8058   1.432   0.748   2.436  1.5348  0.0153  1.0625
 2701TIP3   OH2 8059   4.661   6.704   0.659 -0.1781  0.7974 -0.2926
 2701TIP3    H1 8060   4.613   6.623   0.675  1.6406 -0.1011  1.0339
 2701TIP3    H2 8061   4.629   6.734   0.574 -0.7382 -1.4672 -0.9707
 2702TIP3   OH2 8062   3.591   2.338   2.177 -0.0145  0.3030 -0.2867
 2702TIP3    H1 8063   3.546   2.278   2.236  0.5736 -1.4182 -1.4813
 2702TIP3    H2 8064   3.527   2.407   2.158 -0.3700  0.6205  1.9002
 2703TIP3   OH2 8065   3.264   6.815   6.665  0.1471 -0.3416 -0.0894
 2703TIP3    H1 8066   3.310   6.738   6.631  0.8593  0.0831 -0.1089
 2703TIP3    H2 8067   3.331   6.862   6.716 -0.7011 -0.5893  1.2942
 2704TIP3   OH2 8068   0.905   6.833   2.830 -0.1916 -0.1785  0.4379
 2704TIP3    H1 8069   0.976   6.769   2.829 -0.1524 -0.2523  2.9050
 2704TIP3    H2 8070   0.906   6.869   2.918 -1.3119  2.0185 -0.3772
 2705TIP3   OH2 8071   6.804   5.408   3.114 -0.2265  0.3735  0.0273
 2705TIP3    H1 8072   6.831   5.464   3.187 -1.1642  0.2352  0.4939
 2705TIP3    H2 8073   6.847   5.446   3.037 -0.3511  1.3723  0.4346
 2706TIP3   OH2 8074   0.722   3.707   1.119  0.2030 -0.3153  0.4411
 2706TIP3    H1 8075   0.735   3.710   1.024  0.0536  0.1325  0.4340
 2706TIP3    H2 8076   0.785   3.771   1.154 -0.2496  0.0542  0.5883
 2707TIP3   OH2 8077   1.199   2.433   0.435  0.6143  0.6785  0.0379
 2707TIP3    H1 8078   1.130   2.484   0.393  0.5848  0.0455 -0.7026
 2707TIP3    H2 8079   1.168   2.419   0.524 -1.5461 -1.9022 -0.9744
 2708TIP3   OH2 8080   7.660   2.879   0.526  0.0389  0.1472  0.0079
 2708TIP3    H1 8081   7.609   2.855   0.604  0.3597  0.2408  0.2537
 2708TIP3    H2 8082   7.623   2.826   0.456 -1.6948  1.6370 -0.2613
 2709TIP3   OH2 8083   2.902   4.143   2.624  0.0338 -0.3334  0.6011
 2709TIP3    H1 8084   2.817   4.164   2.585 -0.3180 -1.3120  0.7871
 2709TIP3    H2 8085   2.965   4.154   2.553 -0.1660  0.9029  0.5941
 2710TIP3   OH2 8086   4.145   4.048   6.076  0.0625 -0.0181  0.1528
 2710TIP3    H1 8087   4.228   4.010   6.048  0.2295 -0.9538  1.7701
 2710TIP3    H2 8088   4.118   3.995   6.151 -1.4987  0.8978  0.2973
 2711TIP3   OH2 8089   7.964   7.169   2.876  0.1117 -0.0336 -0.4754
 2711TIP3    H1 8090   7.876   7.135   2.887 -0.3961  1.1249 -0.7695
 2711TIP3    H2 8091   7.983   7.158   2.783  0.1841 -0.0625 -0.4576
 2712TIP3   OH2 8092   0.707   5.366   6.435  0.7477 -0.0729  0.5252
 2712TIP3    H1 8093   0.718   5.277   6.467 -1.2910 -0.4035  0.4570
 2712TIP3    H2 8094   0.706   5.358   6.339  1.1800  0.1088  0.5046
 2713TIP3   OH2 8095   3.364   6.058   5.085  0.4697  0.4092 -0.9188
 2713TIP3    H1 8096   3.435   6.099   5.135 -1.8195  1.2265  1.8683
 2713TIP3    H2 8097   3.329   6.128   5.031 -0.2745  0.8847  0.1575
 2714TIP3   OH2 8098   4.645   3.842   1.738  0.0620  0.3423  0.3778
 2714TIP3    H1 8099   4.712   3.834   1.805 -0.1253 -0.1998  0.5054
 2714TIP3    H2 8100   4.677   3.790   1.664 -2.3637 -4.3320  2.1629
 2715TIP3   OH2 8101   0.481   6.122   3.785  0.1138 -0.6032  0.3567
 2715TIP3    H1 8102   0.407   6.144   3.841  1.1086  4.6135  0.1913
 2715TIP3    H2 8103   0.450   6.138   3.696  0.6839 -1.1009  0.0565
 2716TIP3   OH2 8104   1.469   2.122   0.688  0.1146 -0.2222  0.1776
 2716TIP3    H1 8105   1.441   2.164   0.607 -1.1074 -1.2529  0.0302
 2716TIP3    H2 8106   1.433   2.033   0.683 -0.7878 -0.0373  2.2567
 2717TIP3   OH2 8107   3.192   3.267   6.090  0.3478  0.0011 -0.3544
 2717TIP3    H1 8108   3.126   3.312   6.143  0.8050  0.9996 -0.6133
 2717TIP3    H2 8109   3.142   3.207   6.036 -0.0931 -1.4549  1.5640
 2718TIP3   OH2 8110   1.990   6.442   5.213  0.7287  0.0913 -0.0986
 2718TIP3    H1 8111   1.955   6.355   5.231 -1.6952  1.4722  2.7011
 2718TIP3    H2 8112   1.923   6.485   5.161 -0.3310  1.6508  2.3763
 2719TIP3   OH2 8113   3.860   0.502   5.156  0.4402  0.1365 -0.2166
 2719TIP3    H1 8114   3.870   0.540   5.069  1.7749  2.5111  0.8676
 2719TIP3    H2 8115   3.938   0.449   5.169  0.1049 -0.4487 -0.5438
 2720TIP3   OH2 8116   1.950   1.804   5.225  0.1488  1.1717  0.4002
 2720TIP3    H1 8117   1.936   1.714   5.196  0.0743  0.5550  2.2512
 2720TIP3    H2 8118   1.872   1.851   5.197 -0.6233  0.2478  0.9674
 2721TIP3   OH2 8119   7.741   0.254   0.989  0.3260  0.2289 -0.1894
 2721TIP3    H1 8120   7.815   0.290   0.940 -0.6951 -0.2145 -2.1591
 2721TIP3    H2 8121   7.664   0.291   0.946 -0.6379 -0.0876  1.1921
 2722TIP3   OH2 8122   8.128   6.640   6.005 -0.2472 -0.0298  0.2141
 2722TIP3    H1 8123   8.190   6.587   6.056  0.3412 -0.7957 -1.2495
 2722TIP3    H2 8124   8.180   6.713   5.974 -0.3583 -0.0790 -0.0880
 2723TIP3   OH2 8125   7.959   5.932   5.062  0.0675  0.5180 -0.2961
 2723TIP3    H1 8126   7.947   6.027   5.064  1.6903  0.7553  1.1107
 2723TIP3    H2 8127   8.034   5.918   5.005 -0.1232  0.0786 -0.4474
 2724TIP3   OH2 8128   1.128   2.112   0.405 -0.4189  0.4337  0.0595
 2724TIP3    H1 8129   1.153   2.094   0.495 -1.0280  2.9544  0.8192
 2724TIP3    H2 8130   1.150   2.204   0.392  1.2114 -0.2302 -2.9427
 2725TIP3   OH2 8131   4.042   4.536   6.689  0.5118  0.0410  0.5544
 2725TIP3    H1 8132   4.029   4.631   6.692  0.7607  0.0583  1.3608
 2725TIP3    H2 8133   4.137   4.525   6.693  0.7064 -0.1677 -2.4360
 2726TIP3   OH2 8134   1.263   3.294   6.011  0.2104 -0.3902 -0.9665
 2726TIP3    H1 8135   1.233   3.335   5.930 -1.0834 -0.5753 -0.6015
 2726TIP3    H2 8136   1.321   3.224   5.983 -0.1407 -0.3819 -1.7378
 2727TIP3   OH2 8137   7.482   7.760   4.877 -0.0385 -0.2040 -0.1545
 2727TIP3    H1 8138   7.445   7.721   4.798 -1.2369 -1.3758  0.9384
 2727TIP3    H2 8139   7.429   7.839   4.892  1.0569  0.7774 -1.2199
 2728TIP3   OH2 8140   3.357   5.717   0.138 -0.5904  0.0329 -0.7109
 2728TIP3    H1 8141   3.415   5.792   0.122 -1.7512  1.2594  0.5620
 2728TIP3    H2 8142   3.407   5.641   0.109  0.6646  1.2809 -1.9673
 2729TIP3   OH2 8143   6.875   0.403   0.681 -0.2843 -0.3207  0.4740
 2729TIP3    H1 8144   6.808   0.395   0.613  0.5815  0.0275 -0.4330
 2729TIP3    H2 8145   6.847   0.478   0.733 -0.9451 -0.5838  0.5102
 2730TIP3   OH2 8146   6.626   6.249   1.051  0.0718  0.4990 -0.1481
 2730TIP3    H1 8147   6.683   6.302   1.107  1.9103 -1.9911  0.5280
 2730TIP3    H2 8148   6.569   6.202   1.112 -1.9388  1.9703 -0.7612
 2731TIP3   OH2 8149   2.867   7.738   4.354 -0.4315  0.3016  0.5043
 2731TIP3    H1 8150   2.950   7.723   4.309 -1.0394 -0.3210 -0.4298
 2731TIP3    H2 8151   2.873   7.828   4.387  0.1136  0.6981 -0.6292
 2732TIP3   OH2 8152   6.470   4.958   4.784 -0.4847  0.0633 -0.0316
 2732TIP3    H1 8153   6.547   5.015   4.785 -0.0754 -0.4636  1.1729
 2732TIP3    H2 8154   6.453   4.942   4.691  2.1167 -1.4270 -0.3713
 2733TIP3   OH2 8155   3.139   0.776   5.508 -0.0228  0.0216 -0.0388
 2733TIP3    H1 8156   3.139   0.685   5.538 -1.6604  0.9700  3.3538
 2733TIP3    H2 8157   3.056   0.812   5.539 -0.2601  2.2520 -2.8898
 2734TIP3   OH2 8158   7.493   4.261   0.796  0.2918  0.1136 -0.4855
 2734TIP3    H1 8159   7.537   4.293   0.875  0.3897 -0.7734 -0.1683
 2734TIP3    H2 8160   7.420   4.322   0.783  1.7602  1.8032 -1.2104
 2735TIP3   OH2 8161   7.689   6.115   1.332  0.9967 -0.0383  0.5693
 2735TIP3    H1 8162   7.663   6.025   1.315 -0.3000  0.4380 -0.0429
 2735TIP3    H2 8163   7.750   6.108   1.406 -0.1703 -1.2796  1.4585
 2736TIP3   OH2 8164   2.239   3.933   3.324 -0.0448  0.2845  0.3231
 2736TIP3    H1 8165   2.294   3.863   3.358  0.0287  0.6351  0.9444
 2736TIP3    H2 8166   2.293   4.012   3.332 -0.4640  0.5573  0.5029
 2737TIP3   OH2 8167   3.046   2.019   6.726 -0.0156  0.5608  0.5936
 2737TIP3    H1 8168   2.953   2.009   6.743 -0.1454  2.8141  1.5079
 2737TIP3    H2 8169   3.087   1.947   6.774 -1.3106 -1.5862 -1.2792
 2738TIP3   OH2 8170   7.749   5.698   0.839  0.2245  0.2852  0.3124
 2738TIP3    H1 8171   7.711   5.682   0.925 -0.3030  0.9166  0.2077
 2738TIP3    H2 8172   7.725   5.789   0.819 -3.7081 -1.0923 -2.5002
 2739TIP3   OH2 8173   3.523   6.460   3.241 -0.1765  0.1506  0.4199
 2739TIP3    H1 8174   3.473   6.384   3.212  1.1665 -0.5707 -0.0635
 2739TIP3    H2 8175   3.554   6.437   3.329  1.9245 -0.7403 -0.5068
 2740TIP3   OH2 8176   2.047   4.850   2.112  0.4008 -0.0567  0.1819
 2740TIP3    H1 8177   2.024   4.837   2.020 -2.9207  0.7446  0.7828
 2740TIP3    H2 8178   2.133   4.892   2.109  0.6842 -0.6094 -2.5007
 2741TIP3   OH2 8179   6.797   6.516   1.947 -1.1095  0.0249 -0.6628
 2741TIP3    H1 8180   6.827   6.448   2.007 -1.3516 -0.3782 -0.9989
 2741TIP3    H2 8181   6.774   6.589   2.005  0.0547  0.1828 -0.3711
 2742TIP3   OH2 8182   3.612   4.987   3.162  0.3967 -0.1707  0.2190
 2742TIP3    H1 8183   3.695   4.994   3.210  1.5107  1.0674 -1.7084
 2742TIP3    H2 8184   3.585   4.896   3.173  2.6882 -0.9675 -0.0874
 2743TIP3   OH2 8185   0.993   1.987   5.074  0.4874 -0.0481 -0.5183
 2743TIP3    H1 8186   1.029   1.968   5.160 -2.2905 -1.1746  0.5185
 2743TIP3    H2 8187   1.061   1.960   5.012  1.4923 -1.7769  1.2598
 2744TIP3   OH2 8188   3.690   0.746   6.130  0.0504 -0.7011  0.1238
 2744TIP3    H1 8189   3.751   0.721   6.061 -2.2585  1.9370 -3.2690
 2744TIP3    H2 8190   3.614   0.690   6.116  0.9275 -2.9309  3.3286
 2745TIP3   OH2 8191   5.185   6.923   2.007  0.1713  0.0918 -0.3079
 2745TIP3    H1 8192   5.162   6.945   2.097  1.0958 -0.5940  0.1159
 2745TIP3    H2 8193   5.197   7.007   1.963 -1.1829  0.4447 -0.0521
 2746TIP3   OH2 8194   4.330   2.100   6.703 -0.0939 -0.3934  0.4478
 2746TIP3    H1 8195   4.308   2.078   6.794 -3.0475  1.5530  0.3369
 2746TIP3    H2 8196   4.397   2.167   6.711 -1.6248  1.1117  1.3584
 2747TIP3   OH2 8197   7.888   5.571   6.485  0.0165  0.2163 -0.3619
 2747TIP3    H1 8198   7.814   5.581   6.546 -0.1632  1.0828 -0.7007
 2747TIP3    H2 8199   7.855   5.515   6.415  0.4456 -1.3872  0.6627
 2748TIP3   OH2 8200   5.434   6.637   4.003 -0.1000 -0.1813  0.1470
 2748TIP3    H1 8201   5.385   6.562   3.969  1.1605 -0.7530 -0.5133
 2748TIP3    H2 8202   5.371   6.708   4.007 -0.9911 -0.9048 -0.6154
 2749TIP3   OH2 8203   5.465   0.194   1.828 -0.2131 -0.1047  0.6132
 2749TIP3    H1 8204   5.461   0.148   1.744 -0.0350 -0.2880  0.7009
 2749TIP3    H2 8205   5.559   0.204   1.845 -0.2135 -1.1068  1.3368
 2750TIP3   OH2 8206   1.333   1.629   3.685  0.5155 -0.4492  0.3019
 2750TIP3    H1 8207   1.301   1.540   3.671  1.4831 -0.6829 -0.5564
 2750TIP3    H2 8208   1.309   1.676   3.605  1.1794 -0.3023  0.1816
 2751TIP3   OH2 8209   2.690   1.987   2.802 -0.8201 -0.5693 -0.3789
 2751TIP3    H1 8210   2.737   1.936   2.737  0.1781  1.1128 -1.0285
 2751TIP3    H2 8211   2.598   1.971   2.783 -0.5377 -1.0844 -1.3849
 2752TIP3   OH2 8212   4.309   2.983   2.078 -0.4712  0.1571  0.1611
 2752TIP3    H1 8213   4.317   2.967   1.984 -0.3666 -2.0871  0.4741
 2752TIP3    H2 8214   4.358   2.911   2.118 -0.2931  1.2127  1.9449
 2753TIP3   OH2 8215   3.743   6.592   4.271  0.6935 -0.4869  0.0080
 2753TIP3    H1 8216   3.717   6.639   4.350  0.6048 -1.4698  0.5694
 2753TIP3    H2 8217   3.775   6.508   4.302  2.0127 -0.3424 -0.8970
 2754TIP3   OH2 8218   6.452   2.499   3.994  0.0159 -0.0706  0.2343
 2754TIP3    H1 8219   6.419   2.415   3.961  0.4439 -0.0300 -0.3198
 2754TIP3    H2 8220   6.418   2.564   3.932  2.1455 -0.1514 -1.1297
 2755TIP3   OH2 8221   5.485   2.584   3.050  0.5794  0.4155 -0.3390
 2755TIP3    H1 8222   5.472   2.650   2.982 -0.4772  0.2499 -0.3078
 2755TIP3    H2 8223   5.397   2.554   3.072  0.8486  0.7437  1.3723
 2756TIP3   OH2 8224   6.873   3.463   1.481 -0.1533  0.2687  0.4070
 2756TIP3    H1 8225   6.906   3.505   1.402  1.4112  1.8906  1.8003
 2756TIP3    H2 8226   6.780   3.449   1.465  0.5622 -1.8505 -2.6544
 2757TIP3   OH2 8227   7.829   5.264   1.442 -0.1463 -0.4305  0.2693
 2757TIP3    H1 8228   7.901   5.323   1.468  0.3280 -0.5109 -0.7944
 2757TIP3    H2 8229   7.818   5.205   1.517  2.3285 -1.7534 -0.3027
 2758TIP3   OH2 8230   5.681   4.603   1.386 -0.3814 -0.5937  0.1592
 2758TIP3    H1 8231   5.643   4.534   1.331  0.1696 -0.0220 -0.9623
 2758TIP3    H2 8232   5.733   4.656   1.326  0.5867 -0.1897  1.3170
 2759TIP3   OH2 8233   1.484   2.920   5.176  0.3537  0.6006  0.2039
 2759TIP3    H1 8234   1.559   2.970   5.209  1.6053 -0.9007 -0.2085
 2759TIP3    H2 8235   1.474   2.848   5.239 -1.3210  1.2366  0.7197
 2760TIP3   OH2 8236   6.025   7.460   5.814  0.3918 -0.1207 -0.3325
 2760TIP3    H1 8237   5.976   7.494   5.739 -0.2371  1.6642  0.8155
 2760TIP3    H2 8238   5.962   7.461   5.886  1.6439  0.6087  0.7981
 2761TIP3   OH2 8239   0.941   3.517   3.616 -0.1583 -0.0683 -0.0883
 2761TIP3    H1 8240   0.880   3.541   3.686 -1.3703 -0.1467 -1.0852
 2761TIP3    H2 8241   1.023   3.562   3.639 -0.6537  0.2274  1.1584
 2762TIP3   OH2 8242   7.707   0.752   3.032 -0.0559  0.1795  0.2684
 2762TIP3    H1 8243   7.786   0.701   3.050 -0.6033 -1.1236 -0.8773
 2762TIP3    H2 8244   7.658   0.750   3.114 -0.2073 -1.4171  0.1684
 2763TIP3   OH2 8245   8.034   3.298   6.422  0.4762 -0.7128 -1.0704
 2763TIP3    H1 8246   7.951   3.267   6.458  1.6769 -2.6859  0.2373
 2763TIP3    H2 8247   8.043   3.387   6.456 -1.0152 -0.5181 -1.1106
 2764TIP3   OH2 8248   6.173   7.644   2.467 -0.7656 -0.5308 -0.2289
 2764TIP3    H1 8249   6.133   7.566   2.427 -0.9936 -0.2966 -0.4600
 2764TIP3    H2 8250   6.179   7.623   2.560 -1.5452 -0.5234 -0.1722
 2765TIP3   OH2 8251   6.041   6.605   5.062  0.0212  0.0718  0.2870
 2765TIP3    H1 8252   5.988   6.544   5.114 -0.2957  0.3457  0.2882
 2765TIP3    H2 8253   5.992   6.688   5.065  0.3856  0.2929  0.1840
 2766TIP3   OH2 8254   2.502   2.134   6.510  0.6134 -0.1032  0.6549
 2766TIP3    H1 8255   2.486   2.115   6.418  1.2736  1.8643  0.0802
 2766TIP3    H2 8256   2.563   2.066   6.538 -2.4736 -3.1194  0.8188
 2767TIP3   OH2 8257   2.551   2.005   0.827  0.3616  0.1935 -0.3831
 2767TIP3    H1 8258   2.599   1.978   0.748  1.6729 -1.7708  0.9979
 2767TIP3    H2 8259   2.474   1.949   0.828  0.4375  0.0899 -0.2060
 2768TIP3   OH2 8260   5.488   1.847   3.318  0.4930  0.7173  0.2185
 2768TIP3    H1 8261   5.455   1.795   3.244 -1.5044  0.4978  1.2108
 2768TIP3    H2 8262   5.538   1.785   3.370  0.0619  0.3288  0.1782
 2769TIP3   OH2 8263   2.791   5.492   3.629 -0.0106  0.0872  0.5143
 2769TIP3    H1 8264   2.856   5.500   3.698 -0.5727  1.1077  0.9421
 2769TIP3    H2 8265   2.748   5.577   3.626 -0.3588 -0.1156 -0.7372
 2770TIP3   OH2 8266   2.330   2.388   1.731  0.2028 -0.0883 -0.1314
 2770TIP3    H1 8267   2.421   2.360   1.720  0.7096  0.9341  1.2082
 2770TIP3    H2 8268   2.297   2.335   1.803  0.5021  1.1811  0.9700
 2771TIP3   OH2 8269   6.075   4.188   2.314  0.2205  0.4829 -0.4591
 2771TIP3    H1 8270   6.076   4.123   2.244  1.9309  0.0335 -0.0437
 2771TIP3    H2 8271   5.990   4.232   2.304  0.0031 -0.2480 -2.1646
 2772TIP3   OH2 8272   7.199   5.549   2.489 -0.1980 -0.4839  0.6756
 2772TIP3    H1 8273   7.240   5.465   2.511 -1.0551 -0.9986  0.3531
 2772TIP3    H2 8274   7.106   5.536   2.509 -0.2735  0.5418  1.0445
 2773TIP3   OH2 8275   6.644   2.158   5.215 -0.5502  0.2861  0.0950
 2773TIP3    H1 8276   6.563   2.183   5.258  0.1878  2.2193  0.4439
 2773TIP3    H2 8277   6.647   2.213   5.136 -0.2115 -0.7410 -0.6347
 2774TIP3   OH2 8278   0.626   6.504   3.517 -0.3045  0.8057  0.7365
 2774TIP3    H1 8279   0.683   6.568   3.474 -0.0608  0.4814  0.5652
 2774TIP3    H2 8280   0.670   6.420   3.503 -2.0799  0.1651 -1.6174
 2775TIP3   OH2 8281   4.252   0.214   1.452  0.2107 -0.1669  0.1148
 2775TIP3    H1 8282   4.248   0.125   1.487  0.6628 -0.2307  0.0071
 2775TIP3    H2 8283   4.315   0.259   1.508 -0.3832  0.2269  0.4758
 2776TIP3   OH2 8284   1.527   0.169   0.362 -0.0018  0.3580 -0.3497
 2776TIP3    H1 8285   1.490   0.122   0.288  1.5880 -1.0228 -0.3166
 2776TIP3    H2 8286   1.598   0.220   0.325 -0.3836  1.1299 -0.0441
 2777TIP3   OH2 8287   4.755   3.086   2.569  0.1909  0.2436 -0.5602
 2777TIP3    H1 8288   4.801   3.151   2.516 -0.7394  1.2125 -0.2023
 2777TIP3    H2 8289   4.751   3.124   2.656  0.0651 -0.5160 -0.2258
 2778TIP3   OH2 8290   2.469   3.037   0.685  0.1852  0.5752  0.3458
 2778TIP3    H1 8291   2.436   2.959   0.642  1.2989  0.4571 -0.3052
 2778TIP3    H2 8292   2.417   3.109   0.647  1.3450  0.5150 -1.4635
 2779TIP3   OH2 8293   7.217   0.209   1.919  0.1804 -0.6541  0.1922
 2779TIP3    H1 8294   7.157   0.134   1.922  0.2513 -0.6885  1.4600
 2779TIP3    H2 8295   7.167   0.281   1.958  0.5209 -0.3514  0.0703
 2780TIP3   OH2 8296   3.814   1.046   4.132 -0.1550  0.2350  0.4124
 2780TIP3    H1 8297   3.762   0.997   4.068 -1.4653 -0.0672  1.6554
 2780TIP3    H2 8298   3.889   1.079   4.082 -0.9985 -0.1987 -1.2035
 2781TIP3   OH2 8299   3.011   0.418   5.023  0.1627  0.2035 -0.6634
 2781TIP3    H1 8300   2.994   0.498   5.071 -1.2405 -0.1278 -0.5628
 2781TIP3    H2 8301   2.997   0.348   5.087  0.8798 -0.1473 -0.8782
 2782TIP3   OH2 8302   4.237   0.268   4.549  0.0971  0.1421  0.4178
 2782TIP3    H1 8303   4.258   0.355   4.582 -1.2258  0.2680  0.9912
 2782TIP3    H2 8304   4.315   0.241   4.501  0.4615  1.7021  0.0821
 2783TIP3   OH2 8305   3.248   2.355   5.516  0.0726 -0.3148  0.3777
 2783TIP3    H1 8306   3.176   2.292   5.516 -0.9115  0.7073 -1.7608
 2783TIP3    H2 8307   3.251   2.387   5.606 -0.0198 -2.6456  1.2945
 2784TIP3   OH2 8308   5.929   5.769   5.067 -0.5191  0.9080  0.1866
 2784TIP3    H1 8309   5.876   5.843   5.096  1.0873  2.0457  0.3188
 2784TIP3    H2 8310   5.957   5.792   4.979 -2.2170 -0.8131 -0.9007
 2785TIP3   OH2 8311   4.960   7.642   6.424  0.2064 -0.0770 -0.3461
 2785TIP3    H1 8312   4.992   7.562   6.383  0.2426  0.4005 -1.2798
 2785TIP3    H2 8313   5.025   7.661   6.492  0.5853 -0.4505 -0.5981
 2786TIP3   OH2 8314   5.305   5.712   5.197 -0.2388  0.0633  0.3152
 2786TIP3    H1 8315   5.373   5.708   5.264  0.7938  2.5696 -0.4493
 2786TIP3    H2 8316   5.337   5.656   5.126 -0.3212 -0.9079  1.0252
 2787TIP3   OH2 8317   4.334   4.929   4.711 -0.1607  0.1182  0.0100
 2787TIP3    H1 8318   4.298   4.986   4.643  1.0613 -0.7278 -1.3928
 2787TIP3    H2 8319   4.396   4.984   4.758  1.2675 -0.0702 -1.5542
 2788TIP3   OH2 8320   3.959   6.662   2.599  0.0196  0.6907  0.4597
 2788TIP3    H1 8321   4.050   6.638   2.580  0.1959  2.3771 -1.2506
 2788TIP3    H2 8322   3.907   6.597   2.553  0.4180  0.8482 -0.2382
 2789TIP3   OH2 8323   2.057   3.445   1.767 -0.0268 -0.4735  0.2885
 2789TIP3    H1 8324   2.075   3.410   1.680 -0.3974 -0.6208  0.2679
 2789TIP3    H2 8325   2.067   3.539   1.757  0.2440 -0.5140  0.1635
 2790TIP3   OH2 8326   4.761   6.093   0.722 -0.0733  0.6944 -0.0017
 2790TIP3    H1 8327   4.667   6.089   0.705 -0.1215 -1.6098  0.4533
 2790TIP3    H2 8328   4.771   6.163   0.787 -1.4992  0.7698  0.1546
 2791TIP3   OH2 8329   7.296   4.272   1.494  0.4093  0.2891  0.0279
 2791TIP3    H1 8330   7.282   4.233   1.580 -1.1098  0.2740 -0.1954
 2791TIP3    H2 8331   7.235   4.226   1.436  1.7173 -0.0043 -1.1594
 2792TIP3   OH2 8332   3.224   1.644   3.619 -0.0149  0.0797  0.4344
 2792TIP3    H1 8333   3.146   1.590   3.634 -0.1068  0.2979  0.7710
 2792TIP3    H2 8334   3.201   1.702   3.547  0.1085 -0.3797  0.0264
 2793TIP3   OH2 8335   4.573   5.005   2.967  0.0986  0.0347 -0.6670
 2793TIP3    H1 8336   4.653   4.974   3.009  1.7692  0.9054 -2.9772
 2793TIP3    H2 8337   4.557   4.943   2.895 -0.9450  0.2468 -0.6474
 2794TIP3   OH2 8338   1.419   3.102   1.720  0.3068 -0.5862  0.6125
 2794TIP3    H1 8339   1.474   3.180   1.715 -0.8021  0.1397 -1.3336
 2794TIP3    H2 8340   1.351   3.124   1.783  0.1132 -0.0366  0.2198
 2795TIP3   OH2 8341   5.810   1.484   1.087  0.9338  0.2823 -0.1386
 2795TIP3    H1 8342   5.842   1.432   1.014  0.2627 -0.2915 -0.0288
 2795TIP3    H2 8343   5.877   1.474   1.155  0.3761 -1.2003  0.2219
 2796TIP3   OH2 8344   5.211   2.458   6.528  0.2454 -0.2977  0.1838
 2796TIP3    H1 8345   5.210   2.544   6.570 -0.1450 -0.8891  1.4434
 2796TIP3    H2 8346   5.235   2.476   6.437 -2.1890  1.4490 -0.2309
 2797TIP3   OH2 8347   6.054   1.997   5.221 -0.0752  0.0073 -0.2800
 2797TIP3    H1 8348   6.142   1.961   5.210 -0.0443  0.3071 -1.0229
 2797TIP3    H2 8349   6.040   1.996   5.316  0.8197  0.1744 -0.1366
 2798TIP3   OH2 8350   7.889   6.458   1.536  0.2422  0.1402  0.1445
 2798TIP3    H1 8351   7.834   6.530   1.567 -1.3990 -0.5131 -1.0591
 2798TIP3    H2 8352   7.894   6.470   1.442 -1.8989 -2.4123 -0.4241
 2799TIP3   OH2 8353   3.095   5.592   0.180  0.0038 -0.4307  0.2592
 2799TIP3    H1 8354   3.068   5.647   0.106  0.7651  1.1422  1.0859
 2799TIP3    H2 8355   3.190   5.594   0.178  0.0371 -0.4339  1.2175
 2800TIP3   OH2 8356   1.964   2.830   6.505  0.1275 -0.1887 -0.0360
 2800TIP3    H1 8357   2.059   2.838   6.514  0.3321 -2.0909 -0.0864
 2800TIP3    H2 8358   1.951   2.797   6.417 -0.5959  0.1853 -0.0694
 2801TIP3   OH2 8359   0.848   7.257   2.480  0.3865  0.3227  0.2475
 2801TIP3    H1 8360   0.880   7.171   2.508  2.0724  0.6972 -0.3851
 2801TIP3    H2 8361   0.891   7.319   2.539  0.9565  0.8547 -0.6932
 2802TIP3   OH2 8362   7.036   2.340   0.991  0.2770  0.5661 -0.1862
 2802TIP3    H1 8363   6.996   2.324   0.906  0.2305  1.2631 -0.3066
 2802TIP3    H2 8364   7.125   2.368   0.970  1.2772 -2.1809  0.1260
 2803TIP3   OH2 8365   1.983   2.822   5.279 -0.9949 -0.0728 -0.6166
 2803TIP3    H1 8366   2.040   2.879   5.330 -1.7231  0.4372 -0.3746
 2803TIP3    H2 8367   2.017   2.734   5.296 -0.9836  0.1209  0.4346
 2804TIP3   OH2 8368   6.512   4.406   2.276  0.1588  0.2071 -0.0195
 2804TIP3    H1 8369   6.594   4.377   2.236  0.0747  0.6575 -0.5262
 2804TIP3    H2 8370   6.446   4.346   2.242  0.1660  0.2746 -0.1501
 2805TIP3   OH2 8371   0.964   2.499   2.569  0.1121  0.1094  0.1804
 2805TIP3    H1 8372   0.947   2.454   2.652 -0.9476 -1.0384 -0.6280
 2805TIP3    H2 8373   1.059   2.513   2.569  0.1627 -0.1001  1.4687
 2806TIP3   OH2 8374   6.095   7.417   0.353 -0.1495 -0.0475  0.1463
 2806TIP3    H1 8375   6.013   7.371   0.336 -0.6204  1.3551 -1.7474
 2806TIP3    H2 8376   6.106   7.475   0.277  1.7258  1.0420  1.1735
 2807TIP3   OH2 8377   3.546   7.200   0.013  0.3317  0.4808  0.4478
 2807TIP3    H1 8378   3.597   7.195   0.093  1.0086  0.6573  0.0360
 2807TIP3    H2 8379   3.611   7.201  -0.057 -0.0507  3.6525 -0.0266
 2808TIP3   OH2 8380   1.288   6.268   2.778 -0.2317 -0.0943 -0.5692
 2808TIP3    H1 8381   1.216   6.237   2.832 -0.0183 -0.9179 -0.7434
 2808TIP3    H2 8382   1.245   6.303   2.699 -0.4695 -0.0584 -0.4237
 2809TIP3   OH2 8383   4.397   0.553   4.929 -0.2821 -0.2865  0.0420
 2809TIP3    H1 8384   4.451   0.477   4.909  0.3075  0.2488 -0.4910
 2809TIP3    H2 8385   4.327   0.550   4.864 -0.3366 -0.4565  0.1104
 2810TIP3   OH2 8386   5.105   7.441   6.296 -0.2720  0.4915  0.0951
 2810TIP3    H1 8387   5.101   7.349   6.322 -1.0819  0.5907  0.3613
 2810TIP3    H2 8388   5.099   7.438   6.201 -0.6810  0.2846  0.1240
 2811TIP3   OH2 8389   2.049   7.007   6.391  0.2962 -0.4417 -0.3137
 2811TIP3    H1 8390   2.010   7.017   6.478  0.5799 -0.8113 -0.1412
 2811TIP3    H2 8391   2.059   7.096   6.358 -0.3098 -0.3261 -0.1904
 2812TIP3   OH2 8392   2.969   5.563   4.770  0.0581 -0.1904 -0.0620
 2812TIP3    H1 8393   2.938   5.636   4.717 -1.4095  0.7626  1.9998
 2812TIP3    H2 8394   2.926   5.486   4.733 -1.5882  0.5696  0.2051
 2813TIP3   OH2 8395   1.522   6.779   3.860  0.1866  0.4985 -0.4902
 2813TIP3    H1 8396   1.587   6.822   3.916 -0.4445 -0.7897  1.3392
 2813TIP3    H2 8397   1.480   6.716   3.918 -3.0952  1.6581 -1.4201
 2814TIP3   OH2 8398   0.757   3.087   6.406  0.8078  0.2365  0.1075
 2814TIP3    H1 8399   0.847   3.087   6.438  1.2721 -0.5201 -1.1073
 2814TIP3    H2 8400   0.752   3.011   6.347 -0.9412 -0.3967  0.9938
 2815TIP3   OH2 8401   4.485   6.656   4.898 -0.3073 -0.3135 -0.3765
 2815TIP3    H1 8402   4.392   6.639   4.914 -0.2833  0.3850  0.6000
 2815TIP3    H2 8403   4.521   6.571   4.872 -0.8392 -1.0268  1.1070
 2816TIP3   OH2 8404   1.098   3.601   4.395 -0.3264 -0.0244  0.6617
 2816TIP3    H1 8405   1.190   3.628   4.398 -1.0701  2.9705  0.3980
 2816TIP3    H2 8406   1.097   3.514   4.434  2.6493 -0.3109  0.3543
 2817TIP3   OH2 8407   1.986   1.433   3.199 -0.7262 -0.1243  0.5752
 2817TIP3    H1 8408   1.998   1.433   3.104 -0.6184 -0.8346  0.5788
 2817TIP3    H2 8409   1.959   1.522   3.221 -0.0057  0.2548 -0.0282
 2818TIP3   OH2 8410   7.082   3.717   3.723  0.1569 -0.1098  0.2136
 2818TIP3    H1 8411   7.073   3.703   3.629  0.6914 -1.6236  0.3713
 2818TIP3    H2 8412   7.143   3.790   3.730 -0.0351  0.1447 -0.6087
 2819TIP3   OH2 8413   0.558   3.685   4.977  0.0787 -0.2034 -0.5477
 2819TIP3    H1 8414   0.497   3.754   4.951  1.3071  2.1827  2.2545
 2819TIP3    H2 8415   0.516   3.643   5.052  0.1873 -1.2525 -1.0570
 2820TIP3   OH2 8416   4.581   0.260   5.310 -0.5532  0.4396 -0.3998
 2820TIP3    H1 8417   4.591   0.289   5.400 -2.6609  2.5191 -0.7355
 2820TIP3    H2 8418   4.511   0.194   5.315 -0.2890  0.1568 -0.4429
 2821TIP3   OH2 8419   2.744   3.549   1.496 -0.1525  0.0817  0.3412
 2821TIP3    H1 8420   2.713   3.620   1.552  2.0758  3.1052 -1.9410
 2821TIP3    H2 8421   2.729   3.579   1.407  2.4595 -1.5004 -0.7609
 2822TIP3   OH2 8422   2.554   6.283   3.070 -0.0070  0.4548 -0.4062
 2822TIP3    H1 8423   2.574   6.377   3.073  1.4199  0.1892 -1.1072
 2822TIP3    H2 8424   2.547   6.263   2.977  1.1880 -0.4315 -0.3180
 2823TIP3   OH2 8425   4.217   4.949   6.726  0.1178 -0.3818 -0.3217
 2823TIP3    H1 8426   4.176   4.871   6.689  0.3213 -1.2129  1.1171
 2823TIP3    H2 8427   4.292   4.915   6.775  0.1769  0.7037  0.3643
 2824TIP3   OH2 8428   3.599   7.403   3.038  0.2052  0.6172 -0.3600
 2824TIP3    H1 8429   3.690   7.377   3.022  0.1742 -0.0596  0.4948
 2824TIP3    H2 8430   3.561   7.410   2.950  1.6604  3.1784 -0.8634
 2825TIP3   OH2 8431   6.760   4.067   4.503 -0.2586 -0.3788  0.1184
 2825TIP3    H1 8432   6.817   4.054   4.579 -0.9207 -5.3860  0.1093
 2825TIP3    H2 8433   6.819   4.063   4.428  0.0856  1.8272  0.2277
 2826TIP3   OH2 8434   4.107   5.369   6.435 -0.5358 -0.2590 -0.2340
 2826TIP3    H1 8435   4.143   5.436   6.377  0.8836 -1.1857 -0.4825
 2826TIP3    H2 8436   4.013   5.367   6.416 -0.5202  1.2973 -0.5651
 2827TIP3   OH2 8437   7.224   5.277   4.131  0.0295 -0.4387 -0.0358
 2827TIP3    H1 8438   7.294   5.212   4.137  0.0576 -0.2873  2.1957
 2827TIP3    H2 8439   7.269   5.361   4.135 -0.0317 -0.1850 -2.6177
 2828TIP3   OH2 8440   5.780   6.681   0.176 -0.0619  0.1543  0.1151
 2828TIP3    H1 8441   5.840   6.686   0.250  0.4083 -0.3595 -0.2248
 2828TIP3    H2 8442   5.694   6.667   0.217  0.3994 -1.7210  0.5372
 2829TIP3   OH2 8443   6.639   2.347   6.465  0.6472  0.3308 -0.1440
 2829TIP3    H1 8444   6.622   2.430   6.510 -0.2590 -1.1806  2.4811
 2829TIP3    H2 8445   6.554   2.302   6.465  1.0836 -0.5801 -1.6849
 2830TIP3   OH2 8446   2.769   7.771   5.130 -0.0616  0.2644 -0.0738
 2830TIP3    H1 8447   2.698   7.789   5.069 -1.5619 -0.1908  1.4770
 2830TIP3    H2 8448   2.745   7.818   5.210 -0.4764 -2.7453  1.6943
 2831TIP3   OH2 8449   0.300   6.318   3.240 -0.0833  0.3327 -0.2326
 2831TIP3    H1 8450   0.282   6.268   3.161  1.4705 -2.1814  0.8664
 2831TIP3    H2 8451   0.380   6.367   3.221 -0.0197  0.1617 -0.4005
 2832TIP3   OH2 8452   3.743   6.630   5.121 -0.4838 -0.2935  0.4673
 2832TIP3    H1 8453   3.793   6.607   5.043 -0.0656 -0.6729  0.8433
 2832TIP3    H2 8454   3.767   6.722   5.138 -0.6082 -0.1976  0.1259
 2833TIP3   OH2 8455   3.163   5.981   3.738  0.1944 -0.0480 -0.1467
 2833TIP3    H1 8456   3.114   6.047   3.787 -0.8233 -1.2534  0.5253
 2833TIP3    H2 8457   3.169   5.907   3.798  0.2024 -1.0341 -1.3415
 2834TIP3   OH2 8458   6.616   7.774   6.463  0.0097 -0.9530 -0.0475
 2834TIP3    H1 8459   6.546   7.708   6.470 -1.2430  0.2858 -0.4553
 2834TIP3    H2 8460   6.658   7.773   6.549 -0.4375 -1.7873  0.1764
 2835TIP3   OH2 8461   4.213   7.456   6.607 -0.6892 -0.5303  0.5938
 2835TIP3    H1 8462   4.153   7.518   6.567 -0.5704  0.4175  1.8134
 2835TIP3    H2 8463   4.296   7.468   6.560 -0.1995  1.4515  1.8467
 2836TIP3   OH2 8464   7.736   7.178   4.770 -0.3560 -0.0534  0.0578
 2836TIP3    H1 8465   7.695   7.144   4.849  0.2299 -0.6207  0.1234
 2836TIP3    H2 8466   7.696   7.264   4.757 -1.8240 -0.7305 -0.0827
 2837TIP3   OH2 8467   7.026   5.680   4.686  0.5883 -0.3744  0.3066
 2837TIP3    H1 8468   7.080   5.605   4.713  1.2879  0.2320  0.6089
 2837TIP3    H2 8469   7.086   5.754   4.686 -0.3405  0.4053  1.0860
 2838TIP3   OH2 8470   4.909   4.130   4.064  0.4592 -0.3614 -0.1451
 2838TIP3    H1 8471   4.992   4.083   4.076  0.8184 -0.1459 -1.5134
 2838TIP3    H2 8472   4.932   4.204   4.007 -0.6028 -0.0743 -0.2185
 2839TIP3   OH2 8473   7.174   4.534   5.144 -0.4880  0.5089  0.3465
 2839TIP3    H1 8474   7.098   4.562   5.195  0.5596  1.7123  1.3055
 2839TIP3    H2 8475   7.174   4.593   5.068 -1.5977 -0.7739 -0.7055
 2840TIP3   OH2 8476   4.369   1.556   6.081  0.0901 -0.0513  0.3352
 2840TIP3    H1 8477   4.332   1.482   6.130 -0.1525 -0.8468 -0.9764
 2840TIP3    H2 8478   4.303   1.574   6.013  1.1472 -0.1117 -0.7393
 2841TIP3   OH2 8479   2.015   6.921   4.394 -0.2982  0.7729  0.4793
 2841TIP3    H1 8480   2.055   6.866   4.326  1.4157  1.5334  0.8213
 2841TIP3    H2 8481   2.071   6.909   4.470 -1.5973  0.7430  1.4679
 2842TIP3   OH2 8482   3.539   4.737   1.925 -0.4733  0.1325 -0.2225
 2842TIP3    H1 8483   3.620   4.760   1.970 -1.5941  1.9455  0.9900
 2842TIP3    H2 8484   3.481   4.705   1.994 -2.1333  2.7271 -0.2658
 2843TIP3   OH2 8485   0.546   6.808   6.031 -0.0298 -0.1131  0.4132
 2843TIP3    H1 8486   0.555   6.792   5.937  0.1708 -1.4426  0.6405
 2843TIP3    H2 8487   0.520   6.724   6.067 -0.8139  0.5633  1.4661
 2844TIP3   OH2 8488   2.820   0.695   3.969 -0.2370 -0.2716 -0.3416
 2844TIP3    H1 8489   2.856   0.641   4.040  0.8222  2.0884  1.0338
 2844TIP3    H2 8490   2.832   0.785   3.999 -0.1882  0.8309 -3.3516
 2845TIP3   OH2 8491   7.341   2.802   5.918 -0.3200 -0.7434 -0.0697
 2845TIP3    H1 8492   7.371   2.840   5.835  0.0980 -0.8271  0.0396
 2845TIP3    H2 8493   7.320   2.878   5.973  1.0983 -0.6353  0.3619
 2846TIP3   OH2 8494   4.302   5.962   4.337 -0.9277  0.1597 -0.1196
 2846TIP3    H1 8495   4.217   5.924   4.357 -1.2776  0.7592 -0.4316
 2846TIP3    H2 8496   4.282   6.037   4.281 -0.2832  1.0613  0.8335
 2847TIP3   OH2 8497   3.272   0.401   1.588  0.5940 -0.2437  0.1739
 2847TIP3    H1 8498   3.249   0.443   1.505 -0.6324  0.5103  0.8727
 2847TIP3    H2 8499   3.361   0.368   1.574  0.4054 -0.1551 -1.4417
 2848TIP3   OH2 8500   5.989   7.141   5.744  0.2484  0.2235 -0.0730
 2848TIP3    H1 8501   5.995   7.049   5.717 -1.0110  0.3156 -0.7595
 2848TIP3    H2 8502   6.050   7.187   5.686 -0.7668  0.0975 -1.3053
 2849TIP3   OH2 8503   7.639   1.654   5.076 -0.6543  0.2386 -0.6574
 2849TIP3    H1 8504   7.658   1.746   5.058 -2.3947  1.6231  3.2639
 2849TIP3    H2 8505   7.562   1.634   5.022 -0.0480  0.9393 -1.8035
 2850TIP3   OH2 8506   3.134   5.877   4.404 -0.4462 -0.0368 -0.8632
 2850TIP3    H1 8507   3.186   5.817   4.352  0.7999 -0.4928  0.8268
 2850TIP3    H2 8508   3.179   5.882   4.489 -3.3407 -0.8313  0.8914
 2851TIP3   OH2 8509   3.911   0.545   4.856  0.1335 -0.4746 -0.0587
 2851TIP3    H1 8510   3.933   0.551   4.763  0.8085  0.8445  0.1502
 2851TIP3    H2 8511   3.943   0.460   4.883 -1.8857 -1.7641 -1.4492
 2852TIP3   OH2 8512   0.428   4.489   4.163  0.1888 -0.0277  0.1459
 2852TIP3    H1 8513   0.413   4.524   4.251  0.0333 -0.4447  0.2902
 2852TIP3    H2 8514   0.372   4.541   4.106  1.3186  1.1713  0.0846
 2853TIP3   OH2 8515   3.161   6.251   2.003  0.0827  0.1402 -0.1002
 2853TIP3    H1 8516   3.099   6.306   2.050  0.0699 -0.9267  1.1930
 2853TIP3    H2 8517   3.191   6.305   1.930 -2.2685  0.7050 -0.7138
 2854TIP3   OH2 8518   0.462   4.118   1.901  0.4641 -0.9430 -0.0366
 2854TIP3    H1 8519   0.369   4.108   1.917 -0.0636  2.5388 -0.1873
 2854TIP3    H2 8520   0.476   4.082   1.813 -0.9992 -0.3186 -0.5502
 2855TIP3   OH2 8521   6.357   0.010   2.280 -0.7122  0.1744 -0.7596
 2855TIP3    H1 8522   6.299   0.071   2.233 -1.5557 -0.5798 -0.7133
 2855TIP3    H2 8523   6.392  -0.047   2.211 -0.2818  0.4106 -0.7416
 2856TIP3   OH2 8524   5.096   1.076   4.116  0.4732 -0.7653  0.2169
 2856TIP3    H1 8525   5.183   1.038   4.127  1.2723  0.9797  0.1440
 2856TIP3    H2 8526   5.040   1.001   4.095  1.4200 -2.3504  2.7804
 2857TIP3   OH2 8527   6.395   4.289   1.571 -0.5760 -0.3297 -0.2051
 2857TIP3    H1 8528   6.479   4.288   1.527 -0.2956  1.6358  0.1937
 2857TIP3    H2 8529   6.414   4.262   1.661 -0.7693 -2.0356 -0.6413
 2858TIP3   OH2 8530   3.649   7.717   3.533 -0.2006 -0.0336 -0.2509
 2858TIP3    H1 8531   3.668   7.804   3.497  0.4681 -0.7944 -1.8578
 2858TIP3    H2 8532   3.650   7.729   3.628 -0.3704  1.7543 -0.4422
 2859TIP3   OH2 8533   4.879   4.190   1.010  0.3101 -0.0375  0.1743
 2859TIP3    H1 8534   4.957   4.211   1.061  0.1241  0.8806  0.0902
 2859TIP3    H2 8535   4.871   4.262   0.947 -0.2626 -0.4317 -0.2133
 2860TIP3   OH2 8536   2.806   4.809   2.182  0.3319 -0.5086 -0.8202
 2860TIP3    H1 8537   2.834   4.794   2.272 -0.5259 -2.3653 -0.8119
 2860TIP3    H2 8538   2.748   4.885   2.187  0.2110 -0.6640  0.2106
 2861TIP3   OH2 8539   3.965   6.986   0.017 -0.5601  0.5117 -0.7800
 2861TIP3    H1 8540   4.010   6.943   0.090  0.4636  2.4465 -0.2143
 2861TIP3    H2 8541   3.967   6.921  -0.053 -1.5318 -1.3949  0.8394
 2862TIP3   OH2 8542   4.725   2.015   5.201  0.3360 -0.1584 -0.2564
 2862TIP3    H1 8543   4.698   2.045   5.288 -0.4939  0.8480 -0.8461
 2862TIP3    H2 8544   4.764   2.092   5.159  0.3677 -0.5246 -0.9188
 2863TIP3   OH2 8545   2.437   4.110   0.539  0.6686 -0.1929 -0.3775
 2863TIP3    H1 8546   2.530   4.090   0.532  0.4834 -1.0933 -0.4672
 2863TIP3    H2 8547   2.424   4.187   0.484  1.3160 -0.2143 -0.5628
 2864TIP3   OH2 8548   7.917   5.209   6.135 -0.1188  0.3344  0.8171
 2864TIP3    H1 8549   7.933   5.116   6.119 -0.4645 -0.1323  2.9487
 2864TIP3    H2 8550   7.995   5.253   6.101  0.6302 -0.8501  0.9464
 2865TIP3   OH2 8551   1.120   5.725   0.832 -0.0297  0.3270 -0.4823
 2865TIP3    H1 8552   1.168   5.778   0.769 -1.6878  1.4560 -0.8648
 2865TIP3    H2 8553   1.080   5.788   0.891  1.1156 -0.6971  1.4768
 2866TIP3   OH2 8554   4.972   2.366   5.058  0.2155  0.0191  0.0991
 2866TIP3    H1 8555   4.977   2.437   4.994  0.2426  0.1248  0.2191
 2866TIP3    H2 8556   5.020   2.294   5.017  0.7916  0.2965  0.2743
 2867TIP3   OH2 8557   5.188   3.845   4.228 -0.0932 -0.1947  0.2919
 2867TIP3    H1 8558   5.168   3.908   4.158  2.4433 -0.0595 -0.4353
 2867TIP3    H2 8559   5.235   3.775   4.183 -1.1792 -1.6915  1.4093
 2868TIP3   OH2 8560   0.130   5.539   3.414  0.2449 -0.4309  0.1520
 2868TIP3    H1 8561   0.128   5.634   3.409 -0.3757 -0.4898 -1.6119
 2868TIP3    H2 8562   0.219   5.518   3.444  0.4934  0.6858  0.2438
 2869TIP3   OH2 8563   7.022   1.157   0.184 -0.3211 -0.0854 -0.4672
 2869TIP3    H1 8564   7.026   1.197   0.097  0.3795 -1.2103 -0.9658
 2869TIP3    H2 8565   6.945   1.198   0.225  1.4453  3.2680 -0.1449
 2870TIP3   OH2 8566   3.993   2.095   4.579  0.1067 -0.0649 -0.2574
 2870TIP3    H1 8567   4.078   2.057   4.599 -0.5806 -1.3992  0.2416
 2870TIP3    H2 8568   3.929   2.032   4.613 -1.0857  0.5265 -1.2919
 2871TIP3   OH2 8569   5.947   2.967   5.029  0.1349 -0.2362  0.1123
 2871TIP3    H1 8570   5.991   2.966   4.944  1.5946  0.6907  0.8196
 2871TIP3    H2 8571   5.858   2.938   5.010 -0.0139  1.3522 -1.9897
 2872TIP3   OH2 8572   5.109   2.852   5.023 -0.2524 -0.1242  0.0091
 2872TIP3    H1 8573   5.034   2.885   4.972 -1.0256 -2.3152 -0.3667
 2872TIP3    H2 8574   5.185   2.877   4.971 -0.7730  1.1648 -0.1725
 2873TIP3   OH2 8575   5.644   2.123   0.799  0.0147 -0.1392  0.1095
 2873TIP3    H1 8576   5.683   2.085   0.878  0.5238  0.4095  0.1337
 2873TIP3    H2 8577   5.719   2.160   0.751  0.3566 -3.7857 -2.5940
 2874TIP3   OH2 8578   0.555   5.895   2.672 -0.0511 -0.3182 -0.0370
 2874TIP3    H1 8579   0.478   5.845   2.646  0.9255 -2.2682  0.5833
 2874TIP3    H2 8580   0.584   5.939   2.593 -2.3688  1.3373 -0.0551
 2875TIP3   OH2 8581   4.868   2.949   4.890 -0.0010  0.0031  0.0685
 2875TIP3    H1 8582   4.844   2.875   4.946  0.8300  0.3344  0.8916
 2875TIP3    H2 8583   4.812   2.940   4.813 -1.4502 -0.2626  1.1060
 2876TIP3   OH2 8584   7.503   1.494   2.284 -0.2641  0.1009 -0.0239
 2876TIP3    H1 8585   7.447   1.417   2.286 -1.6057  1.0436  0.6716
 2876TIP3    H2 8586   7.592   1.460   2.281 -0.7655 -1.4797  1.6172
 2877TIP3   OH2 8587   7.259   2.774   5.505  0.5496 -0.2781  0.3919
 2877TIP3    H1 8588   7.244   2.852   5.560  1.8025 -0.3219  0.8198
 2877TIP3    H2 8589   7.259   2.808   5.416 -4.7902 -0.6312 -0.0536
 2878TIP3   OH2 8590   4.858   1.654   6.631 -0.7781  0.0187  0.7863
 2878TIP3    H1 8591   4.798   1.602   6.684 -0.3383 -1.0738  0.2464
 2878TIP3    H2 8592   4.802   1.701   6.570 -1.1671 -0.0221  1.1130
 2879TIP3   OH2 8593   6.231   4.542   2.895  0.2224 -0.3793 -0.1532
 2879TIP3    H1 8594   6.266   4.611   2.838 -3.2413  0.1601 -1.9818
 2879TIP3    H2 8595   6.153   4.582   2.935 -0.2167 -2.3333  1.0861
 2880TIP3   OH2 8596   6.022   7.554   4.470 -0.3072 -0.5824 -0.1394
 2880TIP3    H1 8597   6.050   7.506   4.392 -0.0776  1.3706 -1.3287
 2880TIP3    H2 8598   5.927   7.558   4.464 -0.2345  0.4221 -0.8975
 2881TIP3   OH2 8599   6.638   7.366   5.396  0.0040  0.3672  0.1144
 2881TIP3    H1 8600   6.702   7.366   5.467 -0.7861  2.4881  0.9070
 2881TIP3    H2 8601   6.580   7.439   5.416 -2.4622 -1.2049 -0.7833
 2882TIP3   OH2 8602   1.453   4.127   3.438  0.1181  0.2532 -0.3447
 2882TIP3    H1 8603   1.467   4.043   3.482  0.2620  0.4694  0.0309
 2882TIP3    H2 8604   1.370   4.116   3.392 -0.4033  0.2561  0.5663
 2883TIP3   OH2 8605   3.815   4.962   3.847 -0.2651  0.1411  0.8088
 2883TIP3    H1 8606   3.770   5.001   3.922  1.8438  2.3738  1.0536
 2883TIP3    H2 8607   3.796   5.020   3.774  1.1830  0.4509  0.6487
 2884TIP3   OH2 8608   0.858   1.843   5.461  0.5956 -0.4379  0.0124
 2884TIP3    H1 8609   0.885   1.816   5.373  0.4631 -1.9386  0.3993
 2884TIP3    H2 8610   0.832   1.934   5.451 -1.4428 -1.1334 -1.9703
 2885TIP3   OH2 8611   7.315   6.216   3.730 -0.7844 -0.2202  0.4912
 2885TIP3    H1 8612   7.230   6.181   3.704  0.3832 -1.9213 -1.3156
 2885TIP3    H2 8613   7.375   6.189   3.660  1.2100  1.1540  1.5572
 2886TIP3   OH2 8614   4.223   0.725   6.142 -0.4811  0.4562 -0.3298
 2886TIP3    H1 8615   4.179   0.791   6.196  0.8054 -0.9849  2.6835
 2886TIP3    H2 8616   4.153   0.664   6.118 -1.1738  1.4111 -0.8354
 2887TIP3   OH2 8617   0.788   2.195   1.826 -0.1747 -0.3136 -0.0096
 2887TIP3    H1 8618   0.715   2.181   1.886 -1.2879  0.4223 -1.1364
 2887TIP3    H2 8619   0.865   2.199   1.882 -1.1501  0.1793  1.3403
 2888TIP3   OH2 8620   5.845   2.954   4.391  0.3973  0.4682 -1.0324
 2888TIP3    H1 8621   5.754   2.975   4.371  0.2265  0.4812 -0.2769
 2888TIP3    H2 8622   5.857   2.865   4.355 -0.2147  0.0633 -0.2699
 2889TIP3   OH2 8623   5.966   5.136   2.258  0.3486  0.0857  0.0397
 2889TIP3    H1 8624   6.050   5.099   2.285 -0.5630 -3.8798 -1.9219
 2889TIP3    H2 8625   5.906   5.115   2.329  0.3430  0.0582  0.0266
 2890TIP3   OH2 8626   5.194   6.400   6.034 -0.5716 -0.7273 -0.3535
 2890TIP3    H1 8627   5.132   6.388   6.106 -0.5888  0.9296 -0.0473
 2890TIP3    H2 8628   5.147   6.368   5.957 -2.0709  0.9147 -0.2171
 2891TIP3   OH2 8629   5.498   1.880   0.716  0.0615 -0.1010  0.7630
 2891TIP3    H1 8630   5.526   1.969   0.741  2.4791  0.0627 -1.9991
 2891TIP3    H2 8631   5.562   1.823   0.758  1.5073 -0.1069 -1.3003
 2892TIP3   OH2 8632   4.810   6.926   5.838 -0.4448 -0.3988  0.2203
 2892TIP3    H1 8633   4.760   6.905   5.759  1.6018  1.3909 -1.6913
 2892TIP3    H2 8634   4.898   6.893   5.820  0.0688  0.0172  1.7988
 2893TIP3   OH2 8635   5.906   1.237   0.297  0.7364  0.3690  0.1888
 2893TIP3    H1 8636   5.960   1.206   0.370  0.8396 -0.9766 -0.4191
 2893TIP3    H2 8637   5.968   1.277   0.236  0.8827 -0.0126  0.0831
 2894TIP3   OH2 8638   6.118   4.278   6.449 -0.0941 -0.1437  0.6820
 2894TIP3    H1 8639   6.075   4.361   6.469 -1.5092 -0.7996  0.4496
 2894TIP3    H2 8640   6.161   4.292   6.365 -0.3734  0.3280  0.6172
 2895TIP3   OH2 8641   5.456   4.848   1.708  0.2447 -0.0370 -0.3132
 2895TIP3    H1 8642   5.392   4.804   1.764 -0.0093  0.3577 -0.2912
 2895TIP3    H2 8643   5.412   4.928   1.679 -0.2333 -0.9988 -2.3876
 2896TIP3   OH2 8644   3.652   4.231   2.962 -0.4889  0.0609  0.2218
 2896TIP3    H1 8645   3.726   4.224   3.022 -1.3528  0.3424  1.3541
 2896TIP3    H2 8646   3.619   4.320   2.975 -0.7052  0.1185 -0.6687
 2897TIP3   OH2 8647   1.219   3.525   0.307  0.6728  0.1217  0.4542
 2897TIP3    H1 8648   1.297   3.482   0.271 -0.8319 -3.3203  0.8295
 2897TIP3    H2 8649   1.214   3.493   0.397  0.2605  2.4962  1.3387
 2898TIP3   OH2 8650   6.958   4.139   3.644  0.5351  0.1625  0.0206
 2898TIP3    H1 8651   7.026   4.137   3.712  0.7199  2.0083 -0.0486
 2898TIP3    H2 8652   6.928   4.230   3.643 -3.1544 -0.8810  1.1859
 2899TIP3   OH2 8653   3.082   1.797   6.238  0.1584 -0.1043  0.3803
 2899TIP3    H1 8654   3.058   1.862   6.305 -2.3132  0.4179 -0.8897
 2899TIP3    H2 8655   3.030   1.821   6.162  2.1042 -1.3130 -1.4328
 2900TIP3   OH2 8656   4.178   6.831   0.705 -0.9916  0.5275 -0.2206
 2900TIP3    H1 8657   4.225   6.794   0.780 -1.4411  0.6325  0.1184
 2900TIP3    H2 8658   4.085   6.816   0.725 -1.0907 -0.2401 -1.1724
 2901TIP3   OH2 8659   6.597   0.128   0.544 -0.6880  0.2454 -0.5250
 2901TIP3    H1 8660   6.648   0.047   0.550 -0.2077  0.4838 -1.2062
 2901TIP3    H2 8661   6.654   0.188   0.495 -0.9528  1.0647  0.1501
 2902TIP3   OH2 8662   7.900   2.044   2.592 -0.2587  0.1631 -0.4857
 2902TIP3    H1 8663   7.961   1.972   2.609 -0.1823  0.4411  0.4696
 2902TIP3    H2 8664   7.957   2.119   2.572 -0.2871  0.3424  0.0872
 2903TIP3   OH2 8665   5.080   1.926   0.039  0.1675 -0.1346 -0.2083
 2903TIP3    H1 8666   5.141   1.965   0.101 -0.0946 -0.5221  0.3028
 2903TIP3    H2 8667   5.135   1.888  -0.029  0.4637  0.1694 -0.1389
 2904TIP3   OH2 8668   7.967   4.497   3.487  0.6880 -0.5370  0.4105
 2904TIP3    H1 8669   7.963   4.551   3.408  0.0116  0.5628  1.1607
 2904TIP3    H2 8670   7.969   4.407   3.455 -0.3783 -0.1380 -0.8377
 2905TIP3   OH2 8671   1.177   4.881   5.893  0.5520  0.0122 -0.0619
 2905TIP3    H1 8672   1.087   4.863   5.867  0.0222 -0.1683  1.7548
 2905TIP3    H2 8673   1.185   4.976   5.890  1.5480 -0.0226 -3.9327
 2906TIP3   OH2 8674   2.898   0.597   3.487  0.0229 -0.3322  0.0620
 2906TIP3    H1 8675   2.967   0.535   3.512 -0.8916 -1.4874 -0.1996
 2906TIP3    H2 8676   2.850   0.612   3.568  0.0142 -0.2738  0.0454
 2907TIP3   OH2 8677   1.910   3.317   5.332  0.3767 -1.1685 -0.0564
 2907TIP3    H1 8678   1.924   3.300   5.425  0.9452 -0.8988 -0.0875
 2907TIP3    H2 8679   1.962   3.251   5.287 -0.8255 -2.0442 -0.1987
 2908TIP3   OH2 8680   4.482   1.800   1.389 -0.4383 -0.8188 -0.0464
 2908TIP3    H1 8681   4.460   1.884   1.349 -1.1761 -0.1937  1.5485
 2908TIP3    H2 8682   4.574   1.809   1.414 -0.4570 -0.5585 -0.0664
 2909TIP3   OH2 8683   6.153   3.019   1.385  0.1938 -0.4185  0.3178
 2909TIP3    H1 8684   6.064   2.984   1.386  0.0659 -0.0896  0.7865
 2909TIP3    H2 8685   6.202   2.962   1.443 -0.8157  2.1545  4.1281
 2910TIP3   OH2 8686   4.413   0.906   2.993 -0.8557 -0.1497 -0.1173
 2910TIP3    H1 8687   4.451   0.859   3.067  2.6886  0.0119 -1.6457
 2910TIP3    H2 8688   4.422   0.846   2.919 -2.7810  0.3202 -0.7910
 2911TIP3   OH2 8689   5.921   1.762   0.472 -0.4198  0.9604  0.1038
 2911TIP3    H1 8690   5.874   1.843   0.493 -0.8634  0.7819 -0.1826
 2911TIP3    H2 8691   5.854   1.704   0.437  0.0116  0.6900 -0.2914
 2912TIP3   OH2 8692   5.152   7.320   5.484  0.0859  0.4815  0.3196
 2912TIP3    H1 8693   5.243   7.318   5.456  0.2689  0.5348  0.9059
 2912TIP3    H2 8694   5.129   7.413   5.488  0.1140  0.4804  0.5168
 2913TIP3   OH2 8695   7.354   0.493   6.368 -0.2821  0.1072  0.0305
 2913TIP3    H1 8696   7.371   0.577   6.324 -0.1886  0.3230  0.4708
 2913TIP3    H2 8697   7.295   0.516   6.441  0.8656  0.0264  1.0200
 2914TIP3   OH2 8698   7.652   3.695   1.142  0.1041  0.7897 -0.2885
 2914TIP3    H1 8699   7.644   3.768   1.080  2.7987  1.6796  0.2594
 2914TIP3    H2 8700   7.736   3.710   1.186  0.2041 -2.0309  0.6970
 2915TIP3   OH2 8701   7.234   3.123   1.333 -0.4418  0.4861 -0.2988
 2915TIP3    H1 8702   7.296   3.057   1.303  0.4258  1.4491 -0.7036
 2915TIP3    H2 8703   7.152   3.075   1.349  0.8067 -1.1220  1.8194
 2916TIP3   OH2 8704   7.176   2.407   2.464 -0.6494 -0.3150  0.3394
 2916TIP3    H1 8705   7.204   2.446   2.547 -1.7039 -0.8549  0.9601
 2916TIP3    H2 8706   7.193   2.314   2.474  0.2537 -0.2521 -0.4876
 2917TIP3   OH2 8707   7.944   2.874   3.252 -0.2021 -0.0919 -0.1700
 2917TIP3    H1 8708   7.996   2.802   3.215 -0.5795 -1.6942  2.1835
 2917TIP3    H2 8709   7.878   2.893   3.185  1.1474 -0.5008 -1.6958
 2918TIP3   OH2 8710   0.183   3.931   4.742 -0.2364  0.2758  0.2710
 2918TIP3    H1 8711   0.197   4.015   4.786 -0.0044  0.7730 -0.7157
 2918TIP3    H2 8712   0.172   3.954   4.650  1.3539 -0.8989 -0.2544
 2919TIP3   OH2 8713   4.485   1.640   4.608  0.5179  0.2893 -0.6167
 2919TIP3    H1 8714   4.520   1.593   4.683 -3.1262 -1.0371  0.4613
 2919TIP3    H2 8715   4.551   1.630   4.540  2.3381 -1.5840  1.2887
 2920TIP3   OH2 8716   4.896   6.604   6.480 -0.4218  0.4109 -0.0919
 2920TIP3    H1 8717   4.850   6.667   6.536 -0.4022 -1.1260  1.7675
 2920TIP3    H2 8718   4.842   6.597   6.402 -0.1488  3.0641 -0.5873
 2921TIP3   OH2 8719   5.009   0.251   5.568  0.1728 -0.2344 -0.1073
 2921TIP3    H1 8720   5.038   0.261   5.478 -1.2873  0.5598 -0.5138
 2921TIP3    H2 8721   5.070   0.305   5.619 -1.1412  2.3403 -1.0656
 2922TIP3   OH2 8722   2.464   3.919   2.337  0.1149 -0.6168  0.1217
 2922TIP3    H1 8723   2.374   3.934   2.308  0.2683  0.3579  0.1106
 2922TIP3    H2 8724   2.456   3.894   2.429 -0.0315  2.7429  1.1539
 2923TIP3   OH2 8725   5.132   4.460   2.493 -0.2332  0.1891 -0.2111
 2923TIP3    H1 8726   5.145   4.504   2.409  0.0502 -0.5513 -0.5558
 2923TIP3    H2 8727   5.063   4.396   2.477  0.2912 -0.4214 -0.0546
 2924TIP3   OH2 8728   5.539   2.362   4.721 -0.2465  0.6635 -0.1563
 2924TIP3    H1 8729   5.622   2.315   4.723  0.2267  1.4986  1.7420
 2924TIP3    H2 8730   5.562   2.452   4.744 -1.2647  1.6707 -2.7053
 2925TIP3   OH2 8731   1.902   3.960   1.698  0.5207 -0.5909 -0.2588
 2925TIP3    H1 8732   1.912   4.054   1.707 -1.9899 -0.1963 -0.8307
 2925TIP3    H2 8733   1.927   3.942   1.607 -0.7571 -0.1385 -0.7257
 2926TIP3   OH2 8734   4.275   0.891   4.483  0.0224 -0.0253 -0.2306
 2926TIP3    H1 8735   4.333   0.815   4.476  0.9269  0.7154 -0.8901
 2926TIP3    H2 8736   4.205   0.873   4.421  1.1199  0.4390 -1.6527
 2927TIP3   OH2 8737   2.103   0.487   1.274 -0.3231 -0.3905  0.0209
 2927TIP3    H1 8738   2.022   0.470   1.323  0.9138  1.1007  2.8797
 2927TIP3    H2 8739   2.131   0.401   1.243 -1.1509 -1.5006  2.1230
 2928TIP3   OH2 8740   1.849   0.711   2.835  0.6610 -0.3705 -0.3800
 2928TIP3    H1 8741   1.841   0.805   2.849  1.4989 -0.3261 -0.1721
 2928TIP3    H2 8742   1.758   0.680   2.831  0.3815  0.3334  0.2597
 2929TIP3   OH2 8743   2.902   6.729   3.397 -0.2362  0.3516  0.7395
 2929TIP3    H1 8744   2.991   6.744   3.365 -0.9277  2.2106 -0.5011
 2929TIP3    H2 8745   2.875   6.813   3.434 -1.2603 -0.3753  1.7147
 2930TIP3   OH2 8746   1.412   0.345   5.669  0.0937 -0.5463  0.3087
 2930TIP3    H1 8747   1.420   0.351   5.574 -1.3113 -3.5882 -0.1265
 2930TIP3    H2 8748   1.330   0.390   5.689 -1.3656 -2.7037 -0.4586
 2931TIP3   OH2 8749   4.443   5.154   6.727 -0.4616 -0.9344  0.2978
 2931TIP3    H1 8750   4.487   5.113   6.802 -0.1131 -2.1291 -0.5380
 2931TIP3    H2 8751   4.391   5.084   6.688  0.2615 -0.6568 -1.2579
 2932TIP3   OH2 8752   1.877   7.479   1.111 -0.3718  0.4601 -0.0579
 2932TIP3    H1 8753   1.935   7.527   1.170  0.8743 -0.5399 -0.4218
 2932TIP3    H2 8754   1.828   7.546   1.065  0.4800  1.3357  0.2863
 2933TIP3   OH2 8755   6.964   1.403   2.639  0.0464 -1.0878 -0.3387
 2933TIP3    H1 8756   6.878   1.392   2.599  0.9329 -2.2986 -2.1127
 2933TIP3    H2 8757   7.019   1.437   2.568  0.9766 -0.0248  0.8385
 2934TIP3   OH2 8758   4.434   1.838   4.085  0.2070 -0.0289 -0.0813
 2934TIP3    H1 8759   4.429   1.828   4.180  1.3961  1.1975  0.1410
 2934TIP3    H2 8760   4.443   1.932   4.071 -1.2596 -0.0532 -1.5058
 2935TIP3   OH2 8761   7.251   6.631   3.212  0.0486  0.1538  0.1062
 2935TIP3    H1 8762   7.203   6.708   3.182  1.2025  0.6284 -0.6281
 2935TIP3    H2 8763   7.322   6.621   3.148 -0.6501 -2.1303 -0.3942
 2936TIP3   OH2 8764   0.212   4.032   4.496 -0.0830 -0.7720  0.3868
 2936TIP3    H1 8765   0.200   4.126   4.482 -3.3563 -1.2862 -1.1454
 2936TIP3    H2 8766   0.268   4.004   4.423  0.5418 -0.0970  0.5960
 2937TIP3   OH2 8767   1.236   1.634   6.517 -0.0165  0.6005  0.2077
 2937TIP3    H1 8768   1.283   1.554   6.492 -0.2714  0.4793  0.1168
 2937TIP3    H2 8769   1.235   1.687   6.438 -1.6021 -0.1584 -0.3208
 2938TIP3   OH2 8770   5.085   5.573   1.950  0.0922  0.1974  0.1547
 2938TIP3    H1 8771   5.101   5.625   2.029 -0.5875 -1.1991  1.2499
 2938TIP3    H2 8772   5.000   5.532   1.964 -1.1912  1.7004 -2.3375
 2939TIP3   OH2 8773   0.759   1.839   4.216  0.3851  0.6213 -0.3118
 2939TIP3    H1 8774   0.810   1.758   4.218  0.5700  0.7367  1.2474
 2939TIP3    H2 8775   0.672   1.812   4.187  0.2711 -0.2704  0.7805
 2940TIP3   OH2 8776   4.529   7.476   4.694 -0.3517 -0.0271  0.4208
 2940TIP3    H1 8777   4.448   7.526   4.686  0.9772  2.5056  1.5732
 2940TIP3    H2 8778   4.596   7.541   4.715  2.2301 -1.8292 -1.4685
 2941TIP3   OH2 8779   0.058   0.295   5.104 -0.4467 -0.0262  0.8451
 2941TIP3    H1 8780   0.017   0.292   5.017 -0.6543  0.8625  0.9019
 2941TIP3    H2 8781   0.067   0.388   5.123 -1.8199 -0.1853  2.4574
 2942TIP3   OH2 8782   2.504   3.620   2.200 -0.3018 -0.7204 -0.3665
 2942TIP3    H1 8783   2.421   3.572   2.205 -0.1838 -0.7710  2.0577
 2942TIP3    H2 8784   2.571   3.556   2.220  0.0073  0.0269  1.1282
 2943TIP3   OH2 8785   2.416   7.321   5.033  0.1770 -0.1131  0.0354
 2943TIP3    H1 8786   2.414   7.406   5.077  1.6913 -0.0255 -0.0162
 2943TIP3    H2 8787   2.499   7.321   4.985  0.7573 -2.0737  0.9538
 2944TIP3   OH2 8788   1.627   0.251   1.414  0.0233 -0.2759 -0.2346
 2944TIP3    H1 8789   1.642   0.345   1.412 -0.7772 -0.1433 -0.3871
 2944TIP3    H2 8790   1.532   0.242   1.419  0.0966 -1.0746 -0.1182
 2945TIP3   OH2 8791   7.560   7.607   2.037 -0.3034 -0.4223 -0.0958
 2945TIP3    H1 8792   7.625   7.632   2.103 -1.1930 -0.8135  0.9766
 2945TIP3    H2 8793   7.607   7.549   1.977  0.4080 -0.4740  0.4960
 2946TIP3   OH2 8794   7.785   5.884   6.439 -0.3073  0.3178  0.3617
 2946TIP3    H1 8795   7.709   5.826   6.440 -0.5169  0.5423  2.2806
 2946TIP3    H2 8796   7.748   5.972   6.428 -0.4268  0.4841  1.8398
 2947TIP3   OH2 8797   7.635   2.246   1.413  0.3777  0.2192  0.3599
 2947TIP3    H1 8798   7.706   2.214   1.470  1.6853 -1.0078 -1.8125
 2947TIP3    H2 8799   7.626   2.338   1.437  1.8225  0.0990  1.5823
 2948TIP3   OH2 8800   7.216   6.656   5.600  0.4080  0.3154  0.2610
 2948TIP3    H1 8801   7.228   6.568   5.636 -0.4484 -0.3066 -0.9188
 2948TIP3    H2 8802   7.122   6.663   5.584  0.6455  0.8979 -0.9852
 2949TIP3   OH2 8803   7.850   2.577   3.419 -0.4832  0.0819  0.3395
 2949TIP3    H1 8804   7.900   2.620   3.349 -0.4008  1.3271  1.1422
 2949TIP3    H2 8805   7.879   2.486   3.416  0.7966  0.4816 -0.1276
 2950TIP3   OH2 8806   2.916   3.279   3.808  0.6132 -0.4240  0.6905
 2950TIP3    H1 8807   2.915   3.373   3.792  1.9889 -0.3942  0.6526
 2950TIP3    H2 8808   2.904   3.271   3.902 -0.0927 -0.2571  0.6255
 2951TIP3   OH2 8809   1.309   1.400   4.853 -0.7188 -0.2259  0.1933
 2951TIP3    H1 8810   1.248   1.384   4.781 -0.5350 -0.8163  0.1603
 2951TIP3    H2 8811   1.344   1.313   4.874 -0.1237  0.0632  0.4159
 2952TIP3   OH2 8812   1.650   0.440   5.133 -0.5706 -0.0277  0.9613
 2952TIP3    H1 8813   1.643   0.526   5.092 -2.1598 -0.0958  1.0134
 2952TIP3    H2 8814   1.645   0.458   5.227 -2.1942 -0.2290  0.9474
 2953TIP3   OH2 8815   5.696   4.498   4.463  0.2763 -0.3482 -0.2004
 2953TIP3    H1 8816   5.781   4.490   4.505  0.8928 -0.3478 -1.4223
 2953TIP3    H2 8817   5.704   4.451   4.380 -1.2005 -1.1381  0.0590
 2954TIP3   OH2 8818   7.714   4.676   0.606  0.1212 -0.1994  0.1259
 2954TIP3    H1 8819   7.724   4.620   0.529 -0.4654 -2.1357  1.3950
 2954TIP3    H2 8820   7.628   4.717   0.595  0.3459  0.0847 -0.5851
 2955TIP3   OH2 8821   3.668   4.745   6.261 -0.3782  0.0712  0.1797
 2955TIP3    H1 8822   3.607   4.690   6.310 -0.5728  1.6667  1.8386
 2955TIP3    H2 8823   3.754   4.720   6.294 -0.4527  0.5617  0.7788
 2956TIP3   OH2 8824   6.363   3.345   0.997  0.4737  0.8228 -0.2477
 2956TIP3    H1 8825   6.280   3.384   1.023 -1.1494 -1.0137 -2.2846
 2956TIP3    H2 8826   6.390   3.394   0.920  1.0464  1.1016  0.1234
 2957TIP3   OH2 8827   8.224   7.262   1.158 -0.4781  0.2290 -0.0584
 2957TIP3    H1 8828   8.276   7.189   1.125 -0.0005 -0.8689  2.8506
 2957TIP3    H2 8829   8.145   7.221   1.193 -1.1771  1.3712 -0.2503
 2958TIP3   OH2 8830   2.074   6.414   4.810 -0.0651  0.2696 -0.3724
 2958TIP3    H1 8831   2.066   6.509   4.824 -0.9858  0.1984 -0.3277
 2958TIP3    H2 8832   2.059   6.376   4.897 -2.6564 -0.0268 -0.8502
 2959TIP3   OH2 8833   2.063   1.576   3.470  0.4652 -0.2370  0.0309
 2959TIP3    H1 8834   2.003   1.508   3.500  1.4344 -2.8901 -3.4231
 2959TIP3    H2 8835   2.021   1.612   3.392  2.4086 -0.7846 -1.3262
 2960TIP3   OH2 8836   3.755   6.150   2.508  0.2871 -0.4342 -0.2582
 2960TIP3    H1 8837   3.754   6.243   2.486 -1.5045 -0.2206  0.5923
 2960TIP3    H2 8838   3.680   6.137   2.565  1.7243 -1.9988  1.4327
 2961TIP3   OH2 8839   5.005   1.254   6.579 -0.2069  0.5556 -0.0024
 2961TIP3    H1 8840   5.001   1.193   6.653  0.0735 -0.8706 -1.1307
 2961TIP3    H2 8841   4.963   1.207   6.507 -1.2131  2.2440 -0.5647
 2962TIP3   OH2 8842   3.699   1.173   2.951  0.2496 -0.1008 -0.3497
 2962TIP3    H1 8843   3.651   1.188   2.869 -0.0993  1.1772  0.0676
 2962TIP3    H2 8844   3.785   1.143   2.923  0.2129  0.5482 -1.1932
 2963TIP3   OH2 8845   1.550   6.773   3.372 -0.0613 -0.0571 -0.0036
 2963TIP3    H1 8846   1.527   6.737   3.458  0.5952  0.9553  0.6259
 2963TIP3    H2 8847   1.645   6.785   3.376 -0.0669  0.2846 -0.7668
 2964TIP3   OH2 8848   3.689   3.951   0.570 -0.0878 -0.0957 -0.2372
 2964TIP3    H1 8849   3.610   3.919   0.613 -0.9535 -0.7562 -2.2123
 2964TIP3    H2 8850   3.749   3.970   0.642 -2.0649  0.5678  1.3215
 2965TIP3   OH2 8851   0.959   4.520   5.684 -0.1203 -0.3049  0.6505
 2965TIP3    H1 8852   0.997   4.472   5.611  0.8997 -1.7173  2.0275
 2965TIP3    H2 8853   0.868   4.490   5.688 -0.0353 -0.6181  0.2808
 2966TIP3   OH2 8854   6.591   1.634   6.543 -0.2381  0.2625  0.7277
 2966TIP3    H1 8855   6.663   1.612   6.601 -0.2616 -0.3901  0.5219
 2966TIP3    H2 8856   6.593   1.730   6.537  1.1049  0.2183  0.1049
 2967TIP3   OH2 8857   2.457   1.020   4.833  0.3524  0.3621 -0.0570
 2967TIP3    H1 8858   2.493   1.041   4.919  0.7316 -0.5269  0.0030
 2967TIP3    H2 8859   2.391   1.088   4.818  1.7003  1.7407  0.0354
 2968TIP3   OH2 8860   2.253   0.657   0.527  0.0919 -0.1380 -0.1879
 2968TIP3    H1 8861   2.266   0.619   0.440 -0.0267 -0.7402  0.0566
 2968TIP3    H2 8862   2.293   0.744   0.521 -0.9366  0.3050 -1.2109
 2969TIP3   OH2 8863   3.128   3.530   4.296 -0.4480  0.3131 -0.5007
 2969TIP3    H1 8864   3.145   3.446   4.338 -0.5418  0.0718 -0.9443
 2969TIP3    H2 8865   3.125   3.510   4.203 -0.9409  0.7335 -0.5751
 2970TIP3   OH2 8866   1.053   4.170   4.767 -0.5652 -0.1669 -0.3282
 2970TIP3    H1 8867   1.059   4.263   4.790 -2.5743  0.3822 -1.7779
 2970TIP3    H2 8868   1.008   4.131   4.842  0.9452 -0.1669  0.6263
 2971TIP3   OH2 8869   2.416   0.819   5.108 -0.0173  0.3894 -0.3143
 2971TIP3    H1 8870   2.397   0.769   5.187 -2.7791  1.9051  0.1192
 2971TIP3    H2 8871   2.472   0.762   5.056 -1.6106 -2.4476  0.8591
 2972TIP3   OH2 8872   7.126   7.463   0.734 -0.4180  0.4419  0.5528
 2972TIP3    H1 8873   7.193   7.403   0.702 -1.2972 -0.2143 -0.0875
 2972TIP3    H2 8874   7.083   7.415   0.805 -1.4786  0.0861 -0.3167
 2973TIP3   OH2 8875   5.847   3.240   2.532  0.0033  0.0815  0.7343
 2973TIP3    H1 8876   5.824   3.314   2.477 -0.3569 -0.6654 -0.1477
 2973TIP3    H2 8877   5.775   3.233   2.595 -1.4415 -1.2329 -0.9693
 2974TIP3   OH2 8878   4.015   1.265   4.043 -0.1897  0.1022 -0.7205
 2974TIP3    H1 8879   4.063   1.184   4.026  0.5112  0.2536  0.3605
 2974TIP3    H2 8880   4.081   1.334   4.031 -1.1208  0.6650 -3.0227
 2975TIP3   OH2 8881   4.259   4.601   6.106  0.8539 -0.2431  0.2242
 2975TIP3    H1 8882   4.302   4.591   6.190  1.3475 -1.2990 -0.1347
 2975TIP3    H2 8883   4.166   4.613   6.127  0.7165 -2.1296  0.8903
 2976TIP3   OH2 8884   6.986   1.422   2.936  0.6893  0.4786 -0.3775
 2976TIP3    H1 8885   6.985   1.427   2.840 -0.4667  2.5305 -0.3296
 2976TIP3    H2 8886   7.045   1.492   2.963  1.2418 -0.2844  0.4153
 2977TIP3   OH2 8887   7.911   2.805   0.908 -0.3575  0.0443  0.3801
 2977TIP3    H1 8888   7.990   2.857   0.894  0.4117 -0.8271  1.3203
 2977TIP3    H2 8889   7.839   2.864   0.884  0.4128  1.9724  2.4445
 2978TIP3   OH2 8890   2.174   1.732   0.030  0.5468 -0.8643 -0.5290
 2978TIP3    H1 8891   2.110   1.690  -0.028 -1.4212  0.6725  0.4393
 2978TIP3    H2 8892   2.156   1.697   0.116 -0.6670  1.2904  0.1776
 2979TIP3   OH2 8893   5.682   6.305   4.189  0.5220  0.1152 -0.5197
 2979TIP3    H1 8894   5.664   6.214   4.213 -0.7830  0.5781  0.3638
 2979TIP3    H2 8895   5.721   6.299   4.102  0.6527 -1.2994 -0.3951
 2980TIP3   OH2 8896   3.279   4.119   3.193  0.2381  0.6574 -0.2126
 2980TIP3    H1 8897   3.335   4.060   3.143 -0.0094 -0.2586  0.5667
 2980TIP3    H2 8898   3.327   4.202   3.194 -0.7206  1.4451 -3.8299
 2981TIP3   OH2 8899   8.184   3.649   1.756  0.2645 -0.4515 -0.3316
 2981TIP3    H1 8900   8.177   3.567   1.707  0.9051 -0.4122 -0.4985
 2981TIP3    H2 8901   8.186   3.622   1.848  0.1408 -0.6013 -0.3733
 2982TIP3   OH2 8902   4.573   6.279   0.120  0.0206  0.1264 -0.2646
 2982TIP3    H1 8903   4.660   6.302   0.087 -0.8828  0.7399 -2.3651
 2982TIP3    H2 8904   4.566   6.326   0.203  1.2556  0.9787 -0.6141
 2983TIP3   OH2 8905   2.413   1.669   5.830  0.3471  0.3141  0.0061
 2983TIP3    H1 8906   2.332   1.664   5.880  0.3816  1.7583  0.2508
 2983TIP3    H2 8907   2.481   1.682   5.896  0.6373  0.2607 -0.2772
 2984TIP3   OH2 8908   3.394   4.785   1.550 -0.7208  0.3799  0.7472
 2984TIP3    H1 8909   3.475   4.834   1.544 -1.3794  1.3532 -0.7646
 2984TIP3    H2 8910   3.329   4.841   1.507 -2.2667 -0.2199  2.2054
 2985TIP3   OH2 8911   0.799   4.945   0.172 -0.3021  0.0377 -0.0389
 2985TIP3    H1 8912   0.859   5.012   0.141  1.9019 -1.9440 -0.3056
 2985TIP3    H2 8913   0.807   4.874   0.109  0.2489 -1.9315  2.1034
 2986TIP3   OH2 8914   7.707   0.473   5.917  0.1904 -0.3812  0.3807
 2986TIP3    H1 8915   7.765   0.481   5.841 -0.0481 -2.2100 -0.0561
 2986TIP3    H2 8916   7.763   0.436   5.986 -0.0088 -0.3727  0.5480
 2987TIP3   OH2 8917   1.764   7.316   3.653 -0.9230 -0.5467  0.5722
 2987TIP3    H1 8918   1.707   7.347   3.583 -1.1771 -1.4762  0.3616
 2987TIP3    H2 8919   1.837   7.274   3.609  0.1299  0.9241  0.8344
 2988TIP3   OH2 8920   7.223   3.635   1.905 -0.2953  0.2438 -0.1258
 2988TIP3    H1 8921   7.218   3.580   1.984  1.9771 -1.6286 -1.1875
 2988TIP3    H2 8922   7.132   3.656   1.886 -0.9195  2.1153  3.8303
 2989TIP3   OH2 8923   7.096   2.279   3.194 -0.2075 -0.0418 -0.2749
 2989TIP3    H1 8924   7.081   2.277   3.099 -0.7764  0.3970 -0.1977
 2989TIP3    H2 8925   7.190   2.262   3.203 -0.5161 -2.3411 -0.7905
 2990TIP3   OH2 8926   2.136   5.395   2.370  0.0840 -0.2374  0.0662
 2990TIP3    H1 8927   2.149   5.311   2.327 -1.5273 -1.3688  1.6616
 2990TIP3    H2 8928   2.206   5.399   2.436  1.0625  0.4003 -0.9620
 2991TIP3   OH2 8929   6.957   6.146   5.014  0.4527  0.2661 -0.2913
 2991TIP3    H1 8930   6.929   6.193   5.093  1.3142  1.5781 -0.7347
 2991TIP3    H2 8931   6.997   6.066   5.046  2.1732  1.4825  0.7240
 2992TIP3   OH2 8932   4.641   4.930   4.567  0.1826  0.1848 -0.2518
 2992TIP3    H1 8933   4.665   4.913   4.476  2.1387 -0.3114  0.3104
 2992TIP3    H2 8934   4.546   4.936   4.566  0.1951  0.8242 -2.4263
 2993TIP3   OH2 8935   6.276   5.040   5.690  0.7617 -1.0099 -0.1046
 2993TIP3    H1 8936   6.328   5.056   5.610 -1.0202  0.8965 -0.9676
 2993TIP3    H2 8937   6.322   5.089   5.758  1.2882 -1.1356 -0.3611
 2994TIP3   OH2 8938   3.874   0.860   5.110 -0.1849  0.0706 -0.5042
 2994TIP3    H1 8939   3.910   0.948   5.118 -1.8774  0.8268 -0.7446
 2994TIP3    H2 8940   3.909   0.827   5.028  0.9858  0.2480 -0.0888
 2995TIP3   OH2 8941   2.073   6.334   5.746 -0.0227  0.1721 -0.2221
 2995TIP3    H1 8942   2.048   6.407   5.690  0.2525 -2.2869 -3.9085
 2995TIP3    H2 8943   1.997   6.276   5.744  0.3181 -0.3839  1.3954
 2996TIP3   OH2 8944   5.175   2.856   0.355  0.0785  0.3261 -0.0535
 2996TIP3    H1 8945   5.211   2.768   0.361 -0.7966 -0.0707 -0.5757
 2996TIP3    H2 8946   5.119   2.865   0.432 -1.1559 -0.1902 -0.8746
 2997TIP3   OH2 8947   1.591   4.041   2.364  0.4343 -0.1709  0.1504
 2997TIP3    H1 8948   1.680   4.033   2.330  0.5712 -1.9381  0.8378
 2997TIP3    H2 8949   1.558   3.952   2.367 -1.2312  0.4214  0.2846
 2998TIP3   OH2 8950   6.302   0.269   0.426  0.1284 -0.6781 -0.6146
 2998TIP3    H1 8951   6.328   0.181   0.452 -0.6193 -0.4976  0.8351
 2998TIP3    H2 8952   6.208   0.273   0.447  0.4355  0.8938  0.6334
 2999TIP3   OH2 8953   5.606   2.676   1.293 -0.2703 -0.1380  0.2463
 2999TIP3    H1 8954   5.688   2.641   1.258 -0.6794 -0.9407  0.0700
 2999TIP3    H2 8955   5.623   2.686   1.387 -0.7463 -2.7249  0.6946
 3000TIP3   OH2 8956   6.694   4.442   5.659  0.2959 -0.3893 -0.2044
 3000TIP3    H1 8957   6.615   4.389   5.652 -1.1676  1.6468 -0.1299
 3000TIP3    H2 8958   6.674   4.522   5.610  1.9446  0.5909  0.6214
 3001TIP3   OH2 8959   0.117   7.477   1.819 -0.5025 -0.4750 -0.0032
 3001TIP3    H1 8960   0.053   7.432   1.875 -0.1450 -2.4550 -1.0852
 3001TIP3    H2 8961   0.192   7.417   1.816 -0.3654 -0.2534 -2.2573
 3002TIP3   OH2 8962   7.816   6.259   0.810  0.3825 -0.4562  0.2263
 3002TIP3    H1 8963   7.864   6.298   0.883  0.5976  1.0412 -0.6834
 3002TIP3    H2 8964   7.884   6.237   0.745 -0.0487  0.9764 -0.7525
 3003TIP3   OH2 8965   0.792   1.721   5.708 -0.4360 -0.9100  0.6549
 3003TIP3    H1 8966   0.796   1.760   5.621 -0.5678 -0.5669  0.7986
 3003TIP3    H2 8967   0.818   1.630   5.696  1.2379 -0.4330  0.5279
 3004TIP3   OH2 8968   3.085   4.290   3.505  0.1881 -0.0788  0.6734
 3004TIP3    H1 8969   3.163   4.235   3.505  0.9022  0.8392  2.4850
 3004TIP3    H2 8970   3.012   4.230   3.522  0.9179 -0.5513  2.3362
 3005TIP3   OH2 8971   3.779   3.386   1.382 -0.5381 -0.1887 -0.2236
 3005TIP3    H1 8972   3.797   3.473   1.417  0.0965 -0.8606  1.1731
 3005TIP3    H2 8973   3.866   3.348   1.365 -0.7084 -1.3064  1.1628
 3006TIP3   OH2 8974   3.125   0.361   0.965 -0.0997 -0.4413  0.4251
 3006TIP3    H1 8975   3.151   0.393   1.051  0.4740  1.3734 -0.3637
 3006TIP3    H2 8976   3.203   0.373   0.910 -1.3919  1.5959 -1.1113
 3007TIP3   OH2 8977   8.199   5.879   2.087  0.0690  0.1658  0.0282
 3007TIP3    H1 8978   8.107   5.901   2.099 -0.1879 -1.7497  2.3506
 3007TIP3    H2 8979   8.201   5.783   2.095  2.2695  0.1862  0.1846
 3008TIP3   OH2 8980   1.721   5.877   1.551 -0.0632  0.3104  0.0140
 3008TIP3    H1 8981   1.698   5.969   1.542 -0.7166  0.1508  0.0340
 3008TIP3    H2 8982   1.792   5.876   1.615  0.7754  0.9092 -0.8722
 3009TIP3   OH2 8983   4.024   7.307   3.707  0.4442  0.0050 -0.2819
 3009TIP3    H1 8984   4.049   7.310   3.800 -1.3843  1.4621  0.2377
 3009TIP3    H2 8985   3.998   7.397   3.687 -0.9973 -0.6744 -1.6687
 3010TIP3   OH2 8986   4.331   4.233   1.819  0.4343  0.5026  0.5547
 3010TIP3    H1 8987   4.354   4.243   1.726 -1.2839  1.5366  0.2064
 3010TIP3    H2 8988   4.363   4.146   1.842  1.6067  0.5440 -0.7755
 3011TIP3   OH2 8989   7.883   4.173   0.475 -0.1030 -0.4560  0.2936
 3011TIP3    H1 8990   7.864   4.101   0.415  0.5549 -0.5756  0.2241
 3011TIP3    H2 8991   7.800   4.218   0.485 -0.7053 -1.6470  0.9001
 3012TIP3   OH2 8992   0.912   4.572   0.664 -0.0840  0.6933 -0.9266
 3012TIP3    H1 8993   1.003   4.582   0.690  0.1032 -1.5879 -0.4947
 3012TIP3    H2 8994   0.863   4.623   0.728  0.7226 -0.6289  0.8289
 3013TIP3   OH2 8995   4.190   5.517   1.002 -0.1130  0.1689 -0.3752
 3013TIP3    H1 8996   4.144   5.588   1.046  0.6134  0.1170  0.5006
 3013TIP3    H2 8997   4.213   5.456   1.072  0.0322 -0.5057 -0.9971
 3014TIP3   OH2 8998   2.990   6.186   3.853  0.0535 -0.1060 -0.2147
 3014TIP3    H1 8999   2.899   6.156   3.851 -0.0801  0.2574  0.3113
 3014TIP3    H2 9000   2.994   6.253   3.785 -0.2110  0.2577  0.1225
 3015TIP3   OH2 9001   7.726   0.970   2.167 -0.0944  0.0938  0.1235
 3015TIP3    H1 9002   7.753   1.052   2.126 -0.7990 -0.4428 -1.5405
 3015TIP3    H2 9003   7.793   0.951   2.232  1.5987  0.5727 -1.4176
 3016TIP3   OH2 9004   4.593   2.994   0.093  0.6237  0.4728  0.5012
 3016TIP3    H1 9005   4.542   2.924   0.133 -0.5169  2.4004  2.6316
 3016TIP3    H2 9006   4.550   3.011   0.009 -0.7134  0.3983  1.1615
 3017TIP3   OH2 9007   5.576   7.611   4.675 -0.1252 -0.4811  0.7074
 3017TIP3    H1 9008   5.591   7.584   4.766 -2.0338 -0.5831  1.0196
 3017TIP3    H2 9009   5.513   7.548   4.641  1.0388 -0.8395 -0.9365
 3018TIP3   OH2 9010   6.533   0.935   1.193 -0.1243  0.3865 -0.3797
 3018TIP3    H1 9011   6.471   1.001   1.223  1.3226  2.6270 -2.0265
 3018TIP3    H2 9012   6.501   0.853   1.232 -3.9391  1.3949 -0.9780
 3019TIP3   OH2 9013   4.336   4.475   4.923 -0.0502  0.2517  0.3902
 3019TIP3    H1 9014   4.278   4.527   4.867  0.7083 -0.1251 -0.7908
 3019TIP3    H2 9015   4.385   4.540   4.974  2.1359  0.9152 -2.3021
 3020TIP3   OH2 9016   6.606   1.988   3.084 -0.0376  0.3048 -0.2937
 3020TIP3    H1 9017   6.658   2.047   3.030  0.3795 -0.0215 -0.2610
 3020TIP3    H2 9018   6.671   1.943   3.138 -0.4964  1.1245  0.9839
 3021TIP3   OH2 9019   6.426   0.283   1.774 -0.6740 -0.4531  0.9656
 3021TIP3    H1 9020   6.513   0.251   1.749 -0.6164 -0.7025  1.4761
 3021TIP3    H2 9021   6.390   0.215   1.830 -1.7103 -0.9143 -0.2253
 3022TIP3   OH2 9022   0.992   0.886   2.005  0.7633  0.2650 -0.2574
 3022TIP3    H1 9023   1.031   0.852   2.086  1.1595 -0.8261 -0.8746
 3022TIP3    H2 9024   1.005   0.815   1.941 -0.5279  0.6568 -0.9878
 3023TIP3   OH2 9025   3.896   3.257   3.452 -0.5570  0.3056 -0.4583
 3023TIP3    H1 9026   3.923   3.336   3.499 -0.0388 -0.1044 -0.0461
 3023TIP3    H2 9027   3.921   3.273   3.361 -1.6592  1.1498 -0.6304
 3024TIP3   OH2 9028   0.706   2.272   4.543 -0.1217 -0.4674 -0.2037
 3024TIP3    H1 9029   0.692   2.202   4.607 -0.5464 -0.8766 -0.7366
 3024TIP3    H2 9030   0.713   2.226   4.459 -0.6570  0.1516 -0.5924
 3025TIP3   OH2 9031   7.934   5.608   2.266 -0.3821 -0.0945 -0.3329
 3025TIP3    H1 9032   7.972   5.561   2.341 -0.8915 -0.6661 -0.4378
 3025TIP3    H2 9033   7.930   5.699   2.296  2.6694  0.3492 -0.9054
 3026TIP3   OH2 9034   3.728   2.850   4.421  0.0935  0.1204  0.0567
 3026TIP3    H1 9035   3.685   2.894   4.348  0.9231 -0.5148 -0.8404
 3026TIP3    H2 9036   3.821   2.860   4.403  0.3259 -2.2516 -0.3871
 3027TIP3   OH2 9037   6.501   5.495   4.175  0.1314  0.4312  0.1124
 3027TIP3    H1 9038   6.522   5.417   4.124 -0.7986  1.0668 -1.3126
 3027TIP3    H2 9039   6.585   5.537   4.192  0.5394 -0.2917 -0.0995
 3028TIP3   OH2 9040   2.183   3.171   4.354  0.2193 -0.2805  0.3212
 3028TIP3    H1 9041   2.089   3.155   4.356  0.1928 -0.1149  0.3821
 3028TIP3    H2 9042   2.192   3.261   4.321  0.3522 -0.2645  0.4003
 3029TIP3   OH2 9043   4.291   4.551   0.985 -0.0968  0.4185  0.5168
 3029TIP3    H1 9044   4.368   4.605   1.002 -0.5677  0.9193  1.1234
 3029TIP3    H2 9045   4.257   4.583   0.902  0.7717 -0.3207 -0.1431
 3030TIP3   OH2 9046   2.235   2.236   0.279  0.0750 -0.1192  0.5411
 3030TIP3    H1 9047   2.283   2.242   0.361  1.8557 -0.9872 -0.3916
 3030TIP3    H2 9048   2.197   2.148   0.279 -1.1728  0.3881  1.0484
 3031TIP3   OH2 9049   2.338   7.788   5.718  0.3595  0.1690  0.0561
 3031TIP3    H1 9050   2.259   7.832   5.685 -0.1550 -0.4847  0.4047
 3031TIP3    H2 9051   2.338   7.806   5.812  0.0406 -0.7260  0.2336
 3032TIP3   OH2 9052   0.244   4.654   1.204  0.3510  0.2821  0.5268
 3032TIP3    H1 9053   0.269   4.652   1.297 -1.9686 -1.7510  1.2135
 3032TIP3    H2 9054   0.150   4.639   1.205  0.0208  1.6947 -2.1494
 3033TIP3   OH2 9055   4.276   4.620   3.461 -0.3144  0.2469 -0.3093
 3033TIP3    H1 9056   4.230   4.561   3.521  0.3533  2.2768  2.3859
 3033TIP3    H2 9057   4.209   4.683   3.434 -0.4412 -0.2505 -1.2169
 3034TIP3   OH2 9058   0.519   5.129   1.817  0.6054 -0.1158  0.2553
 3034TIP3    H1 9059   0.564   5.169   1.891  0.2414 -0.3658  0.6201
 3034TIP3    H2 9060   0.475   5.052   1.855  0.4988 -0.3024 -0.2392
 3035TIP3   OH2 9061   4.864   2.021   1.322  0.0966 -0.1251  0.0079
 3035TIP3    H1 9062   4.872   2.088   1.254 -1.4413  0.5080  0.4182
 3035TIP3    H2 9063   4.826   1.946   1.277 -0.3198  0.0730  0.0262
 3036TIP3   OH2 9064   1.354   6.344   5.211 -0.4336 -0.6044 -0.2946
 3036TIP3    H1 9065   1.324   6.435   5.208  0.4095 -0.2483  1.1956
 3036TIP3    H2 9066   1.306   6.300   5.140  0.2271  1.2952 -2.0012
 3037TIP3   OH2 9067   6.529   5.004   4.157  0.0793  0.0786  0.3044
 3037TIP3    H1 9068   6.563   5.083   4.115 -2.0061  1.1105  0.4212
 3037TIP3    H2 9069   6.464   5.036   4.219 -0.8579 -1.7339  0.3154
 3038TIP3   OH2 9070   2.676   3.575   4.833  0.2415  0.1597  0.1499
 3038TIP3    H1 9071   2.658   3.668   4.825  3.9267  1.0130  0.1246
 3038TIP3    H2 9072   2.639   3.537   4.753  0.8676  2.0202 -1.0867
 3039TIP3   OH2 9073   2.367   7.614   5.143 -0.0770  0.0101 -0.3801
 3039TIP3    H1 9074   2.313   7.642   5.217 -1.0432 -1.3671 -0.5377
 3039TIP3    H2 9075   2.336   7.668   5.070  1.3322  1.8555  0.2907
 3040TIP3   OH2 9076   1.995   5.294   6.095  0.2294  0.4604  0.1637
 3040TIP3    H1 9077   2.015   5.312   6.003  0.3250  1.1894  0.3181
 3040TIP3    H2 9078   1.924   5.354   6.116 -1.2018 -1.0960  0.0229
 3041TIP3   OH2 9079   2.225   7.723   6.556  0.0808  0.7537 -0.2970
 3041TIP3    H1 9080   2.192   7.751   6.471 -0.8646  0.5572 -0.0055
 3041TIP3    H2 9081   2.236   7.629   6.549 -0.0954  0.7227 -0.1743
 3042TIP3   OH2 9082   3.278   1.186   3.319 -0.2339 -0.4998  0.0037
 3042TIP3    H1 9083   3.214   1.122   3.351 -0.6782 -0.2074 -0.2872
 3042TIP3    H2 9084   3.350   1.134   3.286 -0.3670 -0.8368  0.2401
 3043TIP3   OH2 9085   4.924   1.616   3.782 -0.5096 -0.0505 -0.6586
 3043TIP3    H1 9086   5.003   1.628   3.834 -1.7295 -0.2775  1.3775
 3043TIP3    H2 9087   4.955   1.609   3.692  1.9714 -2.0242  0.2193
 3044TIP3   OH2 9088   5.822   7.758   5.562 -0.3942  0.0188 -0.1959
 3044TIP3    H1 9089   5.803   7.792   5.649 -0.6630  0.9716 -0.6176
 3044TIP3    H2 9090   5.842   7.665   5.576  1.1313  0.4949  1.0834
 3045TIP3   OH2 9091   3.111   7.643   0.303  0.0207 -0.4762 -0.0828
 3045TIP3    H1 9092   3.125   7.594   0.384 -0.5166 -0.8898 -0.2359
 3045TIP3    H2 9093   3.016   7.650   0.295  0.0842  0.4107 -0.1768
 3046TIP3   OH2 9094   2.672   2.605   1.144  0.7446 -0.9108 -0.0152
 3046TIP3    H1 9095   2.601   2.664   1.120 -0.7695 -2.2198  1.0759
 3046TIP3    H2 9096   2.728   2.658   1.201 -0.2749 -0.3516  0.4977
 3047TIP3   OH2 9097   3.946   1.945   3.550  0.1089  0.0596  0.0453
 3047TIP3    H1 9098   3.939   1.986   3.464  0.2233  0.7760  0.3732
 3047TIP3    H2 9099   3.959   2.018   3.610  0.2094 -0.4531  0.6499
 3048TIP3   OH2 9100   0.705   5.942   3.012  0.0224 -0.7169  1.0033
 3048TIP3    H1 9101   0.694   5.848   2.999  0.9723 -0.6092 -0.9172
 3048TIP3    H2 9102   0.635   5.982   2.960  0.9703 -0.3416 -0.0192
 3049TIP3   OH2 9103   3.307   6.483   1.874 -0.0678  0.5800 -0.1200
 3049TIP3    H1 9104   3.400   6.496   1.853  0.2080  2.0083  1.7717
 3049TIP3    H2 9105   3.295   6.526   1.958 -2.6823  1.2514 -0.7669
 3050TIP3   OH2 9106   3.547   7.595   6.051  0.8825  0.2246  0.2528
 3050TIP3    H1 9107   3.548   7.547   6.134  1.5930  1.2821  0.8830
 3050TIP3    H2 9108   3.512   7.681   6.074 -1.8840 -0.4088 -1.1395
 3051TIP3   OH2 9109   4.040   0.711   5.498  0.0910  0.0376  0.3466
 3051TIP3    H1 9110   3.962   0.762   5.476  0.1444 -0.5451 -1.3039
 3051TIP3    H2 9111   4.058   0.659   5.420  0.5614 -1.8635  1.6495
 3052TIP3   OH2 9112   1.863   5.722   5.462 -0.0622 -0.5099 -0.0810
 3052TIP3    H1 9113   1.872   5.710   5.557 -1.3556  1.2816  0.3151
 3052TIP3    H2 9114   1.946   5.763   5.436 -0.2517  0.3167  0.5561
 3053TIP3   OH2 9115   2.405   5.401   0.712  0.0324 -0.6962 -0.0594
 3053TIP3    H1 9116   2.415   5.339   0.784  0.6724 -0.4467  0.0728
 3053TIP3    H2 9117   2.316   5.433   0.721  0.7815  1.0471  2.0446
 3054TIP3   OH2 9118   3.718   5.883   2.419 -0.0520 -0.4196 -0.1353
 3054TIP3    H1 9119   3.720   5.901   2.325 -0.9357 -2.4866 -0.6016
 3054TIP3    H2 9120   3.674   5.958   2.458  1.3890  1.0343 -1.1900
 3055TIP3   OH2 9121   2.097   5.026   2.423 -0.0148  0.3952 -0.3880
 3055TIP3    H1 9122   2.137   4.952   2.469 -0.2105  0.7061  0.2995
 3055TIP3    H2 9123   2.024   5.052   2.479 -0.3656  0.6756 -0.9703
 3056TIP3   OH2 9124   0.226   3.979   1.939 -0.1581 -0.0497 -0.2578
 3056TIP3    H1 9125   0.156   4.044   1.925 -0.5889  0.0748  2.0104
 3056TIP3    H2 9126   0.239   3.939   1.854  1.2485  4.0678 -2.2387
 3057TIP3   OH2 9127   5.607   3.923   5.830 -0.1776  0.9850  0.5148
 3057TIP3    H1 9128   5.602   3.871   5.751 -0.8265 -0.9025  1.7364
 3057TIP3    H2 9129   5.701   3.935   5.845  0.0940 -1.4488  1.1613
 3058TIP3   OH2 9130   4.771   5.415   3.332 -0.0186 -0.8961 -0.2428
 3058TIP3    H1 9131   4.701   5.480   3.328 -1.1737 -2.1336 -1.3472
 3058TIP3    H2 9132   4.741   5.351   3.397  0.5365 -0.9605 -0.0423
 3059TIP3   OH2 9133   3.356   4.213   3.541  0.2524 -0.0384 -0.3091
 3059TIP3    H1 9134   3.405   4.256   3.611  1.5144 -0.3476 -0.9630
 3059TIP3    H2 9135   3.307   4.143   3.585 -1.0557  1.3997  0.6152
 3060TIP3   OH2 9136   2.906   7.173   3.654  0.0007  0.0179 -0.4984
 3060TIP3    H1 9137   2.975   7.115   3.686 -1.0715 -1.7731 -1.2904
 3060TIP3    H2 9138   2.938   7.261   3.673  2.6268 -0.7356 -1.0683
 3061TIP3   OH2 9139   0.609   0.287   0.127 -0.1615 -0.8712 -0.0150
 3061TIP3    H1 9140   0.699   0.306   0.152 -1.1680  2.7355  1.5713
 3061TIP3    H2 9141   0.610   0.285   0.031  1.6210 -1.2671 -0.0165
 3062TIP3   OH2 9142   2.348   3.214   0.504  0.1469  0.3468  0.7458
 3062TIP3    H1 9143   2.342   3.287   0.565 -0.4993  0.5459  0.4551
 3062TIP3    H2 9144   2.257   3.194   0.481  0.3765  0.2221 -0.0839
 3063TIP3   OH2 9145   8.237   2.699   3.805 -0.4944 -1.0325  0.4625
 3063TIP3    H1 9146   8.163   2.656   3.762 -1.5106 -0.3940  1.5039
 3063TIP3    H2 9147   8.216   2.696   3.898  0.5857 -0.4507  0.7493
 3064TIP3   OH2 9148   4.553   3.452   0.627 -0.2065 -0.1648  0.0074
 3064TIP3    H1 9149   4.553   3.358   0.606 -1.6171 -0.6407  1.8194
 3064TIP3    H2 9150   4.625   3.488   0.576  0.1156 -2.1562 -1.0620
 3065TIP3   OH2 9151   6.044   0.462   0.603  0.1926 -0.1108  0.1285
 3065TIP3    H1 9152   5.980   0.519   0.560  1.5322  0.5338 -1.1131
 3065TIP3    H2 9153   6.033   0.377   0.560  1.3302  0.4572 -1.4013
 3066TIP3   OH2 9154   2.484   7.130   4.423  0.1765 -0.0551 -0.3526
 3066TIP3    H1 9155   2.555   7.191   4.406 -1.1082  2.1014  1.4321
 3066TIP3    H2 9156   2.417   7.152   4.359 -0.5349  0.9044  0.6842
 3067TIP3   OH2 9157   4.652   1.087   4.984  0.0211 -0.4451 -0.8751
 3067TIP3    H1 9158   4.658   1.006   5.035 -0.2057  0.3475  0.4410
 3067TIP3    H2 9159   4.632   1.057   4.895  0.0025 -1.8411 -0.4262
 3068TIP3   OH2 9160   1.345   4.068   5.879  0.9085 -0.3030  0.1457
 3068TIP3    H1 9161   1.284   4.140   5.869  2.0596  0.5567 -1.2196
 3068TIP3    H2 9162   1.432   4.109   5.875  1.5861 -1.6050  0.7738
 3069TIP3   OH2 9163   4.886   3.114   1.154  0.4955 -0.2492 -0.2877
 3069TIP3    H1 9164   4.964   3.169   1.151 -0.3144  0.9036 -1.9867
 3069TIP3    H2 9165   4.894   3.057   1.078 -0.8859  0.7564 -1.2319
 3070TIP3   OH2 9166   7.532   7.278   0.047  0.8465  0.2407 -0.0283
 3070TIP3    H1 9167   7.516   7.347  -0.016 -1.8055 -0.2813 -0.0360
 3070TIP3    H2 9168   7.547   7.323   0.130  0.1059  0.8577 -0.2218
 3071TIP3   OH2 9169   7.624   1.062   5.842  0.3426  0.2668  0.3091
 3071TIP3    H1 9170   7.693   1.080   5.778 -0.9543  2.5440 -0.5419
 3071TIP3    H2 9171   7.575   0.989   5.805  1.0576 -0.0185 -0.0952
 3072TIP3   OH2 9172   6.615   4.162   0.965  0.3696  0.1087  0.3546
 3072TIP3    H1 9173   6.589   4.078   0.927  1.7328 -0.8135  1.3467
 3072TIP3    H2 9174   6.622   4.143   1.059  1.0338  1.2583  0.5419
 3073TIP3   OH2 9175   6.376   2.963   0.375  0.1722  0.0520  0.1136
 3073TIP3    H1 9176   6.305   2.938   0.316  0.1674  0.1676  0.0694
 3073TIP3    H2 9177   6.332   2.989   0.456  0.1756 -0.0683  0.1538
 3074TIP3   OH2 9178   0.319   2.781   4.481  0.1824 -0.1916  0.3988
 3074TIP3    H1 9179   0.324   2.877   4.484 -1.2026 -0.0867  0.0032
 3074TIP3    H2 9180   0.308   2.760   4.389 -0.1086 -0.7018  0.5471
 3075TIP3   OH2 9181   4.128   3.853   4.188 -0.0743 -0.4448  0.2042
 3075TIP3    H1 9182   4.141   3.761   4.165  1.0035  0.1416 -1.8096
 3075TIP3    H2 9183   4.189   3.868   4.261  3.8485 -0.1782 -2.7871
 3076TIP3   OH2 9184   3.543   2.918   3.339  0.3545  0.0359 -0.1803
 3076TIP3    H1 9185   3.565   3.004   3.302  3.1993 -0.5260  0.0258
 3076TIP3    H2 9186   3.519   2.865   3.263 -1.7680  1.0133 -0.2836
 3077TIP3   OH2 9187   8.047   5.927   5.584 -0.3042  0.0041 -0.0056
 3077TIP3    H1 9188   7.993   5.971   5.519  1.1815  0.0854 -1.2452
 3077TIP3    H2 9189   8.043   5.835   5.560  0.0442  0.0056 -0.0832
 3078TIP3   OH2 9190   4.721   7.591   3.566 -0.0102 -0.2586  0.1352
 3078TIP3    H1 9191   4.798   7.646   3.557 -0.3664 -0.0216 -1.9576
 3078TIP3    H2 9192   4.756   7.505   3.589  0.8750 -0.1456 -0.7403
 3079TIP3   OH2 9193   2.155   0.087   5.024  0.2225 -0.2649 -0.1449
 3079TIP3    H1 9194   2.082   0.085   4.963  0.0086 -0.4149  0.1149
 3079TIP3    H2 9195   2.191   0.175   5.016 -1.2984  0.5425  1.2662
 3080TIP3   OH2 9196   0.064   4.543   2.445  0.0429 -0.0026  0.1724
 3080TIP3    H1 9197   0.141   4.545   2.388 -1.4512  1.3930 -1.9682
 3080TIP3    H2 9198   0.049   4.450   2.462  0.9071 -0.4417 -1.2639
 3081TIP3   OH2 9199   2.002   2.448   3.453 -0.1522  0.2197 -0.2683
 3081TIP3    H1 9200   1.956   2.528   3.480 -0.5420  0.0783 -0.4929
 3081TIP3    H2 9201   1.936   2.399   3.403  0.6790  0.7525 -1.9915
 3082TIP3   OH2 9202   5.116   2.131   4.776 -0.5739  0.0598  0.1202
 3082TIP3    H1 9203   5.133   2.038   4.764 -2.1453 -0.1724 -0.6610
 3082TIP3    H2 9204   5.123   2.145   4.870  0.8225 -0.5824  0.1337
 3083TIP3   OH2 9205   3.476   6.944   0.611  0.0263  0.5628 -0.4931
 3083TIP3    H1 9206   3.467   6.860   0.567  0.9866  0.0209  0.2960
 3083TIP3    H2 9207   3.530   6.997   0.551  0.0608  0.3536 -0.6468
 3084TIP3   OH2 9208   5.440   1.377   5.633  0.1577 -0.1312 -0.3119
 3084TIP3    H1 9209   5.530   1.351   5.651  0.7502  1.7909 -0.3588
 3084TIP3    H2 9210   5.390   1.339   5.706  1.0256 -0.9709 -0.1352
 3085TIP3   OH2 9211   3.650   3.155   4.736  0.0670 -0.3310 -0.4117
 3085TIP3    H1 9212   3.595   3.175   4.660  0.4690  0.3154 -0.5436
 3085TIP3    H2 9213   3.699   3.236   4.752  1.1752 -0.9734 -0.4556
 3086TIP3   OH2 9214   4.840   0.085   0.168  0.1314  0.2795  0.3163
 3086TIP3    H1 9215   4.799   0.080   0.255 -0.4750 -0.7755  0.0017
 3086TIP3    H2 9216   4.772   0.122   0.112 -0.4072 -1.3765 -0.1881
 3087TIP3   OH2 9217   1.455   2.259   0.444  0.3605 -0.5407  0.4481
 3087TIP3    H1 9218   1.523   2.279   0.381  0.1853 -0.5180  0.2646
 3087TIP3    H2 9219   1.383   2.319   0.422 -1.2156 -3.0126 -1.7837
 3088TIP3   OH2 9220   6.086   6.369   0.416 -0.2871  0.7234 -0.1010
 3088TIP3    H1 9221   5.997   6.368   0.382  0.1009  2.7250 -1.3573
 3088TIP3    H2 9222   6.139   6.402   0.343  1.2380  1.0641  1.1057
 3089TIP3   OH2 9223   2.659   5.203   3.101  0.7698 -0.1566 -0.3281
 3089TIP3    H1 9224   2.690   5.133   3.044 -0.5295  0.1790 -1.4958
 3089TIP3    H2 9225   2.646   5.278   3.042 -3.2275 -0.5690 -0.1907
 3090TIP3   OH2 9226   3.923   3.305   2.046 -0.3217  0.2457  0.3404
 3090TIP3    H1 9227   3.931   3.270   1.957  3.3258  0.6011  0.3696
 3090TIP3    H2 9228   3.882   3.235   2.096  0.8106 -1.4075 -0.9294
 3091TIP3   OH2 9229   2.093   0.063   0.211  0.4261  0.0090 -0.1981
 3091TIP3    H1 9230   2.148   0.106   0.276  0.3690 -1.5107  0.9178
 3091TIP3    H2 9231   2.097  -0.030   0.235 -2.3841 -0.2018 -0.2134
 3092TIP3   OH2 9232   7.678   1.606   3.877 -0.6411 -0.3516 -0.6482
 3092TIP3    H1 9233   7.602   1.661   3.856 -0.6068 -0.1134 -0.1682
 3092TIP3    H2 9234   7.692   1.553   3.799 -0.8810  0.0920 -0.9961
 3093TIP3   OH2 9235   5.969   7.330   0.755 -0.6249 -0.1001 -0.2982
 3093TIP3    H1 9236   6.001   7.332   0.845  0.2148 -6.3190 -0.0581
 3093TIP3    H2 9237   6.045   7.305   0.702 -1.9649 -0.7489 -2.0481
 3094TIP3   OH2 9238   1.167   2.101   3.369 -0.6033  0.2701 -0.3388
 3094TIP3    H1 9239   1.102   2.161   3.407 -2.1289  0.1076 -2.5027
 3094TIP3    H2 9240   1.119   2.020   3.354  0.1699  0.0354 -1.6791
 3095TIP3   OH2 9241   5.121   3.630   3.929 -0.3840  0.5176 -1.1393
 3095TIP3    H1 9242   5.143   3.585   4.011 -2.4831  1.0101 -0.2359
 3095TIP3    H2 9243   5.121   3.561   3.863 -1.6842 -0.5137 -0.1184
 3096TIP3   OH2 9244   0.250   5.817   1.581 -0.3349 -0.3518 -0.3322
 3096TIP3    H1 9245   0.287   5.734   1.551  0.3839  0.1675 -0.9281
 3096TIP3    H2 9246   0.305   5.884   1.540  1.0395  0.4028  2.4731
 3097TIP3   OH2 9247   5.363   0.459   1.556  0.5390 -0.7127  0.2560
 3097TIP3    H1 9248   5.354   0.511   1.476 -0.2439 -2.3071 -0.7296
 3097TIP3    H2 9249   5.397   0.521   1.620  0.2809  0.8491 -1.0450
 3098TIP3   OH2 9250   6.904   6.250   3.194 -0.7222 -0.0400 -0.1825
 3098TIP3    H1 9251   6.814   6.272   3.217 -0.1405  0.7005  1.5829
 3098TIP3    H2 9252   6.948   6.334   3.183  0.9667 -0.0072  4.3460
 3099TIP3   OH2 9253   0.063   4.954   2.327  0.1732  0.5252  0.1805
 3099TIP3    H1 9254   0.158   4.949   2.315  0.1370  0.7833 -0.2225
 3099TIP3    H2 9255   0.027   4.903   2.255  0.0329 -0.7534  1.1144
 3100TIP3   OH2 9256   2.073   4.059   6.216 -0.2498  0.1424  0.2899
 3100TIP3    H1 9257   2.109   4.092   6.298 -1.2237 -0.8851  1.1679
 3100TIP3    H2 9258   2.029   3.978   6.241 -2.0658  0.7068 -0.9570
 3101TIP3   OH2 9259   2.218   6.798   3.356  0.2145  0.0784  0.3914
 3101TIP3    H1 9260   2.191   6.713   3.321  0.5289 -1.3509  3.3298
 3101TIP3    H2 9261   2.303   6.815   3.316  0.8431 -1.7518  0.8699
 3102TIP3   OH2 9262   5.735   2.080   1.053 -0.2019  0.0630  0.2851
 3102TIP3    H1 9263   5.727   2.120   1.139 -1.1612 -1.3343  0.8900
 3102TIP3    H2 9264   5.792   2.004   1.066 -1.1207 -0.7210 -0.0631
 3103TIP3   OH2 9265   0.090   6.802   1.166  0.5363 -0.0418  0.6604
 3103TIP3    H1 9266   0.186   6.801   1.168  0.6021  1.6971 -0.0154
 3103TIP3    H2 9267   0.066   6.890   1.196 -0.6206  1.2327 -3.3118
 3104TIP3   OH2 9268   4.977   0.846   5.708 -0.1508  0.0887 -0.3892
 3104TIP3    H1 9269   5.041   0.864   5.639 -0.9303 -1.0206 -1.4331
 3104TIP3    H2 9270   5.022   0.788   5.768 -0.2720 -1.0426 -1.3501
 3105TIP3   OH2 9271   7.253   4.255   2.880  0.0348  0.4127 -0.2132
 3105TIP3    H1 9272   7.287   4.192   2.817  0.4793  0.4034  0.0337
 3105TIP3    H2 9273   7.308   4.332   2.870  0.6330  0.1261  0.7173
 3106TIP3   OH2 9274   3.970   1.385   5.975 -0.3999 -0.2653 -0.0412
 3106TIP3    H1 9275   3.888   1.378   5.928  0.3366  0.5441 -1.5177
 3106TIP3    H2 9276   3.954   1.452   6.042 -1.0446 -0.3929 -0.0617
 3107TIP3   OH2 9277   1.504   2.512   2.645  0.1842 -0.1611 -0.2823
 3107TIP3    H1 9278   1.507   2.492   2.739 -0.5489 -1.0954 -0.4354
 3107TIP3    H2 9279   1.588   2.553   2.626  0.3095  0.1145  0.7979
 3108TIP3   OH2 9280   6.472   0.804   6.407 -0.2953 -0.0970  0.0598
 3108TIP3    H1 9281   6.496   0.847   6.489  0.7931  0.4964 -0.5521
 3108TIP3    H2 9282   6.511   0.717   6.413 -2.4463 -1.0587  1.2718
 3109TIP3   OH2 9283   6.357   6.170   3.105  0.1096 -0.0053 -0.3382
 3109TIP3    H1 9284   6.432   6.203   3.055 -1.1344  1.3308 -1.3951
 3109TIP3    H2 9285   6.346   6.079   3.076  0.1377  0.3931 -1.6229
 3110TIP3   OH2 9286   5.418   4.649   5.590 -0.3734 -0.5043  0.1939
 3110TIP3    H1 9287   5.505   4.655   5.628 -0.6617 -1.6939  1.0781
 3110TIP3    H2 9288   5.432   4.612   5.503 -0.0806 -1.8083  0.7768
 3111TIP3   OH2 9289   6.794   5.523   4.372  0.4565 -0.5291 -0.0128
 3111TIP3    H1 9290   6.814   5.457   4.439 -0.3780  1.0093  1.8381
 3111TIP3    H2 9291   6.729   5.580   4.413 -0.6289  0.0846 -2.4291
 3112TIP3   OH2 9292   6.293   0.254   0.860 -0.0793 -0.3369  0.3274
 3112TIP3    H1 9293   6.286   0.160   0.877  0.3377 -0.3880  0.2320
 3112TIP3    H2 9294   6.387   0.270   0.853 -0.1151  0.2044  0.9749
 3113TIP3   OH2 9295   2.173   0.520   1.969  0.1239  0.1637 -0.1094
 3113TIP3    H1 9296   2.122   0.571   2.033  0.2827 -0.7230  0.7431
 3113TIP3    H2 9297   2.254   0.499   2.015  1.6140  2.0806 -1.6471
 3114TIP3   OH2 9298   6.980   2.087   3.755 -0.3266  0.9742 -0.4715
 3114TIP3    H1 9299   6.931   2.005   3.750  0.6054  0.3896 -0.2425
 3114TIP3    H2 9300   6.929   2.149   3.703 -1.1852  0.3255 -0.4190
 3115TIP3   OH2 9301   5.307   3.788   4.786  0.1638 -0.4248 -0.1307
 3115TIP3    H1 9302   5.374   3.753   4.727 -0.7642  1.9560 -2.8395
 3115TIP3    H2 9303   5.352   3.859   4.833 -0.7154  2.9082 -3.7645
 3116TIP3   OH2 9304   6.483   1.450   0.139 -0.0279 -0.1823 -0.3885
 3116TIP3    H1 9305   6.551   1.498   0.093  0.1017  0.0344  0.0219
 3116TIP3    H2 9306   6.493   1.359   0.109  0.9602 -0.3074  0.2630
 3117TIP3   OH2 9307   6.241   6.334   5.660  0.4982 -0.1263 -0.1014
 3117TIP3    H1 9308   6.201   6.374   5.738  0.0825 -0.2296 -0.2601
 3117TIP3    H2 9309   6.281   6.253   5.693  0.9494  0.1903  0.1375
 3118TIP3   OH2 9310   0.443   6.245   1.375  0.0901 -0.2363  0.6117
 3118TIP3    H1 9311   0.506   6.314   1.394  0.9690 -0.2357 -1.9052
 3118TIP3    H2 9312   0.365   6.291   1.344  0.0982 -0.3279  0.4542
 3119TIP3   OH2 9313   2.463   2.060   6.246  0.4185  0.3375  0.4935
 3119TIP3    H1 9314   2.532   2.123   6.226 -0.9416  1.5719 -0.5821
 3119TIP3    H2 9315   2.460   2.002   6.170  1.0030 -0.4182  1.0387
 3120TIP3   OH2 9316   6.096   6.098   1.530 -0.4981 -0.0051 -0.1005
 3120TIP3    H1 9317   6.140   6.015   1.545 -0.5930  0.1151  0.9474
 3120TIP3    H2 9318   6.153   6.145   1.469 -0.8509 -1.1357 -1.3571
 3121TIP3   OH2 9319   3.501   3.396   1.940  0.6708  0.2944  0.0493
 3121TIP3    H1 9320   3.567   3.453   1.901  0.6102  1.5285  1.6445
 3121TIP3    H2 9321   3.423   3.409   1.885  1.2123  0.2519 -0.7415
 3122TIP3   OH2 9322   4.750   4.526   1.643  0.6953  0.2034  0.0132
 3122TIP3    H1 9323   4.804   4.469   1.588  0.8544 -1.2221  1.5681
 3122TIP3    H2 9324   4.667   4.533   1.594  0.4888 -1.8051 -0.0415
 3123TIP3   OH2 9325   0.252   0.810   3.339  0.7259  0.4984  0.1891
 3123TIP3    H1 9326   0.242   0.903   3.358 -1.1866  0.3345  0.2039
 3123TIP3    H2 9327   0.334   0.803   3.291  1.2261  2.0960  0.7676
 3124TIP3   OH2 9328   2.186   3.378   3.394 -0.0089  0.5228  0.0908
 3124TIP3    H1 9329   2.158   3.291   3.423  3.1254 -1.0601 -1.2239
 3124TIP3    H2 9330   2.280   3.380   3.410  0.3522  2.9097 -1.7853
 3125TIP3   OH2 9331   5.729   7.524   6.406 -0.1686 -0.0038  0.4445
 3125TIP3    H1 9332   5.776   7.531   6.489  1.2880 -0.1783 -0.3364
 3125TIP3    H2 9333   5.788   7.475   6.349 -1.4729 -0.5617 -0.4716
 3126TIP3   OH2 9334   4.180   1.219   2.034  0.0889 -0.0059  0.3405
 3126TIP3    H1 9335   4.117   1.284   2.004  0.7837  1.6715  2.2546
 3126TIP3    H2 9336   4.216   1.256   2.115  1.3858 -2.2580  0.8895
 3127TIP3   OH2 9337   2.630   5.635   3.964  0.3555  0.1021  0.0440
 3127TIP3    H1 9338   2.672   5.583   4.032 -0.8804 -0.1028  0.6766
 3127TIP3    H2 9339   2.621   5.575   3.889  2.1168  0.4574 -0.4830
 3128TIP3   OH2 9340   5.331   4.062   0.908 -0.4497 -0.2232  0.2471
 3128TIP3    H1 9341   5.298   3.998   0.844 -1.3500  0.2399  0.2249
 3128TIP3    H2 9342   5.284   4.041   0.988  0.1713 -0.3687  0.5749
 3129TIP3   OH2 9343   6.792   0.531   5.173 -0.0988 -0.2485 -0.1353
 3129TIP3    H1 9344   6.837   0.521   5.090 -0.1708 -1.8348 -0.0126
 3129TIP3    H2 9345   6.699   0.530   5.151 -0.1096  0.1691 -0.1135
 3130TIP3   OH2 9346   0.251   2.243   0.915 -0.5513  0.5170  0.2028
 3130TIP3    H1 9347   0.187   2.286   0.858  1.0843  2.1349 -0.5037
 3130TIP3    H2 9348   0.331   2.295   0.905  1.3374 -2.2508 -0.0659
 3131TIP3   OH2 9349   2.680   6.069   0.810  0.0270  0.3960  0.1359
 3131TIP3    H1 9350   2.716   6.054   0.722 -0.8387  3.9129 -0.9715
 3131TIP3    H2 9351   2.590   6.036   0.804 -0.3989  1.6414 -0.7272
 3132TIP3   OH2 9352   8.215   7.766   1.634 -1.0845  0.1224  0.2523
 3132TIP3    H1 9353   8.154   7.758   1.707 -2.3781 -0.2486 -0.8167
 3132TIP3    H2 9354   8.231   7.860   1.625 -0.9424  0.1685  0.9896
 3133TIP3   OH2 9355   2.863   4.823   6.716  0.4685 -0.5428 -0.1065
 3133TIP3    H1 9356   2.771   4.835   6.695  0.6705  0.4056 -0.5217
 3133TIP3    H2 9357   2.908   4.893   6.669  1.1657  0.4065  1.8601
 3134TIP3   OH2 9358   2.080   5.263   4.999  0.2910 -0.0180 -0.0418
 3134TIP3    H1 9359   2.155   5.312   4.964  0.7050 -0.7705 -0.2436
 3134TIP3    H2 9360   2.016   5.330   5.023  1.5505  0.7411  1.3678
 3135TIP3   OH2 9361   1.491   1.405   5.845  0.3643 -0.6315  0.3717
 3135TIP3    H1 9362   1.472   1.385   5.937  0.8198  1.4217  0.9551
 3135TIP3    H2 9363   1.566   1.463   5.848 -1.1212  1.5089 -1.0980
 3136TIP3   OH2 9364   4.298   5.654   2.687  0.2422  0.0347  0.0237
 3136TIP3    H1 9365   4.319   5.586   2.622 -0.2788 -0.1984  0.0990
 3136TIP3    H2 9366   4.334   5.734   2.649 -1.0827  0.1289 -1.1345
 3137TIP3   OH2 9367   8.207   2.884   5.251 -0.0176 -0.3909  0.2569
 3137TIP3    H1 9368   8.266   2.913   5.183 -0.1077 -2.3652 -0.7298
 3137TIP3    H2 9369   8.193   2.961   5.306 -0.2346  1.3631 -2.1421
 3138TIP3   OH2 9370   0.259   2.244   6.557 -0.1340  0.2040 -0.0232
 3138TIP3    H1 9371   0.264   2.226   6.463  0.7527  1.4077 -0.2395
 3138TIP3    H2 9372   0.301   2.169   6.598  0.4352  0.1613 -0.6616
 3139TIP3   OH2 9373   0.399   6.647   5.083  0.1900 -0.0346  0.1240
 3139TIP3    H1 9374   0.366   6.614   5.166 -0.0372 -0.2061 -0.0309
 3139TIP3    H2 9375   0.491   6.620   5.082 -0.8077 -4.3871 -1.7290
 3140TIP3   OH2 9376   7.574   3.345   5.904  0.1358 -0.3011 -0.0443
 3140TIP3    H1 9377   7.533   3.298   5.831  1.3508 -2.5987  0.6661
 3140TIP3    H2 9378   7.668   3.341   5.885  0.4740 -0.8794  1.6014
 3141TIP3   OH2 9379   1.399   1.223   5.192  0.0468  0.0168  0.1111
 3141TIP3    H1 9380   1.348   1.184   5.121  3.6914 -1.3040 -2.1045
 3141TIP3    H2 9381   1.383   1.166   5.267 -1.7857 -0.2365 -0.4283
 3142TIP3   OH2 9382   6.043   3.949   1.417 -0.2483 -0.0973 -0.4336
 3142TIP3    H1 9383   5.966   3.994   1.452  0.7456  3.2722 -2.1527
 3142TIP3    H2 9384   6.115   4.010   1.431  1.3318 -1.3381 -2.5477
 3143TIP3   OH2 9385   1.815   2.393   6.554  0.1312 -0.0340 -0.0669
 3143TIP3    H1 9386   1.732   2.351   6.573 -1.1973  2.3237 -0.3085
 3143TIP3    H2 9387   1.792   2.479   6.519  2.5907 -0.4111 -3.1100
 3144TIP3   OH2 9388   4.475   1.074   4.091 -0.2673 -0.4342  0.3357
 3144TIP3    H1 9389   4.528   1.081   4.012 -1.0242 -0.3593 -0.1812
 3144TIP3    H2 9390   4.494   0.986   4.125  1.5908  0.2622  1.2157
 3145TIP3   OH2 9391   4.644   5.158   1.445  0.3312 -0.4415  0.3424
 3145TIP3    H1 9392   4.635   5.073   1.402  1.2104  0.2018 -1.1612
 3145TIP3    H2 9393   4.704   5.207   1.390 -1.3894  1.7493  0.2735
 3146TIP3   OH2 9394   3.109   7.727   4.226  0.5042  0.2414  0.0636
 3146TIP3    H1 9395   3.117   7.743   4.132  1.9256  0.6404  0.2221
 3146TIP3    H2 9396   3.154   7.644   4.239 -0.0466 -0.0133  0.3385
 3147TIP3   OH2 9397   4.490   0.227   4.440 -0.0974  0.2301 -0.2609
 3147TIP3    H1 9398   4.478   0.257   4.350 -0.8496 -1.0233 -0.6030
 3147TIP3    H2 9399   4.555   0.157   4.432 -1.0340 -0.6849 -0.0096
 3148TIP3   OH2 9400   6.633   3.053   0.883  0.0600 -0.2462  0.3718
 3148TIP3    H1 9401   6.539   3.067   0.897  0.0200  1.6986 -1.3860
 3148TIP3    H2 9402   6.675   3.107   0.950  0.0225 -2.3167  2.1869
 3149TIP3   OH2 9403   4.441   3.797   0.488 -0.1612 -0.1183  0.1562
 3149TIP3    H1 9404   4.447   3.828   0.579 -0.4161  0.2817  0.0398
 3149TIP3    H2 9405   4.349   3.771   0.478  0.4026 -2.6734  0.8099
 3150TIP3   OH2 9406   0.973   1.484   5.968 -0.0888 -0.4923  0.0308
 3150TIP3    H1 9407   0.883   1.513   5.952 -0.0782 -0.0501  0.7741
 3150TIP3    H2 9408   1.020   1.510   5.889 -0.3116  0.5506  0.2309
 3151TIP3   OH2 9409   3.288   6.623   1.234  0.1821  0.0546  0.4377
 3151TIP3    H1 9410   3.279   6.660   1.146  1.0912  0.7838  0.6367
 3151TIP3    H2 9411   3.283   6.528   1.222 -0.2244  0.1671 -0.3240
 3152TIP3   OH2 9412   5.152   6.680   3.088  0.3342 -0.1847 -0.1806
 3152TIP3    H1 9413   5.101   6.688   3.007 -0.6787 -1.4681  0.2884
 3152TIP3    H2 9414   5.220   6.616   3.067  1.7296  1.4170 -0.7606
 3153TIP3   OH2 9415   2.654   5.679   6.599  0.3612  0.3424 -0.3680
 3153TIP3    H1 9416   2.644   5.614   6.669  1.4198 -1.5278 -1.8729
 3153TIP3    H2 9417   2.672   5.761   6.646  1.5565 -0.9312  1.5489
 3154TIP3   OH2 9418   8.138   1.259   2.225  0.5175 -0.3002 -0.4042
 3154TIP3    H1 9419   8.172   1.263   2.136  0.0954 -1.7324 -0.6637
 3154TIP3    H2 9420   8.044   1.251   2.214  0.5400 -1.4995  0.1158
 3155TIP3   OH2 9421   0.128   7.277   2.520 -0.3204 -0.2096  0.3519
 3155TIP3    H1 9422   0.194   7.346   2.512  0.6184 -1.1923 -0.7065
 3155TIP3    H2 9423   0.163   7.219   2.587 -1.0505  0.2499  1.1527
 3156TIP3   OH2 9424   3.168   5.550   2.197  0.0273  0.1216  0.0965
 3156TIP3    H1 9425   3.187   5.532   2.289  4.2890  1.3262 -0.3286
 3156TIP3    H2 9426   3.243   5.513   2.150  0.0904  3.0658 -2.4236
 3157TIP3   OH2 9427   1.385   7.545   1.204  0.4113 -0.0061 -0.5766
 3157TIP3    H1 9428   1.320   7.551   1.274 -0.7210  0.3576 -1.6426
 3157TIP3    H2 9429   1.359   7.611   1.140  1.6894 -0.0242 -1.1537
 3158TIP3   OH2 9430   7.745   4.549   5.174 -0.3861 -0.3255  0.0847
 3158TIP3    H1 9431   7.656   4.527   5.147  0.3085 -0.9218 -1.8622
 3158TIP3    H2 9432   7.790   4.465   5.182  0.2214  0.0074  0.2629
 3159TIP3   OH2 9433   4.645   1.496   1.766 -0.0185 -0.2262  0.2019
 3159TIP3    H1 9434   4.582   1.522   1.698 -0.4889 -2.3746 -0.2592
 3159TIP3    H2 9435   4.591   1.481   1.844  0.2219 -0.0358  0.4088
 3160TIP3   OH2 9436   8.017   5.713   0.894  0.0348 -1.0818 -0.7677
 3160TIP3    H1 9437   8.006   5.754   0.979  0.8880 -0.0939 -1.1130
 3160TIP3    H2 9438   7.939   5.737   0.845  0.0403 -0.7587 -0.6195
 3161TIP3   OH2 9439   0.837   6.887   4.064 -0.3118  0.1465  0.3867
 3161TIP3    H1 9440   0.928   6.917   4.071 -0.1940  0.5862 -1.9163
 3161TIP3    H2 9441   0.804   6.931   3.985 -1.7121 -1.9787 -0.3024
 3162TIP3   OH2 9442   5.384   4.502   0.196  0.3822  0.1735 -0.4137
 3162TIP3    H1 9443   5.461   4.448   0.180 -0.8211 -1.7207 -0.1745
 3162TIP3    H2 9444   5.408   4.589   0.166  3.1354  0.0195  1.0286
 3163TIP3   OH2 9445   3.049   5.870   6.140 -0.1601 -0.1285 -0.4526
 3163TIP3    H1 9446   3.036   5.776   6.126  1.0060 -0.3008 -0.4695
 3163TIP3    H2 9447   2.961   5.904   6.158 -0.2579 -1.7663  2.9006
 3164TIP3   OH2 9448   3.405   4.241   0.093  0.3430 -0.1212 -0.3861
 3164TIP3    H1 9449   3.451   4.172   0.140 -0.4188 -0.6228 -0.3500
 3164TIP3    H2 9450   3.473   4.304   0.068  0.8950 -0.3544  0.5025
 3165TIP3   OH2 9451   6.439   0.979   6.030 -0.6904 -0.5336  0.0020
 3165TIP3    H1 9452   6.511   1.014   6.082 -0.1259 -0.2351 -0.9533
 3165TIP3    H2 9453   6.424   1.044   5.962 -0.1092 -1.7655 -1.3645
 3166TIP3   OH2 9454   4.205   0.311   1.192 -0.4400 -0.2138  0.3454
 3166TIP3    H1 9455   4.122   0.359   1.195  0.4962  1.5862 -0.7702
 3166TIP3    H2 9456   4.219   0.283   1.282 -1.3280  1.1497  0.9591
 3167TIP3   OH2 9457   3.817   2.399   2.367  0.4788  0.2955 -0.4616
 3167TIP3    H1 9458   3.756   2.392   2.294  3.3575 -0.7163 -2.9469
 3167TIP3    H2 9459   3.804   2.318   2.416  0.7530 -0.5525 -1.7525
 3168TIP3   OH2 9460   6.587   6.341   5.646 -0.3998  0.0870 -0.0016
 3168TIP3    H1 9461   6.632   6.399   5.707  1.0353 -0.6342 -0.3239
 3168TIP3    H2 9462   6.562   6.397   5.573  2.2579  0.1188 -0.9942
 3169TIP3   OH2 9463   0.960   0.042   5.873  0.3872 -0.3483 -0.5123
 3169TIP3    H1 9464   0.975  -0.052   5.887 -0.6683 -0.6759 -1.4031
 3169TIP3    H2 9465   0.988   0.083   5.955 -1.1839 -1.6776  0.7908
 3170TIP3   OH2 9466   4.337   3.100   3.715  0.2719  0.0199 -0.0207
 3170TIP3    H1 9467   4.309   3.186   3.682  2.7668  0.8518 -0.2046
 3170TIP3    H2 9468   4.357   3.116   3.808 -2.3320 -1.2112  0.8316
 3171TIP3   OH2 9469   7.086   4.140   5.482  0.3988  0.6909 -0.0068
 3171TIP3    H1 9470   7.080   4.147   5.386  0.4261  0.7800 -0.0022
 3171TIP3    H2 9471   7.015   4.195   5.514 -1.1046 -1.1214 -0.0090
 3172TIP3   OH2 9472   7.824   5.208   0.592 -0.1234  0.8047 -0.1506
 3172TIP3    H1 9473   7.849   5.292   0.632  2.9183  0.4232 -1.0319
 3172TIP3    H2 9474   7.887   5.145   0.627 -1.6906 -0.9344 -0.3338
 3173TIP3   OH2 9475   5.523   1.293   2.370 -0.3470  0.2444  0.5240
 3173TIP3    H1 9476   5.611   1.306   2.406 -0.8320  1.3461  1.3648
 3173TIP3    H2 9477   5.534   1.308   2.276  0.5728 -0.7571  0.4578
 3174TIP3   OH2 9478   2.178   7.621   2.359  0.2275 -0.0314 -0.1835
 3174TIP3    H1 9479   2.264   7.598   2.392  1.1683 -2.3403 -3.6839
 3174TIP3    H2 9480   2.195   7.681   2.286 -1.1441 -0.1835 -0.6658
 3175TIP3   OH2 9481   6.549   0.707   1.354 -0.0243 -0.5005 -0.3341
 3175TIP3    H1 9482   6.536   0.624   1.309 -0.4316 -1.0051  0.6766
 3175TIP3    H2 9483   6.634   0.699   1.397 -0.9465 -1.2469  1.4667
 3176TIP3   OH2 9484   3.260   6.014   6.214 -0.1263  0.4069  0.0729
 3176TIP3    H1 9485   3.343   5.972   6.189 -0.3650 -0.6041  0.9136
 3176TIP3    H2 9486   3.193   5.959   6.173 -0.3874  1.2817 -0.6919
 3177TIP3   OH2 9487   0.705   6.417   3.225  0.0772  0.4901  0.0664
 3177TIP3    H1 9488   0.614   6.443   3.207  0.1279 -0.2793 -1.4997
 3177TIP3    H2 9489   0.698   6.323   3.246  0.5225  0.3849 -0.2567
 3178TIP3   OH2 9490   0.980   5.469   3.895  0.4656 -0.0764  0.4081
 3178TIP3    H1 9491   0.959   5.538   3.832  1.4553 -0.3760 -0.2639
 3178TIP3    H2 9492   0.916   5.399   3.876  0.9490 -0.2919 -0.4854
 3179TIP3   OH2 9493   0.200   4.396   5.265 -0.2434  0.2936 -0.1024
 3179TIP3    H1 9494   0.218   4.382   5.358  0.6721 -0.1292 -0.3307
 3179TIP3    H2 9495   0.167   4.311   5.234 -0.8217  0.5181 -0.0983
 3180TIP3   OH2 9496   3.828   7.484   2.439 -0.1353  0.0315  0.5053
 3180TIP3    H1 9497   3.763   7.463   2.372 -1.0313  2.3929  0.5752
 3180TIP3    H2 9498   3.860   7.571   2.415 -0.6614  1.0685  3.2600
 3181TIP3   OH2 9499   4.281   1.508   5.458  0.3812  0.0542  0.5254
 3181TIP3    H1 9500   4.232   1.426   5.447 -1.9062  1.3118  0.7492
 3181TIP3    H2 9501   4.371   1.485   5.435 -0.2682 -2.4043  0.1284
 3182TIP3   OH2 9502   4.437   7.002   3.058 -0.3836  0.2553 -0.1214
 3182TIP3    H1 9503   4.417   7.033   2.970 -0.1642 -1.6039 -0.8795
 3182TIP3    H2 9504   4.374   6.931   3.072  0.8569 -0.7620  0.4256
 3183TIP3   OH2 9505   6.722   7.474   2.244  0.0290  0.3499 -0.3217
 3183TIP3    H1 9506   6.729   7.454   2.337  0.7083  3.3960  0.3699
 3183TIP3    H2 9507   6.634   7.510   2.234  1.0474  3.1790 -0.0623
 3184TIP3   OH2 9508   2.195   3.820   4.087  0.2915  0.0408  0.0047
 3184TIP3    H1 9509   2.277   3.792   4.046  0.2217 -0.6906  0.3470
 3184TIP3    H2 9510   2.127   3.772   4.039  0.1639 -0.3376  0.5564
 3185TIP3   OH2 9511   1.846   5.582   2.175 -0.0837 -0.3436  0.0825
 3185TIP3    H1 9512   1.823   5.625   2.257  0.3655 -0.8517  0.4864
 3185TIP3    H2 9513   1.766   5.539   2.147  0.0018 -0.9733  0.7671
 3186TIP3   OH2 9514   8.112   4.047   3.638 -0.0818  0.4493  0.5529
 3186TIP3    H1 9515   8.149   3.978   3.583 -0.7797 -0.3681  1.0860
 3186TIP3    H2 9516   8.153   4.127   3.606  1.2576 -0.2770  0.3440
 3187TIP3   OH2 9517   5.245   1.988   0.258 -0.2980  0.0105 -0.0558
 3187TIP3    H1 9518   5.328   2.025   0.226 -0.8546  1.6195  0.2850
 3187TIP3    H2 9519   5.263   1.963   0.348 -0.3150  0.8839  0.2015
 3188TIP3   OH2 9520   7.270   4.387   3.191  0.1950 -0.3030  0.1447
 3188TIP3    H1 9521   7.260   4.432   3.107  2.6846 -0.2041 -0.1577
 3188TIP3    H2 9522   7.218   4.307   3.181  0.0839 -0.0740 -1.3048
 3189TIP3   OH2 9523   6.857   0.271   1.880  0.0797 -0.3108 -0.0541
 3189TIP3    H1 9524   6.906   0.210   1.825 -0.3665 -1.4377  0.7713
 3189TIP3    H2 9525   6.771   0.277   1.839 -0.5152 -1.7665  0.9202
 3190TIP3   OH2 9526   4.536   1.459   5.364  0.0369  0.2032  0.3808
 3190TIP3    H1 9527   4.555   1.378   5.317 -1.3844  0.0443  0.0338
 3190TIP3    H2 9528   4.622   1.500   5.377  0.6849 -0.9166 -0.2214
 3191TIP3   OH2 9529   2.222   5.146   6.166  0.3531 -0.2000 -0.7190
 3191TIP3    H1 9530   2.197   5.054   6.169 -0.6385 -0.0101 -2.1527
 3191TIP3    H2 9531   2.148   5.190   6.125  1.0766  1.1476 -0.6568
 3192TIP3   OH2 9532   7.727   3.988   2.433  0.4782 -0.0405 -0.1456
 3192TIP3    H1 9533   7.787   4.021   2.500 -0.1475  0.4416  0.1882
 3192TIP3    H2 9534   7.645   3.970   2.480  0.7240 -1.8784 -0.3631
 3193TIP3   OH2 9535   7.019   0.855   0.134  0.1323  0.3490 -0.7705
 3193TIP3    H1 9536   7.064   0.868   0.217  1.8313 -1.5517 -1.2973
 3193TIP3    H2 9537   6.927   0.873   0.153  0.6554  1.2024  1.1801
 3194TIP3   OH2 9538   3.850   5.472   0.789 -0.1955 -0.3186  0.2668
 3194TIP3    H1 9539   3.845   5.475   0.885 -0.3521 -0.5199  0.2652
 3194TIP3    H2 9540   3.908   5.399   0.770  1.3583  0.8792  0.2428
 3195TIP3   OH2 9541   7.721   4.763   3.873  0.4544  0.2858 -0.0647
 3195TIP3    H1 9542   7.756   4.848   3.848 -0.5117  0.4682 -0.8644
 3195TIP3    H2 9543   7.775   4.700   3.824  0.6253  0.4746 -0.1205
 3196TIP3   OH2 9544   3.561   7.295   4.556  0.0415  0.2615 -0.0642
 3196TIP3    H1 9545   3.581   7.387   4.571 -2.1004  1.0802 -1.7871
 3196TIP3    H2 9546   3.529   7.291   4.466 -0.3075 -2.1093  0.0983
 3197TIP3   OH2 9547   0.370   2.335   2.930 -0.3925 -0.2957  0.1895
 3197TIP3    H1 9548   0.411   2.402   2.877 -0.3437 -0.4925 -0.0225
 3197TIP3    H2 9549   0.378   2.367   3.020 -0.6771  0.1435  0.0588
 3198TIP3   OH2 9550   3.178   2.561   6.088  0.2428 -0.6017  0.4168
 3198TIP3    H1 9551   3.166   2.556   6.183 -1.6994  2.2949  0.4422
 3198TIP3    H2 9552   3.090   2.547   6.052  0.7723 -0.6461 -0.9092
 3199TIP3   OH2 9553   7.150   4.537   0.155 -0.0909 -0.3033 -0.2311
 3199TIP3    H1 9554   7.131   4.551   0.063  0.2766  0.5933 -0.1890
 3199TIP3    H2 9555   7.193   4.452   0.159  0.3339 -0.1297 -0.9613
 3200TIP3   OH2 9556   7.654   0.034   2.696  0.8495  0.4285  0.3624
 3200TIP3    H1 9557   7.578   0.073   2.652  0.7874  1.9643  1.7196
 3200TIP3    H2 9558   7.670   0.092   2.771  2.2486 -0.8972  1.1335
 3201TIP3   OH2 9559   3.521   6.873   4.909  0.2787 -0.1239 -0.1273
 3201TIP3    H1 9560   3.505   6.951   4.855  0.5032  0.5339  0.7336
 3201TIP3    H2 9561   3.607   6.889   4.949 -0.5972  0.2031  1.7227
 3202TIP3   OH2 9562   5.808   1.223   3.235 -0.7445 -0.9783  0.0666
 3202TIP3    H1 9563   5.768   1.308   3.251  0.1577 -0.1605 -1.6829
 3202TIP3    H2 9564   5.886   1.221   3.291 -1.4755 -1.2365  1.0961
 3203TIP3   OH2 9565   1.627   7.431   5.296 -0.0892  0.0798  0.6984
 3203TIP3    H1 9566   1.602   7.339   5.281  0.9316 -0.1591  0.3883
 3203TIP3    H2 9567   1.715   7.437   5.261 -0.4451  1.3937 -0.0125
 3204TIP3   OH2 9568   0.524   2.368   0.879  0.3715 -0.1296  0.2364
 3204TIP3    H1 9569   0.559   2.299   0.822 -0.9641 -0.5526 -0.0985
 3204TIP3    H2 9570   0.530   2.448   0.826  2.3649  0.1580  0.7939
 3205TIP3   OH2 9571   3.268   0.534   1.352  0.3268 -0.2708 -0.5376
 3205TIP3    H1 9572   3.351   0.579   1.365  0.5229 -1.1090  1.3706
 3205TIP3    H2 9573   3.290   0.454   1.305  0.5724 -0.3895 -0.2220
 3206TIP3   OH2 9574   5.046   3.045   1.848  0.2222  0.1281  0.2946
 3206TIP3    H1 9575   5.103   3.112   1.810  0.3364  0.0488  0.3253
 3206TIP3    H2 9576   4.968   3.093   1.874  0.3109  0.2534  0.3343
 3207TIP3   OH2 9577   6.867   1.703   0.878 -0.1380 -0.1624  0.4848
 3207TIP3    H1 9578   6.917   1.738   0.804  1.8233  0.0416  1.8462
 3207TIP3    H2 9579   6.798   1.767   0.894  1.5621  1.6224  1.0253
 3208TIP3   OH2 9580   6.260   5.945   0.451 -0.5327 -0.4758  0.4420
 3208TIP3    H1 9581   6.291   5.869   0.403 -0.1599 -1.9260  2.8316
 3208TIP3    H2 9582   6.165   5.939   0.447 -0.5310 -1.8081  1.6053
 3209TIP3   OH2 9583   5.313   2.598   0.885  0.4410 -0.2982  0.4852
 3209TIP3    H1 9584   5.221   2.608   0.909  0.4244 -2.8368  1.7896
 3209TIP3    H2 9585   5.356   2.574   0.967  1.9229 -0.9987 -0.4796
 3210TIP3   OH2 9586   2.505   0.613   2.393  0.1342  0.3487  0.3221
 3210TIP3    H1 9587   2.570   0.547   2.371  1.8344  1.3382  2.1380
 3210TIP3    H2 9588   2.518   0.682   2.328  0.8969  0.5224  0.6509
 3211TIP3   OH2 9589   6.077   1.914   1.805 -0.1522  0.2105  0.1054
 3211TIP3    H1 9590   5.997   1.962   1.823 -0.2681  0.1858 -0.3454
 3211TIP3    H2 9591   6.065   1.830   1.851 -0.7872 -0.1698 -0.7262
 3212TIP3   OH2 9592   3.455   6.436   1.509  0.2173  0.0973  0.2584
 3212TIP3    H1 9593   3.438   6.426   1.415 -0.1002 -0.7263  0.3969
 3212TIP3    H2 9594   3.370   6.458   1.546  0.4300  0.8611  0.2967
 3213TIP3   OH2 9595   7.707   4.886   4.610  0.4552 -0.5812  0.1664
 3213TIP3    H1 9596   7.763   4.809   4.597  1.7273  0.2342  0.5728
 3213TIP3    H2 9597   7.620   4.857   4.583  1.1362 -1.7863 -0.8759
 3214TIP3   OH2 9598   7.895   0.222   3.283  0.0021  0.5042  0.1182
 3214TIP3    H1 9599   7.828   0.288   3.301 -0.2139  0.4270 -0.4072
 3214TIP3    H2 9600   7.871   0.185   3.198  0.8903  0.7018 -0.2298
 3215TIP3   OH2 9601   2.744   6.812   6.335 -0.5678  0.4434  0.7094
 3215TIP3    H1 9602   2.670   6.854   6.291 -1.5266 -0.6005  1.2950
 3215TIP3    H2 9603   2.766   6.738   6.278 -1.4887 -0.6161  1.6977
 3216TIP3   OH2 9604   4.928   0.919   3.420 -0.4789  0.6672 -0.0358
 3216TIP3    H1 9605   4.943   0.864   3.497 -1.0960  1.2992  0.5504
 3216TIP3    H2 9606   5.012   0.921   3.376 -0.2084 -0.0043  0.4265
 3217TIP3   OH2 9607   6.275   6.665   4.294  0.1503  0.1693  0.1176
 3217TIP3    H1 9608   6.282   6.599   4.362  1.4954  1.0633  0.8853
 3217TIP3    H2 9609   6.278   6.748   4.341  1.2091  0.8053 -1.0251
 3218TIP3   OH2 9610   0.612   0.124   2.474  0.0732  0.1194  0.2098
 3218TIP3    H1 9611   0.590   0.038   2.509  0.6115  0.5200  1.5921
 3218TIP3    H2 9612   0.703   0.116   2.447  0.2392  0.3590  0.6935
 3219TIP3   OH2 9613   5.697   3.162   1.110  0.2791 -0.4368  0.4860
 3219TIP3    H1 9614   5.779   3.191   1.150 -0.0066 -0.6195  1.2266
 3219TIP3    H2 9615   5.629   3.208   1.159 -0.1322 -1.5037  0.9517
 3220TIP3   OH2 9616   8.176   6.721   1.396 -0.1136 -0.1238  0.0576
 3220TIP3    H1 9617   8.157   6.700   1.305 -1.6920 -2.1186  0.7816
 3220TIP3    H2 9618   8.093   6.752   1.432  0.8939  2.4252  0.4411
 3221TIP3   OH2 9619   3.035   0.954   2.899  0.3312  0.4995 -0.1062
 3221TIP3    H1 9620   3.016   0.993   2.984  3.1602  1.2823  0.2763
 3221TIP3    H2 9621   2.995   1.013   2.836  0.8655  1.6575  0.6044
 3222TIP3   OH2 9622   3.793   4.356   1.083 -0.3314 -0.0311 -0.3987
 3222TIP3    H1 9623   3.739   4.393   1.153 -0.3451  2.2923 -1.5456
 3222TIP3    H2 9624   3.883   4.376   1.109 -0.0036 -2.5665  0.7587
 3223TIP3   OH2 9625   7.113   0.837   5.480 -0.5407  0.1902 -0.0171
 3223TIP3    H1 9626   7.191   0.784   5.496 -1.2937 -1.4965 -1.5946
 3223TIP3    H2 9627   7.147   0.920   5.447  0.6198  0.0038  0.6528
 3224TIP3   OH2 9628   6.800   0.068  -0.005  0.2202 -0.1172 -0.3880
 3224TIP3    H1 9629   6.709   0.063  -0.034  0.3344 -0.8901 -0.6250
 3224TIP3    H2 9630   6.799   0.133   0.066 -0.3177  0.6983 -1.1182
 3225TIP3   OH2 9631   1.954   3.505   1.135  0.2055  0.1203 -0.1212
 3225TIP3    H1 9632   2.015   3.514   1.208 -1.0258 -1.7526  1.2329
 3225TIP3    H2 9633   1.999   3.448   1.073 -1.0033 -3.4620  2.0467
 3226TIP3   OH2 9634   4.215   3.056   4.321 -0.2363  0.1899  0.3118
 3226TIP3    H1 9635   4.221   2.960   4.319 -2.4506 -0.0416  1.3323
 3226TIP3    H2 9636   4.299   3.086   4.288  0.4887 -2.1085 -0.1279
 3227TIP3   OH2 9637   2.604   1.085   0.483  0.1774  0.1186  0.5040
 3227TIP3    H1 9638   2.544   1.109   0.412  1.0472 -0.1731 -0.3534
 3227TIP3    H2 9639   2.671   1.152   0.481  0.4492 -0.1457  0.7566
 3228TIP3   OH2 9640   0.941   0.743   0.379  0.1861 -0.5137  0.1917
 3228TIP3    H1 9641   0.899   0.820   0.416  0.4861  0.0044 -0.5256
 3228TIP3    H2 9642   0.886   0.670   0.408 -2.4432  0.2776 -2.3171
 3229TIP3   OH2 9643   8.087   2.104   6.024 -0.0240  0.1107  0.1255
 3229TIP3    H1 9644   8.118   2.181   5.976  0.3783 -0.9568 -1.4450
 3229TIP3    H2 9645   8.074   2.134   6.113 -1.4437  2.4038 -0.7686
 3230TIP3   OH2 9646   3.065   0.315   2.837 -0.0029 -0.0609 -0.3041
 3230TIP3    H1 9647   3.027   0.297   2.751 -0.4308 -1.2150  0.1131
 3230TIP3    H2 9648   2.989   0.321   2.896  0.3594 -3.9052  0.8322
 3231TIP3   OH2 9649   7.738   3.030   4.248 -0.1751  0.2987 -0.2896
 3231TIP3    H1 9650   7.656   3.000   4.288  0.9788  0.6796  2.6207
 3231TIP3    H2 9651   7.804   3.014   4.315  1.4641  3.8479 -0.8482
 3232TIP3   OH2 9652   3.688   3.892   1.635  0.1481  0.3114 -0.0815
 3232TIP3    H1 9653   3.718   3.982   1.627  2.1432 -0.2935  0.0712
 3232TIP3    H2 9654   3.689   3.874   1.729 -0.9203  0.3167 -0.0519
 3233TIP3   OH2 9655   0.103   5.940   0.777 -0.2195  0.5573 -0.2806
 3233TIP3    H1 9656   0.064   5.919   0.862 -1.9979 -0.9314 -1.3826
 3233TIP3    H2 9657   0.029   5.940   0.716  0.9243  2.1341 -1.7556
 3234TIP3   OH2 9658   0.417   5.757   4.198 -0.3119 -0.0767  0.1461
 3234TIP3    H1 9659   0.480   5.745   4.127  0.8010  1.0657  0.8909
 3234TIP3    H2 9660   0.344   5.698   4.176 -0.2960  0.6822 -2.2397
 3235TIP3   OH2 9661   1.939   1.387   5.008 -0.1850 -0.3269  0.0616
 3235TIP3    H1 9662   1.943   1.299   4.971 -0.7783 -0.0629 -0.6629
 3235TIP3    H2 9663   2.030   1.414   5.016  0.0406 -1.3091  1.0621
 3236TIP3   OH2 9664   6.593   5.016   0.653  0.1751  0.1762 -0.0227
 3236TIP3    H1 9665   6.529   5.083   0.676  1.1471  1.2043 -0.2780
 3236TIP3    H2 9666   6.612   5.031   0.561  0.6486 -0.2564  0.0004
 3237TIP3   OH2 9667   4.219   7.432   5.466  0.1100  0.1739  0.4363
 3237TIP3    H1 9668   4.260   7.435   5.380 -3.0792  2.7377 -1.1893
 3237TIP3    H2 9669   4.159   7.357   5.461 -0.1417  0.3787  0.3914
 3238TIP3   OH2 9670   2.616   1.188   1.306  0.3132  0.2124  0.0437
 3238TIP3    H1 9671   2.617   1.194   1.211 -0.0668  0.3383  0.0480
 3238TIP3    H2 9672   2.700   1.148   1.328 -0.0186 -0.7692 -0.4008
 3239TIP3   OH2 9673   1.658   3.527   3.942  0.2191 -0.2321 -0.7243
 3239TIP3    H1 9674   1.740   3.559   3.979  0.0532  2.1083 -2.2283
 3239TIP3    H2 9675   1.591   3.552   4.006  0.5144 -1.0765 -0.0681
 3240TIP3   OH2 9676   3.163   6.471   3.066  0.2325  0.4175 -0.2990
 3240TIP3    H1 9677   3.095   6.499   3.004  1.4408  0.1562 -1.7884
 3240TIP3    H2 9678   3.162   6.375   3.060  0.3185  0.3888  0.1457
 3241TIP3   OH2 9679   2.188   0.596   5.363  0.3608  0.3827  0.8979
 3241TIP3    H1 9680   2.119   0.661   5.353 -1.4331 -1.5895 -0.4716
 3241TIP3    H2 9681   2.144   0.512   5.346  2.0434 -1.4689  4.4576
 3242TIP3   OH2 9682   4.803   2.873   2.125 -1.1870 -0.3057 -0.1835
 3242TIP3    H1 9683   4.774   2.820   2.051  0.2308  0.4080 -1.3064
 3242TIP3    H2 9684   4.725   2.919   2.155 -1.7472 -0.4541 -1.3667
 3243TIP3   OH2 9685   3.257   5.343   4.903  0.2415 -0.2829  0.2166
 3243TIP3    H1 9686   3.299   5.292   4.833  1.0011  0.2443  0.2739
 3243TIP3    H2 9687   3.288   5.303   4.984 -1.5149 -1.6067  0.2929
 3244TIP3   OH2 9688   8.151   1.483   5.302 -0.1091  0.4368 -0.1472
 3244TIP3    H1 9689   8.167   1.544   5.230 -0.6979  0.2346 -0.4496
 3244TIP3    H2 9690   8.174   1.533   5.381 -0.4006  0.9872 -0.4069
 3245TIP3   OH2 9691   1.337   1.041   5.385  0.2645 -0.3120  0.5037
 3245TIP3    H1 9692   1.354   0.951   5.359 -0.2155 -0.5419  0.9444
 3245TIP3    H2 9693   1.346   1.040   5.481 -0.2920 -0.0232  0.5649
 3246TIP3   OH2 9694   2.649   0.725   5.632  0.4412 -0.2320 -0.0122
 3246TIP3    H1 9695   2.679   0.649   5.581 -0.1712 -0.6473  0.2350
 3246TIP3    H2 9696   2.706   0.797   5.604  1.1702 -0.8306 -0.0913
 3247TIP3   OH2 9697   7.487   4.603   5.696 -0.3049  0.2187  0.1268
 3247TIP3    H1 9698   7.475   4.696   5.680  0.3470  0.5342  1.3302
 3247TIP3    H2 9699   7.509   4.566   5.610 -1.5791  0.9767 -0.5556
 3248TIP3   OH2 9700   7.685   7.177   0.510  0.3183 -0.2904  1.0486
 3248TIP3    H1 9701   7.698   7.231   0.588  0.0515 -0.4923  1.2304
 3248TIP3    H2 9702   7.672   7.240   0.439  1.1692 -0.0942  1.0565
 3249TIP3   OH2 9703   4.217   6.991   4.864 -0.0480  0.0862  0.0727
 3249TIP3    H1 9704   4.261   7.053   4.923 -0.1493  0.7929 -0.5881
 3249TIP3    H2 9705   4.288   6.935   4.832  0.3595  1.0587 -0.7887
 3250TIP3   OH2 9706   6.727   0.898   0.796 -0.1628  0.1703  0.4985
 3250TIP3    H1 9707   6.636   0.872   0.813  0.0456 -0.3094  0.9123
 3250TIP3    H2 9708   6.760   0.927   0.881  1.0610 -2.7651  1.1411
 3251TIP3   OH2 9709   6.589   3.678   2.552  0.0819  0.2684  0.3390
 3251TIP3    H1 9710   6.593   3.706   2.460 -1.1026 -1.7870 -0.4049
 3251TIP3    H2 9711   6.593   3.760   2.602  0.8533  1.4402 -1.5171
 3252TIP3   OH2 9712   6.807   0.689   1.525 -0.4101  0.1143  0.6225
 3252TIP3    H1 9713   6.822   0.779   1.497 -2.1653 -0.0430 -0.9749
 3252TIP3    H2 9714   6.787   0.696   1.618  1.6104  1.0943  1.0476
 3253TIP3   OH2 9715   7.859   6.622   3.616  0.5752  0.1687 -0.3218
 3253TIP3    H1 9716   7.811   6.543   3.588 -1.7277  0.9009  1.2365
 3253TIP3    H2 9717   7.898   6.597   3.700  0.7349  0.3683 -0.3377
 3254TIP3   OH2 9718   0.498   7.369   1.998 -0.2866  0.7039 -0.2510
 3254TIP3    H1 9719   0.421   7.374   2.056 -1.1892 -1.9884 -1.0303
 3254TIP3    H2 9720   0.562   7.319   2.049 -0.7722 -0.9354 -1.1788
 3255TIP3   OH2 9721   5.329   0.364   0.065 -0.0033  0.7150  0.2207
 3255TIP3    H1 9722   5.393   0.347   0.134  1.2720  2.9438 -0.3372
 3255TIP3    H2 9723   5.264   0.421   0.106 -1.6379 -1.3614  0.7235
 3256TIP3   OH2 9724   7.530   1.762   5.473 -0.1081  0.2577 -0.4090
 3256TIP3    H1 9725   7.537   1.724   5.561 -0.4744  0.8461 -0.1189
 3256TIP3    H2 9726   7.440   1.745   5.447 -0.0341  0.1945 -0.6239
 3257TIP3   OH2 9727   6.322   3.841   4.830  0.2110  0.0386 -0.0001
 3257TIP3    H1 9728   6.357   3.780   4.895  0.7361  1.8486  1.5035
 3257TIP3    H2 9729   6.340   3.799   4.746  1.4919 -1.3823  0.9161
 3258TIP3   OH2 9730   6.545   0.998   5.432 -0.4044  0.0348  0.2539
 3258TIP3    H1 9731   6.482   1.065   5.406 -0.0041 -0.2531 -1.5986
 3258TIP3    H2 9732   6.585   0.970   5.350  1.6964 -0.2379  1.3200
 3259TIP3   OH2 9733   7.608   4.811   1.024  0.2012 -0.0223 -0.0584
 3259TIP3    H1 9734   7.545   4.869   0.980  1.2554  0.5494 -0.8495
 3259TIP3    H2 9735   7.583   4.723   0.997 -0.6642  0.1413  0.1741
 3260TIP3   OH2 9736   0.984   1.066   4.519 -0.4404 -0.1173  0.0987
 3260TIP3    H1 9737   1.001   0.986   4.469 -1.1265 -0.5780  0.5996
 3260TIP3    H2 9738   0.894   1.089   4.499 -0.0882  0.8458 -0.4653
 3261TIP3   OH2 9739   7.944   2.097   4.148 -0.5402  0.3659  0.5279
 3261TIP3    H1 9740   7.872   2.148   4.111 -2.0297 -0.6319  1.9002
 3261TIP3    H2 9741   7.959   2.026   4.085 -0.9249  0.4460  0.3416
 3262TIP3   OH2 9742   0.770   4.510   6.035  0.8449  0.1035 -0.0456
 3262TIP3    H1 9743   0.694   4.554   6.072  1.0466 -0.1339  0.6574
 3262TIP3    H2 9744   0.811   4.466   6.109  1.5873  0.1078 -0.4488
 3263TIP3   OH2 9745   4.484   5.699   4.913  0.1421  0.0824  0.1398
 3263TIP3    H1 9746   4.445   5.768   4.968 -0.3282 -1.3197  1.6492
 3263TIP3    H2 9747   4.444   5.712   4.828 -1.0330  0.8134  0.7695
 3264TIP3   OH2 9748   4.094   6.558   3.988 -0.3143 -0.1002 -0.5997
 3264TIP3    H1 9749   4.175   6.606   4.008  0.7621 -1.3680 -1.7003
 3264TIP3    H2 9750   4.025   6.623   3.997  0.8762  1.1383 -0.0480
 3265TIP3   OH2 9751   7.995   2.243   1.543 -0.7372  0.3290  0.1954
 3265TIP3    H1 9752   7.970   2.176   1.480 -2.3764  2.0130 -1.0395
 3265TIP3    H2 9753   7.960   2.212   1.627 -0.3416 -0.9511 -0.1043
 3266TIP3   OH2 9754   6.815   2.227   4.075 -0.1877  0.0945 -0.2869
 3266TIP3    H1 9755   6.765   2.237   3.994 -2.4056 -0.9702  0.8481
 3266TIP3    H2 9756   6.863   2.309   4.085  0.2431  0.1894 -2.7092
 3267TIP3   OH2 9757   1.208   7.083   3.541 -0.0387  0.2652 -0.3095
 3267TIP3    H1 9758   1.294   7.070   3.504  0.4293  0.8005  0.5401
 3267TIP3    H2 9759   1.218   7.160   3.597 -0.8001 -0.2802  0.6109
 3268TIP3   OH2 9760   6.624   6.130   6.036 -0.2091 -0.0700  0.1714
 3268TIP3    H1 9761   6.550   6.189   6.051 -0.9270 -0.8835 -0.1321
 3268TIP3    H2 9762   6.651   6.103   6.123 -0.6063 -0.1739  0.2652
 3269TIP3   OH2 9763   8.186   2.430   3.480  0.0654 -0.2619  0.1316
 3269TIP3    H1 9764   8.161   2.428   3.388  0.3550  0.3218  0.0384
 3269TIP3    H2 9765   8.281   2.444   3.480  0.3575 -1.9781  0.4902
 3270TIP3   OH2 9766   2.932   2.218   1.702  0.1790 -0.1635  0.3406
 3270TIP3    H1 9767   2.927   2.307   1.738 -0.1776 -0.5227  1.1982
 3270TIP3    H2 9768   2.874   2.220   1.627 -0.2299  0.1924  0.6572
 3271TIP3   OH2 9769   0.351   2.619   1.780 -0.0452  0.0608 -0.0423
 3271TIP3    H1 9770   0.446   2.613   1.790 -0.1173  0.2609  0.7880
 3271TIP3    H2 9771   0.316   2.599   1.866 -0.7158  0.9376 -0.0968
 3272TIP3   OH2 9772   5.640   1.459   1.347 -0.3984  0.1717 -0.6780
 3272TIP3    H1 9773   5.558   1.501   1.321  0.4616  1.9674 -0.6085
 3272TIP3    H2 9774   5.705   1.493   1.285  0.6408  0.2567  0.4274
 3273TIP3   OH2 9775   2.190   0.713   0.858 -0.6250  0.0223 -0.1064
 3273TIP3    H1 9776   2.191   0.749   0.947  0.2693 -1.6752  0.6350
 3273TIP3    H2 9777   2.273   0.743   0.820  0.1028 -1.1340  0.4973
 3274TIP3   OH2 9778   5.732   3.738   4.466  0.1139  0.2687 -0.3062
 3274TIP3    H1 9779   5.793   3.807   4.438  0.5571  0.0843  0.1843
 3274TIP3    H2 9780   5.705   3.765   4.554 -1.7026  1.1359 -1.0715
 3275TIP3   OH2 9781   2.582   1.930   3.169 -0.2307  0.2060 -0.0832
 3275TIP3    H1 9782   2.506   1.913   3.225  0.9860 -0.0848  1.5597
 3275TIP3    H2 9783   2.599   1.846   3.126 -0.0677 -0.0956  0.5548
 3276TIP3   OH2 9784   1.941   5.686   0.435 -0.1031  0.0947 -0.7038
 3276TIP3    H1 9785   1.879   5.757   0.418 -0.4560 -0.1682 -0.5303
 3276TIP3    H2 9786   2.025   5.718   0.400 -0.8277 -0.5162 -3.1883
 3277TIP3   OH2 9787   7.199   1.556   5.056 -0.7160  0.3249 -0.3605
 3277TIP3    H1 9788   7.266   1.572   5.122  0.3302 -1.2949 -0.9708
 3277TIP3    H2 9789   7.127   1.515   5.105  0.4257 -1.7342 -0.3041
 3278TIP3   OH2 9790   4.270   6.439   0.763 -0.0771 -0.2393 -0.1879
 3278TIP3    H1 9791   4.197   6.500   0.771  0.6263  0.5532  0.4307
 3278TIP3    H2 9792   4.303   6.429   0.852 -0.1307 -1.4934 -0.2881
 3279TIP3   OH2 9793   7.477   2.258   4.821 -0.1138  0.4309 -0.2184
 3279TIP3    H1 9794   7.527   2.212   4.753  0.1155  1.3123 -0.6513
 3279TIP3    H2 9795   7.480   2.199   4.897 -0.6997 -0.7477 -1.0722
 3280TIP3   OH2 9796   4.393   0.647   0.265  0.1737 -0.2171  0.0341
 3280TIP3    H1 9797   4.475   0.634   0.217 -0.6217 -0.0571 -1.4192
 3280TIP3    H2 9798   4.396   0.740   0.291  0.0517  0.0294 -0.8085
 3281TIP3   OH2 9799   2.888   1.301   0.565 -0.0690 -0.5937  0.1784
 3281TIP3    H1 9800   2.983   1.316   0.565  0.1465 -1.8478  1.1023
 3281TIP3    H2 9801   2.851   1.389   0.558  1.1602  0.0367  1.1173
 3282TIP3   OH2 9802   3.686   0.130   0.760 -0.4022 -0.3006 -0.4008
 3282TIP3    H1 9803   3.715   0.083   0.682  0.8379  1.3378 -0.9860
 3282TIP3    H2 9804   3.740   0.209   0.762 -1.2113  0.2664  1.4859
 3283TIP3   OH2 9805   2.888   2.866   5.812  0.2469 -0.2972  0.0528
 3283TIP3    H1 9806   2.795   2.860   5.790  0.0571 -0.0470  0.7442
 3283TIP3    H2 9807   2.904   2.960   5.825  0.7080 -0.2924 -0.4974
 3284TIP3   OH2 9808   7.154   0.511   6.611  0.2031  0.3457 -0.3895
 3284TIP3    H1 9809   7.191   0.596   6.635  0.5228 -0.2504  1.3814
 3284TIP3    H2 9810   7.083   0.497   6.675  1.4041 -1.5445  0.6245
 3285TIP3   OH2 9811   6.365   2.240   6.402 -0.1077 -0.1963 -0.0925
 3285TIP3    H1 9812   6.394   2.252   6.312 -1.7562  1.1663 -0.5048
 3285TIP3    H2 9813   6.333   2.150   6.404 -0.3680 -0.1388 -0.9844
 3286TIP3   OH2 9814   5.776   3.710   5.686 -0.4249  0.0007  0.0928
 3286TIP3    H1 9815   5.807   3.657   5.759 -1.9783 -1.7843 -0.4794
 3286TIP3    H2 9816   5.722   3.651   5.634  0.0769  1.4041 -2.1558
 3287TIP3   OH2 9817   7.439   4.901   5.869 -0.3672  0.4683  0.3336
 3287TIP3    H1 9818   7.514   4.888   5.928  0.0379  2.5725  0.3506
 3287TIP3    H2 9819   7.476   4.893   5.781 -0.4229  0.0664  0.3451
 3288TIP3   OH2 9820   5.573   3.370   3.957 -0.1212  0.5533 -0.6049
 3288TIP3    H1 9821   5.563   3.363   4.052 -0.2778 -3.1871 -0.7623
 3288TIP3    H2 9822   5.665   3.347   3.941 -0.2994  0.3978 -1.4195
 3289TIP3   OH2 9823   3.645   5.129   5.067 -0.0244 -0.4666 -0.1452
 3289TIP3    H1 9824   3.613   5.210   5.106  0.2009 -1.0880  1.3850
 3289TIP3    H2 9825   3.735   5.150   5.039 -0.3163  0.0879 -0.6957
 3290TIP3   OH2 9826   4.473   0.071   3.844 -0.3239  0.1025 -0.5586
 3290TIP3    H1 9827   4.557   0.117   3.841 -0.7645  0.8976 -0.7926
 3290TIP3    H2 9828   4.473   0.028   3.929  0.6828 -0.6023 -0.8924
 3291TIP3   OH2 9829   5.399   2.913   6.743 -0.3081  0.7753  0.1515
 3291TIP3    H1 9830   5.485   2.952   6.727  0.8923 -1.6953  0.1135
 3291TIP3    H2 9831   5.406   2.877   6.832 -1.5875  1.1812  0.4316
 3292TIP3   OH2 9832   5.388   6.440   3.644 -0.2548  0.3369 -0.2429
 3292TIP3    H1 9833   5.327   6.507   3.613 -0.3162  0.1349 -0.5652
 3292TIP3    H2 9834   5.356   6.416   3.731  1.7027  3.1587  1.4051
 3293TIP3   OH2 9835   4.258   0.196   3.446 -0.5463  0.0591 -0.2331
 3293TIP3    H1 9836   4.297   0.108   3.454  1.3536  0.9441  1.0036
 3293TIP3    H2 9837   4.206   0.205   3.526 -1.6557 -0.3319 -0.8934
 3294TIP3   OH2 9838   5.257   1.556   5.850 -0.0547 -0.5543 -0.1592
 3294TIP3    H1 9839   5.268   1.593   5.937  0.9717  0.1858 -0.5925
 3294TIP3    H2 9840   5.280   1.463   5.860 -0.3437 -0.5647  0.4342
 3295TIP3   OH2 9841   5.964   0.577   5.163  0.0352 -0.3029 -0.0638
 3295TIP3    H1 9842   6.058   0.571   5.183  0.0425  1.3412  0.5135
 3295TIP3    H2 9843   5.923   0.592   5.248 -0.7127 -0.5392 -0.3766
 3296TIP3   OH2 9844   0.209   2.618   5.872  0.1055 -0.7861  0.5690
 3296TIP3    H1 9845   0.225   2.617   5.966  0.0211 -0.7334  0.5848
 3296TIP3    H2 9846   0.127   2.668   5.862  0.7864  0.3128  0.3638
 3297TIP3   OH2 9847   3.908   4.795   5.635 -0.1691  0.6164 -0.1569
 3297TIP3    H1 9848   3.914   4.712   5.682  1.2151  1.5619  1.4478
 3297TIP3    H2 9849   3.815   4.807   5.617 -0.6371 -0.2780  1.4948
 3298TIP3   OH2 9850   5.947   6.043   2.330 -0.4666  0.4736 -0.5334
 3298TIP3    H1 9851   5.898   6.114   2.290  0.6928 -0.5102 -3.9947
 3298TIP3    H2 9852   6.028   6.037   2.279  0.0189 -2.5213  0.3845
 3299TIP3   OH2 9853   7.490   2.797   3.155  0.2159  0.3156 -0.2344
 3299TIP3    H1 9854   7.501   2.873   3.213 -1.4375  0.0173  0.5369
 3299TIP3    H2 9855   7.460   2.727   3.213  3.0599 -1.4205 -0.6640
 3300TIP3   OH2 9856   2.146   4.504   2.139 -0.2752 -0.1669 -0.0478
 3300TIP3    H1 9857   2.059   4.530   2.166  0.4786  1.2690  1.1361
 3300TIP3    H2 9858   2.195   4.494   2.221  1.2535  1.2436 -0.7183
 3301TIP3   OH2 9859   1.018   6.253   2.877 -0.3194 -0.2281  0.2182
 3301TIP3    H1 9860   1.007   6.167   2.918 -1.5513 -1.1920 -1.9264
 3301TIP3    H2 9861   0.965   6.312   2.929  1.4869 -0.4231  2.4663
 3302TIP3   OH2 9862   0.926   7.156   0.149  0.3435  0.6294 -0.9532
 3302TIP3    H1 9863   1.015   7.122   0.141  0.8275  1.7979 -0.7956
 3302TIP3    H2 9864   0.938   7.246   0.180 -1.0033 -0.1441  2.1771
 3303TIP3   OH2 9865   6.322   2.554   2.480 -0.0434  0.1372  0.3335
 3303TIP3    H1 9866   6.308   2.630   2.422  1.4585 -1.0472 -1.7428
 3303TIP3    H2 9867   6.281   2.579   2.563 -0.0340  3.0098 -0.4162
 3304TIP3   OH2 9868   7.157   4.036   4.168 -0.7602 -0.6608 -0.2538
 3304TIP3    H1 9869   7.184   3.988   4.089  0.8505  1.2189 -0.9399
 3304TIP3    H2 9870   7.239   4.068   4.205 -1.7143  1.2074  0.3603
 3305TIP3   OH2 9871   0.123   7.132   2.076 -0.5477  0.0593  0.4225
 3305TIP3    H1 9872   0.105   7.073   2.149  0.3524  0.0971  0.6894
 3305TIP3    H2 9873   0.141   7.073   2.002  1.0563 -0.0531  0.8572
 3306TIP3   OH2 9874   1.954   4.291   2.335  0.0787 -0.0483 -0.2163
 3306TIP3    H1 9875   1.880   4.269   2.392 -0.0199  0.2526 -0.2229
 3306TIP3    H2 9876   1.937   4.382   2.309  0.1128 -0.1926 -0.7471
 3307TIP3   OH2 9877   2.393   3.474   3.721 -0.4291 -0.0289  0.2911
 3307TIP3    H1 9878   2.456   3.418   3.766 -0.4680 -0.3403 -0.0346
 3307TIP3    H2 9879   2.419   3.470   3.629 -0.9570 -0.2122  0.1436
 3308TIP3   OH2 9880   7.787   0.743   6.534 -0.1635  0.0708  0.4082
 3308TIP3    H1 9881   7.876   0.765   6.564  1.0624 -2.0176 -1.3881
 3308TIP3    H2 9882   7.776   0.651   6.557 -1.5531  0.0925 -0.0890
 3309TIP3   OH2 9883   4.839   0.176   1.457  0.1340 -0.1234 -0.5172
 3309TIP3    H1 9884   4.900   0.137   1.394 -0.3257 -1.8112  0.0293
 3309TIP3    H2 9885   4.794   0.244   1.407  1.0970 -0.1571 -1.4734
 3310TIP3   OH2 9886   4.906   5.713   1.127 -0.1928  0.5885 -0.1261
 3310TIP3    H1 9887   4.849   5.661   1.184 -0.2216  1.1447  0.3642
 3310TIP3    H2 9888   4.893   5.803   1.156  0.0568  0.8474 -0.7898
 3311TIP3   OH2 9889   1.756   5.360   4.580  0.9204  0.3076  0.3739
 3311TIP3    H1 9890   1.769   5.441   4.530  0.4691 -0.5145 -1.1180
 3311TIP3    H2 9891   1.703   5.305   4.523  0.0404 -0.5292  1.9385
 3312TIP3   OH2 9892   8.115   4.912   6.253  0.8037  0.4184 -0.3435
 3312TIP3    H1 9893   8.189   4.970   6.272  1.1304  0.6301 -2.0968
 3312TIP3    H2 9894   8.101   4.865   6.334  3.8543 -0.7067 -0.3257
 3313TIP3   OH2 9895   5.122   7.611   3.798  0.5213 -0.1635 -0.0028
 3313TIP3    H1 9896   5.100   7.560   3.876  0.0635 -0.7452 -0.4992
 3313TIP3    H2 9897   5.117   7.702   3.827 -0.2126 -0.3539  0.5078
 3314TIP3   OH2 9898   2.684   6.993   5.080 -0.1111 -0.1550 -1.1283
 3314TIP3    H1 9899   2.752   7.042   5.032  0.4035 -0.2759 -0.5311
 3314TIP3    H2 9900   2.698   7.016   5.172 -0.9362 -0.1226 -1.0025
 3315TIP3   OH2 9901   4.046   5.957   3.545  0.1809  0.2952 -0.2362
 3315TIP3    H1 9902   3.976   5.903   3.583  0.6150 -0.9196 -1.1110
 3315TIP3    H2 9903   4.101   5.981   3.619 -0.7233  0.6335  0.3523
 3316TIP3   OH2 9904   6.201   0.516   4.304  0.1524 -0.4116  0.4115
 3316TIP3    H1 9905   6.207   0.608   4.329 -0.9096  0.1058 -1.0432
 3316TIP3    H2 9906   6.150   0.475   4.373  2.3299 -0.4153  2.1431
 3317TIP3   OH2 9907   0.233   6.634   3.270  0.4181 -0.1817  0.5236
 3317TIP3    H1 9908   0.147   6.594   3.259 -0.2911  1.4550 -0.2903
 3317TIP3    H2 9909   0.246   6.685   3.190  1.3510  1.0132  1.4019
 3318TIP3   OH2 9910   4.100   4.932   3.981 -0.1811 -0.4666  0.0998
 3318TIP3    H1 9911   4.162   5.005   3.977  0.3567 -0.6827  2.6991
 3318TIP3    H2 9912   4.014   4.974   3.980  0.0298 -0.0283 -1.4194
 3319TIP3   OH2 9913   3.615   7.581   6.328 -0.5628 -0.0111  0.1991
 3319TIP3    H1 9914   3.634   7.495   6.290  0.7500  0.3055  0.1043
 3319TIP3    H2 9915   3.672   7.587   6.405 -1.0692  0.5413  0.5423
 3320TIP3   OH2 9916   6.765   5.457   5.901  0.1391  0.3246 -0.0716
 3320TIP3    H1 9917   6.842   5.514   5.897 -0.8239  1.7833  1.2134
 3320TIP3    H2 9918   6.792   5.384   5.957 -0.0494  1.9615  2.2631
 3321TIP3   OH2 9919   2.013   3.955   5.459 -0.7871 -0.1221  0.1485
 3321TIP3    H1 9920   2.013   3.908   5.543  0.0606 -0.1153  0.1621
 3321TIP3    H2 9921   1.999   4.047   5.483 -3.0818 -0.4071  0.0752
 3322TIP3   OH2 9922   5.811   5.332   0.607 -0.4468 -0.3528  0.4870
 3322TIP3    H1 9923   5.762   5.376   0.677 -0.7722 -0.9037  0.6155
 3322TIP3    H2 9924   5.780   5.374   0.526  0.9129  1.2294  0.7248
 3323TIP3   OH2 9925   1.321   2.321   5.447  0.2131  0.7839 -0.5206
 3323TIP3    H1 9926   1.313   2.330   5.352 -1.8823  1.0058 -0.3823
 3323TIP3    H2 9927   1.230   2.315   5.478  0.8879 -1.8770  1.2482
 3324TIP3   OH2 9928   3.193   3.593   3.509  0.0695  0.1014  0.0716
 3324TIP3    H1 9929   3.222   3.657   3.574  0.2594 -1.3521  1.4981
 3324TIP3    H2 9930   3.263   3.527   3.507 -1.4266 -1.6142  0.9331
 3325TIP3   OH2 9931   2.086   2.094   5.586  0.8713 -0.1321 -0.0296
 3325TIP3    H1 9932   2.025   2.058   5.650  0.6861  2.4311  1.3890
 3325TIP3    H2 9933   2.173   2.078   5.623  1.0570 -2.2549 -1.2170
 3326TIP3   OH2 9934   1.040   3.611   0.749 -0.3053 -0.4457 -0.3494
 3326TIP3    H1 9935   0.955   3.568   0.760 -0.9681  0.6688 -0.9986
 3326TIP3    H2 9936   1.050   3.622   0.654  0.6047 -0.6213 -0.2892
 3327TIP3   OH2 9937   5.251   5.221   3.139  0.2492  1.0360  0.3403
 3327TIP3    H1 9938   5.319   5.285   3.162  0.5930  0.6170  0.4886
 3327TIP3    H2 9939   5.258   5.153   3.206 -0.8587  1.3880  0.8342
 3328TIP3   OH2 9940   6.164   7.628   5.223  0.3876 -0.4230  0.1752
 3328TIP3    H1 9941   6.251   7.658   5.248  0.4239  0.7316 -1.2499
 3328TIP3    H2 9942   6.153   7.657   5.133 -1.1435 -1.3092  0.0423
 3329TIP3   OH2 9943   6.450   7.146   0.944  0.5465 -0.3634 -0.4707
 3329TIP3    H1 9944   6.467   7.201   0.868  1.0930 -0.9214 -0.7605
 3329TIP3    H2 9945   6.448   7.057   0.909 -0.9672 -0.4969 -0.1206
 3330TIP3   OH2 9946   2.324   5.305   3.196  0.2061 -0.2125 -0.2126
 3330TIP3    H1 9947   2.250   5.282   3.252  0.0731  0.8033  0.0462
 3330TIP3    H2 9948   2.339   5.398   3.214  0.2449  0.0948 -1.7725
 3331TIP3   OH2 9949   1.647   3.310   4.951 -0.0079  0.0575 -0.1109
 3331TIP3    H1 9950   1.561   3.297   4.991  0.1325 -1.1658 -0.1638
 3331TIP3    H2 9951   1.678   3.221   4.932  0.8318  0.5216 -1.0138
 3332TIP3   OH2 9952   0.342   4.334   4.917  0.4298 -0.1047  0.0859
 3332TIP3    H1 9953   0.437   4.341   4.904  0.3700  1.8144  0.4324
 3332TIP3    H2 9954   0.312   4.424   4.928 -1.5672 -0.5919 -0.7966
 3333TIP3   OH2 9955   7.144   4.603   6.048 -0.1267  0.8035  0.4844
 3333TIP3    H1 9956   7.160   4.657   5.971 -1.3794 -0.2552 -0.5619
 3333TIP3    H2 9957   7.199   4.526   6.035 -2.1927 -0.5566 -0.6746
 3334TIP3   OH2 9958   4.879   2.760   0.358  0.0897 -0.2772 -0.2878
 3334TIP3    H1 9959   4.905   2.820   0.289  0.3667  0.5037  0.4845
 3334TIP3    H2 9960   4.784   2.750   0.346 -0.1490  1.1428  0.1939
 3335TIP3   OH2 9961   3.071   4.849   2.317 -0.0578 -0.5743 -0.0000
 3335TIP3    H1 9962   3.029   4.859   2.403 -0.2335 -2.1107  0.1227
 3335TIP3    H2 9963   3.065   4.755   2.299 -1.1280 -0.1346 -2.2514
 3336TIP3   OH2 9964   8.175   0.850   4.292  0.3253 -0.1164 -0.5645
 3336TIP3    H1 9965   8.218   0.876   4.211 -0.7470  1.2865 -0.7274
 3336TIP3    H2 9966   8.232   0.884   4.361  0.2740  0.3852 -0.7620
 3337TIP3   OH2 9967   3.769   3.417   4.303 -0.2874  0.3035 -0.4544
 3337TIP3    H1 9968   3.712   3.453   4.235 -1.4216  1.1942  0.8898
 3337TIP3    H2 9969   3.801   3.494   4.351  0.4995 -0.2910 -0.0119
 3338TIP3   OH2 9970   5.152   4.560   1.584 -0.1509 -0.1522  0.1832
 3338TIP3    H1 9971   5.214   4.583   1.653  0.1214  1.1369 -0.4510
 3338TIP3    H2 9972   5.133   4.643   1.541  0.8406 -1.1082 -2.2616
 3339TIP3   OH2 9973   1.302   7.236  -0.004 -0.0032  0.5119  0.1868
 3339TIP3    H1 9974   1.338   7.204   0.079 -0.6184 -1.2985 -0.2021
 3339TIP3    H2 9975   1.213   7.264   0.018  0.2862  1.2962  0.3842
 3340TIP3   OH2 9976   2.522   3.992   5.391  0.5024  0.1509  0.0197
 3340TIP3    H1 9977   2.560   3.984   5.478  0.8650 -1.8030 -0.2707
 3340TIP3    H2 9978   2.431   3.964   5.401  0.1666  1.2038  0.0043
 3341TIP3   OH2 9979   6.974   1.396   5.037 -0.1407 -0.3097  0.4651
 3341TIP3    H1 9980   6.955   1.306   5.011  0.4438 -0.1332 -0.6068
 3341TIP3    H2 9981   6.989   1.442   4.955  0.5945  0.5326  1.0553
 3342TIP3   OH2 9982   1.670   3.072   3.123  0.0007  0.0543 -0.1193
 3342TIP3    H1 9983   1.634   2.983   3.122  1.4116 -0.5583  0.2609
 3342TIP3    H2 9984   1.736   3.071   3.053 -0.5185  1.0634 -0.6451
 3343TIP3   OH2 9985   6.607   5.503   1.305  0.1782 -0.1430  0.6669
 3343TIP3    H1 9986   6.523   5.474   1.270 -0.1324 -0.6064  1.7693
 3343TIP3    H2 9987   6.603   5.483   1.398  1.2951  0.3455  0.8381
 3344TIP3   OH2 9988   4.370   4.760   2.438  0.1654  0.3060  0.1216
 3344TIP3    H1 9989   4.332   4.835   2.483  0.5835  0.4744  0.2018
 3344TIP3    H2 9990   4.322   4.685   2.472  2.1746  0.1081  2.8940
 3345TIP3   OH2 9991   6.147   0.684   2.098  0.1033  0.2321  0.4410
 3345TIP3    H1 9992   6.190   0.683   2.183 -0.3076 -1.1066  0.6663
 3345TIP3    H2 9993   6.117   0.774   2.086 -0.2615  0.3165  1.9204
 3346TIP3   OH2 9994   0.905   6.683   5.263 -0.1666 -0.2343 -0.4496
 3346TIP3    H1 9995   0.916   6.708   5.171 -1.1027  0.8439 -0.2919
 3346TIP3    H2 9996   0.953   6.600   5.271  0.4076 -0.0569 -1.7630
 3347TIP3   OH2 9997   2.305   4.993   3.978  0.1740  0.1565  0.3959
 3347TIP3    H1 9998   2.224   4.950   4.006 -0.1551  0.3225 -0.2638
 3347TIP3    H2 9999   2.360   4.921   3.945 -0.0247  0.1357  0.1063
 3348TIP3   OH210000   7.279   1.754   1.051 -0.4129 -0.2790  0.4118
 3348TIP3    H110001   7.302   1.708   0.971 -1.3508 -0.5845  0.3175
 3348TIP3    H210002   7.205   1.706   1.087 -1.2748  1.0041  0.4296
 3349TIP3   OH210003   4.384   6.773   0.252 -0.2678 -0.4537 -0.3998
 3349TIP3    H110004   4.351   6.853   0.293  0.0192 -0.7886  0.5163
 3349TIP3    H210005   4.328   6.760   0.175 -1.7520 -0.5587  0.6571
 3350TIP3   OH210006   0.655   3.258   2.084  0.1867 -0.0715 -0.0069
 3350TIP3    H110007   0.702   3.315   2.144  1.2679  1.2871 -2.0136
 3350TIP3    H210008   0.715   3.184   2.070  0.2682 -0.0060 -0.0047
 3351TIP3   OH210009   3.810   0.258   4.233  0.0697  0.2061 -0.1734
 3351TIP3    H110010   3.883   0.313   4.259  0.2603  0.0543 -0.3895
 3351TIP3    H210011   3.760   0.312   4.172  0.6138 -0.0917 -0.8925
 3352TIP3   OH210012   2.950   5.656   1.902 -0.2539 -0.1188  0.2680
 3352TIP3    H110013   2.949   5.660   1.998 -1.4994 -0.9536  0.3234
 3352TIP3    H210014   2.910   5.571   1.882  2.6323 -1.3056 -0.9781
 3353TIP3   OH210015   0.940   6.338   1.936 -0.3298 -0.0349 -0.0432
 3353TIP3    H110016   0.930   6.367   2.027  0.4595  0.8734 -0.2328
 3353TIP3    H210017   1.030   6.307   1.931 -0.7726 -1.3795 -0.1824
 3354TIP3   OH210018   4.580   6.356   1.576 -0.7071 -0.3090  0.3472
 3354TIP3    H110019   4.581   6.446   1.609  0.3025 -0.4992  0.8771
 3354TIP3    H210020   4.538   6.305   1.646  0.1281 -0.4860  0.7275
 3355TIP3   OH210021   6.082   0.074   4.881 -0.0661  0.1185  0.2191
 3355TIP3    H110022   5.999   0.033   4.904 -0.2547  0.2828 -0.1640
 3355TIP3    H210023   6.059   0.139   4.815  0.2920  0.5336  0.4987
 3356TIP3   OH210024   6.396   2.273   2.075  0.2794  0.3887 -0.5289
 3356TIP3    H110025   6.351   2.356   2.057 -0.4653  0.2583  0.6136
 3356TIP3    H210026   6.330   2.206   2.058  0.6986  0.0645 -0.8777
 3357TIP3   OH210027   3.929   5.702   6.502  0.0626 -0.3899  0.1847
 3357TIP3    H110028   3.918   5.681   6.409 -0.7080 -0.7330  0.3492
 3357TIP3    H210029   3.955   5.794   6.503  2.0022 -0.8871 -0.4712
 3358TIP3   OH210030   6.565   2.808   1.576 -0.0828 -0.3410  0.4472
 3358TIP3    H110031   6.550   2.785   1.668 -0.4750 -1.7321  0.0643
 3358TIP3    H210032   6.659   2.794   1.562 -0.2559 -1.4534  0.3112
 3359TIP3   OH210033   0.022   5.464   5.767 -0.4300  0.6149 -0.4185
 3359TIP3    H110034   0.037   5.530   5.699  1.8923  0.9640  0.3548
 3359TIP3    H210035   0.087   5.396   5.749 -1.0704 -0.2122  0.3310
 3360TIP3   OH210036   1.490   2.182   1.569 -0.1397 -0.0500  0.5250
 3360TIP3    H110037   1.453   2.235   1.639 -2.1839 -1.3747  0.5312
 3360TIP3    H210038   1.452   2.095   1.582 -0.0533 -0.5073 -1.8388
 3361TIP3   OH210039   5.435   7.077   3.119  0.5221 -0.0408  0.3327
 3361TIP3    H110040   5.412   7.147   3.058 -1.3036  0.0546  1.0630
 3361TIP3    H210041   5.523   7.100   3.151 -0.6098  2.8445  1.7631
 3362TIP3   OH210042   5.067   0.345   1.065  0.0673  0.1468 -0.0502
 3362TIP3    H110043   5.115   0.345   1.148 -1.7199 -0.9577  1.0382
 3362TIP3    H210044   4.975   0.335   1.090 -0.4263 -1.4302 -2.2168
 3363TIP3   OH210045   0.177   3.633   2.548 -0.0732 -0.0209  0.5797
 3363TIP3    H110046   0.124   3.634   2.468 -0.3556  1.5991  0.7430
 3363TIP3    H210047   0.227   3.552   2.542 -1.0525 -0.5898 -0.5886
 3364TIP3   OH210048   1.448   3.216   2.962 -0.1293  0.1122 -0.0544
 3364TIP3    H110049   1.480   3.303   2.940  1.2237 -0.1640  0.7508
 3364TIP3    H210050   1.526   3.165   2.982 -1.0015 -0.7914  1.2590
 3365TIP3   OH210051   1.816   7.105   4.314 -0.3035  0.1301 -0.4158
 3365TIP3    H110052   1.842   7.096   4.222 -0.5236 -1.4555 -0.3455
 3365TIP3    H210053   1.882   7.056   4.363 -0.1145  1.0645  0.3137
 3366TIP3   OH210054   0.692   2.236   6.015 -0.3401 -0.0270  0.0295
 3366TIP3    H110055   0.734   2.322   6.018 -0.3378  0.0308 -1.1482
 3366TIP3    H210056   0.649   2.227   6.100 -1.0651  1.5108 -0.1372
 3367TIP3   OH210057   0.329   3.590   5.999  0.7545 -0.1432  0.2439
 3367TIP3    H110058   0.244   3.589   6.044  1.7428  2.8276  2.4328
 3367TIP3    H210059   0.383   3.529   6.048  0.3732 -0.8691 -0.2123
 3368TIP3   OH210060   0.057   1.254   6.209 -1.0075  0.5986 -0.4159
 3368TIP3    H110061   0.044   1.349   6.214  0.7182  0.8603 -0.3278
 3368TIP3    H210062   0.115   1.242   6.134  0.1966 -0.2137  0.6101
 3369TIP3   OH210063   7.865   4.389   2.326  0.0359 -0.2211  0.4014
 3369TIP3    H110064   7.889   4.406   2.416 -1.2769  0.4228  0.6648
 3369TIP3    H210065   7.771   4.369   2.329 -0.5154  1.8155 -1.0124
 3370TIP3   OH210066   1.328   0.065   3.950  0.2922  0.0502  0.1597
 3370TIP3    H110067   1.267  -0.008   3.961  0.9655 -0.6654 -0.6977
 3370TIP3    H210068   1.361   0.056   3.860  0.4826  1.3402  0.0807
 3371TIP3   OH210069   1.466   3.909   5.306  0.2526  0.2848 -0.1378
 3371TIP3    H110070   1.397   3.890   5.243  0.1278 -1.1930  0.4166
 3371TIP3    H210071   1.547   3.878   5.264  0.4230  0.8663 -0.2604
 3372TIP3   OH210072   5.759   4.710   5.105  0.3740 -0.3133 -0.4580
 3372TIP3    H110073   5.843   4.671   5.078  0.8824 -1.5145  2.5130
 3372TIP3    H210074   5.693   4.651   5.069  0.7058  0.7456 -2.9951
 3373TIP3   OH210075   5.543   0.441   0.582  0.2292 -0.2339 -0.1156
 3373TIP3    H110076   5.553   0.350   0.554  0.1273 -0.2766 -0.0154
 3373TIP3    H210077   5.455   0.465   0.553 -0.3989 -0.6970  1.3101
 3374TIP3   OH210078   7.565   1.877   3.770 -0.0649 -0.6256  0.2076
 3374TIP3    H110079   7.479   1.836   3.761 -1.3311  2.0337 -0.8252
 3374TIP3    H210080   7.618   1.839   3.699 -1.1603 -0.5539 -0.6721
 3375TIP3   OH210081   5.204   1.368   4.563  0.0498  0.8740  0.5116
 3375TIP3    H110082   5.200   1.274   4.575 -0.1836  1.1013  2.5697
 3375TIP3    H210083   5.113   1.394   4.548  0.1780  0.7405 -0.5902
 3376TIP3   OH210084   2.332   0.691   4.220 -0.5167 -0.1948  0.0602
 3376TIP3    H110085   2.269   0.763   4.218 -0.6655 -0.3286 -0.2368
 3376TIP3    H210086   2.303   0.635   4.292 -0.7593 -0.2698 -0.0933
 3377TIP3   OH210087   7.061   4.152   3.370  0.5383 -0.0986 -0.1291
 3377TIP3    H110088   7.034   4.153   3.462  2.5147  0.9655  0.4850
 3377TIP3    H210089   7.156   4.143   3.372  0.6348 -0.0052 -2.0685
 3378TIP3   OH210090   4.687   2.834   2.905  0.2172  0.4462  0.1136
 3378TIP3    H110091   4.643   2.852   2.822  0.7180  1.1667  0.0008
 3378TIP3    H210092   4.780   2.845   2.885  0.3565  0.3111  0.6945
 3379TIP3   OH210093   3.951   1.649   2.390 -0.3924  0.3919 -0.0406
 3379TIP3    H110094   3.940   1.564   2.348  0.2977 -0.0778  0.7154
 3379TIP3    H210095   3.887   1.705   2.346 -0.5151 -0.3834 -0.8866
 3380TIP3   OH210096   3.846   0.492   0.228 -0.0148  0.2746  0.3302
 3380TIP3    H110097   3.881   0.561   0.285 -1.7585  0.8031  0.8465
 3380TIP3    H210098   3.824   0.538   0.147 -1.0296  0.3162  0.6156
 3381TIP3   OH210099   2.339   6.941   4.571 -0.3365  0.4002 -0.6248
 3381TIP3    H110100   2.423   6.972   4.537  0.4030  0.6751  1.3273
 3381TIP3    H210101   2.297   7.019   4.607  0.1052 -0.2316  1.4193
 3382TIP3   OH210102   6.532   3.106   1.989 -0.0401 -0.2557  0.5604
 3382TIP3    H110103   6.583   3.050   1.931  0.1380  0.5525 -0.0958
 3382TIP3    H210104   6.574   3.192   1.981 -2.2014  0.7574 -1.0012
 3383TIP3   OH210105   5.616   0.522   1.318 -0.0688 -0.0665 -0.5684
 3383TIP3    H110106   5.623   0.482   1.232  2.7883  0.4231 -0.6417
 3383TIP3    H210107   5.623   0.449   1.379  1.0599 -0.1096 -0.7385
 3384TIP3   OH210108   0.537   1.211   0.884  0.1548  0.1187 -0.0413
 3384TIP3    H110109   0.488   1.146   0.833  1.5079 -2.2383  1.4488
 3384TIP3    H210110   0.618   1.225   0.835  0.1772  0.1068 -0.0084
 3385TIP3   OH210111   1.453   0.579   6.623  0.1838 -0.2394 -0.3160
 3385TIP3    H110112   1.516   0.508   6.637  1.7057  0.6818 -2.0087
 3385TIP3    H210113   1.401   0.550   6.548  0.4602  0.1839 -0.6757
 3386TIP3   OH210114   5.920   3.092   5.512 -0.3281  0.8083  0.2689
 3386TIP3    H110115   5.858   3.046   5.567  0.4486 -0.5010  0.0847
 3386TIP3    H210116   6.005   3.075   5.551  0.1907  0.2533 -1.0311
 3387TIP3   OH210117   5.365   0.397   3.988  0.5159 -0.2290 -0.1636
 3387TIP3    H110118   5.347   0.361   4.075 -3.4431  0.8941 -0.2915
 3387TIP3    H210119   5.403   0.483   4.006 -0.2735 -0.0012  0.5117
 3388TIP3   OH210120   4.268   2.284   1.000  0.1394  0.3063 -0.1607
 3388TIP3    H110121   4.194   2.265   1.057 -0.2103  1.8263 -0.0697
 3388TIP3    H210122   4.286   2.201   0.955 -1.5165 -0.1287 -0.0739
 3389TIP3   OH210123   2.260   3.061   4.628 -0.0197  0.5962 -0.2623
 3389TIP3    H110124   2.355   3.068   4.638  0.0097 -0.7075  0.5179
 3389TIP3    H210125   2.245   3.083   4.536  0.8993  1.8904 -0.1412
 3390TIP3   OH210126   2.401   2.947   1.301 -0.3317 -0.5821 -0.6473
 3390TIP3    H110127   2.333   3.007   1.272 -1.4442 -0.4648  1.9608
 3390TIP3    H210128   2.377   2.925   1.391  2.8949 -0.8271  0.2674
 3391TIP3   OH210129   5.279   6.112   2.659  0.2643 -0.1219  0.0533
 3391TIP3    H110130   5.263   6.037   2.601  0.9937  1.1786 -1.9392
 3391TIP3    H210131   5.228   6.092   2.737 -0.4161 -2.1963 -0.8278
 3392TIP3   OH210132   5.622   1.251   0.250  0.5194 -0.2374  0.7242
 3392TIP3    H110133   5.610   1.262   0.156 -0.5928  0.6551  0.9533
 3392TIP3    H210134   5.714   1.225   0.259  1.2741  1.7869 -0.4510
 3393TIP3   OH210135   1.234   6.822   6.198 -0.1685  0.1180 -0.1732
 3393TIP3    H110136   1.177   6.845   6.272  2.1479  2.1734  1.1197
 3393TIP3    H210137   1.193   6.864   6.123 -1.4699 -0.2363  0.3074
 3394TIP3   OH210138   3.667   3.115   2.852 -0.2005 -0.2082  0.1655
 3394TIP3    H110139   3.694   3.203   2.877  1.8953 -0.6164 -0.4876
 3394TIP3    H210140   3.627   3.125   2.766  1.3664 -0.0747 -0.5615
 3395TIP3   OH210141   3.218   6.519   1.605  0.2076 -0.2107 -0.4888
 3395TIP3    H110142   3.232   6.534   1.699  1.8908 -1.8273 -0.4048
 3395TIP3    H210143   3.124   6.505   1.596  0.0524 -0.2961  1.0182
 3396TIP3   OH210144   4.363   2.277   5.074 -0.2092  0.0561 -0.3992
 3396TIP3    H110145   4.302   2.343   5.042 -1.5076 -1.0825 -0.3819
 3396TIP3    H210146   4.448   2.321   5.074 -0.9842  1.6426 -0.5930
 3397TIP3   OH210147   2.618   6.830   2.115 -0.3534 -0.3183 -0.0698
 3397TIP3    H110148   2.676   6.769   2.069 -0.2353 -0.2996  0.0543
 3397TIP3    H210149   2.677   6.893   2.156 -0.5248  1.3361 -2.1880
 3398TIP3   OH210150   5.868   2.554   3.599  0.2412  0.0855 -0.3374
 3398TIP3    H110151   5.839   2.625   3.657 -0.3503 -0.1327 -0.3546
 3398TIP3    H210152   5.914   2.599   3.527  0.3608  0.4066 -0.0619
 3399TIP3   OH210153   5.999   5.882   0.496 -0.0528  0.4856 -0.8547
 3399TIP3    H110154   5.917   5.930   0.505  0.8054  1.7229  0.8790
 3399TIP3    H210155   6.001   5.824   0.572  0.1811 -0.3978 -1.5057
 3400TIP3   OH210156   6.048   7.770   1.337 -0.6350 -0.1832 -0.4942
 3400TIP3    H110157   5.961   7.785   1.376 -0.2508  0.0962  0.2811
 3400TIP3    H210158   6.098   7.726   1.406 -0.7529 -2.2103 -1.6408
 3401TIP3   OH210159   4.240   2.410   1.394  0.2186 -0.0935 -0.0690
 3401TIP3    H110160   4.186   2.347   1.347  0.1619 -0.1619  0.0876
 3401TIP3    H210161   4.178   2.460   1.447  0.3792 -0.6095  0.6149
 3402TIP3   OH210162   7.769   2.301   4.047  0.0213  0.1777 -0.3102
 3402TIP3    H110163   7.691   2.256   4.079 -1.3561  1.5459 -1.6294
 3402TIP3    H210164   7.772   2.382   4.098 -0.2177  0.7604 -1.2014
 3403TIP3   OH210165   5.914   6.721   3.400 -0.0742 -0.1507  0.2987
 3403TIP3    H110166   5.914   6.815   3.417  0.1290  0.2144 -1.5111
 3403TIP3    H210167   5.843   6.708   3.336 -0.7275 -1.3831  1.2272
 3404TIP3   OH210168   7.872   1.168   4.027  0.0786  0.2527  0.4696
 3404TIP3    H110169   7.892   1.250   3.982  0.3420  0.0971  0.3049
 3404TIP3    H210170   7.780   1.177   4.052 -0.3011  0.0130 -0.7957
 3405TIP3   OH210171   0.376   3.965   6.337 -0.3310 -0.2057 -0.1269
 3405TIP3    H110172   0.438   4.023   6.382 -0.5072  0.0644 -0.2337
 3405TIP3    H210173   0.422   3.881   6.333  0.1448  0.0629 -0.4481
 3406TIP3   OH210174   6.984   3.601   0.137 -0.0385  0.2544  0.6443
 3406TIP3    H110175   6.959   3.637   0.052  1.5162 -0.6199 -0.2240
 3406TIP3    H210176   6.931   3.521   0.145 -0.6596  0.6743  0.8086
 3407TIP3   OH210177   1.230   3.291   6.454  0.3087  0.3513 -0.6016
 3407TIP3    H110178   1.159   3.317   6.513  0.4589  2.4547 -1.2930
 3407TIP3    H210179   1.309   3.321   6.498  0.5509  0.5110 -1.1466
 3408TIP3   OH210180   2.530   4.197   5.836  0.1609  0.4316 -0.1986
 3408TIP3    H110181   2.504   4.135   5.904 -0.6933  1.3263  0.3158
 3408TIP3    H210182   2.624   4.210   5.850  0.2981 -0.5181 -0.1440
 3409TIP3   OH210183   4.214   7.583   4.963  0.4134  0.4753 -0.6903
 3409TIP3    H110184   4.297   7.623   4.939  1.3446 -0.3120  1.0205
 3409TIP3    H210185   4.229   7.489   4.958 -0.9232  0.2869 -2.0135
 3410TIP3   OH210186   0.855   6.056   4.604 -0.1673 -0.2625  0.1664
 3410TIP3    H110187   0.821   6.033   4.691  1.7289 -0.1002  1.0112
 3410TIP3    H210188   0.809   6.136   4.580  0.7662  0.8912  2.0042
 3411TIP3   OH210189   0.165   6.135   2.621  0.5417 -0.2380 -0.2362
 3411TIP3    H110190   0.225   6.139   2.546 -0.1261  0.9409 -0.7360
 3411TIP3    H210191   0.173   6.045   2.653  2.6813 -0.0700 -0.1907
 3412TIP3   OH210192   5.740   7.229   5.621 -0.0280  0.2545 -0.1617
 3412TIP3    H110193   5.794   7.199   5.694  0.9552  1.3552 -0.4120
 3412TIP3    H210194   5.771   7.177   5.546 -0.6192 -0.4372  0.0557
 3413TIP3   OH210195   0.601   4.326   1.655 -0.2755 -0.1541 -0.0978
 3413TIP3    H110196   0.524   4.276   1.681 -0.6211  0.3300 -0.1978
 3413TIP3    H210197   0.634   4.279   1.577 -0.4001 -0.4243  0.0099
 3414TIP3   OH210198   0.737   2.062   2.778 -0.5666  0.2078  0.5956
 3414TIP3    H110199   0.682   2.036   2.704 -0.1288 -0.0633  0.3584
 3414TIP3    H210200   0.678   2.108   2.838 -1.5530 -2.0181  1.4102
 3415TIP3   OH210201   0.566   2.811   2.494  0.5957  0.1563  0.0785
 3415TIP3    H110202   0.504   2.772   2.433  0.4178 -1.1951  1.0857
 3415TIP3    H210203   0.649   2.766   2.477  1.0787  1.2592 -0.5855
 3416TIP3   OH210204   3.015   2.418   0.780  0.1660  0.2974 -0.8251
 3416TIP3    H110205   2.943   2.455   0.830  0.8238  0.4002  0.0847
 3416TIP3    H210206   3.077   2.490   0.769 -0.2403  0.4403 -2.3489
 3417TIP3   OH210207   6.113   0.192   4.628 -0.1131 -0.2091  0.3427
 3417TIP3    H110208   6.059   0.143   4.566 -0.0757 -0.4449  0.4954
 3417TIP3    H210209   6.192   0.213   4.578 -0.9224  1.3593 -0.3297
 3418TIP3   OH210210   5.962   6.675   5.395  0.4674  0.5735  0.4600
 3418TIP3    H110211   5.965   6.585   5.362  1.1555  0.8847 -0.3871
 3418TIP3    H210212   5.869   6.694   5.405  0.3245 -0.4213  1.2091
 3419TIP3   OH210213   6.711   3.232   1.090  0.6768  0.1965  0.0583
 3419TIP3    H110214   6.687   3.322   1.069 -0.2183  0.2552  1.2447
 3419TIP3    H210215   6.755   3.238   1.175  2.4803 -0.2563 -0.7932
 3420TIP3   OH210216   4.892   1.193   4.949 -0.2976 -0.0962  0.5231
 3420TIP3    H110217   4.898   1.181   5.043 -0.5227  0.2330  0.5812
 3420TIP3    H210218   4.798   1.205   4.932 -0.0603  2.3746  0.5799
 3421TIP3   OH210219   3.960   0.424   1.604 -0.1004  0.9388 -0.6182
 3421TIP3    H110220   3.962   0.515   1.575  1.1910  0.7262 -1.2735
 3421TIP3    H210221   4.052   0.400   1.616 -0.2670 -0.8613 -2.3223
 3422TIP3   OH210222   1.440   2.649   3.980 -0.2215 -0.2087 -0.4458
 3422TIP3    H110223   1.517   2.596   3.997 -1.5594 -2.4401 -0.9607
 3422TIP3    H210224   1.399   2.660   4.066  0.1066  0.0931 -0.3256
 3423TIP3   OH210225   1.094   5.300   5.089 -0.2366 -0.0248 -0.3730
 3423TIP3    H110226   1.045   5.283   5.009  0.7459  0.1843 -1.0280
 3423TIP3    H210227   1.157   5.229   5.095 -0.5529 -0.2511  0.4287
 3424TIP3   OH210228   3.629   5.221   5.809 -0.2703  0.4107 -0.5791
 3424TIP3    H110229   3.576   5.180   5.877  1.7548 -0.6454  0.4436
 3424TIP3    H210230   3.576   5.214   5.729 -2.2577  0.7454  0.6369
 3425TIP3   OH210231   6.970   6.465   1.397 -0.2464  0.4658 -0.5326
 3425TIP3    H110232   6.992   6.381   1.356  1.2851  1.0189 -0.9235
 3425TIP3    H210233   7.042   6.480   1.459 -2.0503  0.0658  1.8239
 3426TIP3   OH210234   3.486   2.684   2.213 -0.1356 -0.0025 -0.3598
 3426TIP3    H110235   3.514   2.732   2.135 -1.4871 -1.6739 -1.9541
 3426TIP3    H210236   3.413   2.630   2.183  0.1345 -1.6647  1.7631
 3427TIP3   OH210237   4.739   3.175   4.201  0.3606 -0.2823 -0.4696
 3427TIP3    H110238   4.721   3.179   4.107 -0.9491 -1.8280 -0.3243
 3427TIP3    H210239   4.824   3.218   4.211  0.4496  0.0589 -2.3201
 3428TIP3   OH210240   4.374   1.275   0.293  0.4420 -0.7787 -0.2899
 3428TIP3    H110241   4.422   1.282   0.375  1.8523 -0.5715 -1.0973
 3428TIP3    H210242   4.347   1.184   0.288 -1.7614 -0.2942  1.5086
 3429TIP3   OH210243   1.696   7.263   3.914  0.2814  0.0662  0.6727
 3429TIP3    H110244   1.649   7.345   3.896  1.0210  0.8775  2.2507
 3429TIP3    H210245   1.737   7.240   3.831  0.4179  1.5508  0.3053
 3430TIP3   OH210246   3.537   3.037   0.436 -0.5135  0.2665  0.2287
 3430TIP3    H110247   3.515   2.950   0.403  1.1153 -0.5392  1.1267
 3430TIP3    H210248   3.473   3.052   0.506 -0.6268 -0.3469  0.2692
 3431TIP3   OH210249   7.870   4.881   2.974  0.0933 -0.7402 -0.5619
 3431TIP3    H110250   7.912   4.935   2.907  0.7598 -1.2345 -0.5566
 3431TIP3    H210251   7.893   4.791   2.951 -1.2749 -1.0645 -0.7538
 3432TIP3   OH210252   6.700   3.809   4.767 -0.2898  0.3777  0.2836
 3432TIP3    H110253   6.732   3.789   4.855 -0.6878 -0.6183  0.2208
 3432TIP3    H210254   6.761   3.873   4.733  1.8519 -1.6364  0.0726
 3433TIP3   OH210255   5.150   3.114   1.521 -0.7229 -0.4769 -0.0727
 3433TIP3    H110256   5.159   3.188   1.461  0.7549 -1.0633 -0.6371
 3433TIP3    H210257   5.204   3.138   1.596 -0.8639 -0.6568  0.0863
 3434TIP3   OH210258   4.137   3.621   2.303  0.3624 -0.4450 -0.3028
 3434TIP3    H110259   4.055   3.603   2.258  0.0264  0.4034 -0.0496
 3434TIP3    H210260   4.146   3.716   2.300  0.9557 -0.4701  0.3366
 3435TIP3   OH210261   1.456   4.246   1.115  0.9151 -0.0258 -0.2704
 3435TIP3    H110262   1.399   4.318   1.142  0.2399 -1.0022  0.9931
 3435TIP3    H210263   1.507   4.224   1.193  0.1907 -1.7434 -0.2313
 3436TIP3   OH210264   2.243   0.649   1.106 -0.4163 -0.3771  0.1012
 3436TIP3    H110265   2.172   0.593   1.138 -0.7130 -1.1469 -1.7788
 3436TIP3    H210266   2.323   0.606   1.138 -0.7347  0.1135  1.6367
 3437TIP3   OH210267   4.711   6.237   3.474  0.0918  0.9646  0.3734
 3437TIP3    H110268   4.637   6.280   3.431  1.2923  3.9336  1.0307
 3437TIP3    H210269   4.677   6.152   3.502 -2.4757  1.4451 -1.0192
 3438TIP3   OH210270   2.792   6.101   6.625  0.5100 -0.3805  0.5189
 3438TIP3    H110271   2.815   6.022   6.675  0.0244 -0.7007  0.2365
 3438TIP3    H210272   2.745   6.069   6.548  0.2522  0.1865  0.4319
 3439TIP3   OH210273   2.178   0.443   6.331  0.1661  0.4499 -0.4633
 3439TIP3    H110274   2.206   0.364   6.379 -2.0891  0.3188  0.8294
 3439TIP3    H210275   2.102   0.413   6.281 -1.3052  1.9461  0.7726
 3440TIP3   OH210276   7.011   2.840   0.400 -0.2731  0.2599  0.7064
 3440TIP3    H110277   6.959   2.920   0.405  0.2521  0.7556 -1.0859
 3440TIP3    H210278   7.096   2.864   0.438  0.4214  1.0814 -1.2314
 3441TIP3   OH210279   1.156   1.551   2.109  0.1892 -0.4251 -0.4448
 3441TIP3    H110280   1.172   1.645   2.113  0.8475 -0.3690 -2.8595
 3441TIP3    H210281   1.198   1.516   2.187  1.4043  1.1039 -0.3691
 3442TIP3   OH210282   0.626   3.009   0.938 -0.0530 -0.7388  0.1744
 3442TIP3    H110283   0.589   3.060   0.865 -1.3125 -0.5901  0.8858
 3442TIP3    H210284   0.608   3.061   1.016  1.4798 -0.7930  0.5977
 3443TIP3   OH210285   7.277   4.631   6.418  0.0617  0.1968  0.2674
 3443TIP3    H110286   7.322   4.674   6.345  0.2322 -1.2593 -0.5133
 3443TIP3    H210287   7.334   4.559   6.443 -0.1046  0.5232  1.7177
 3444TIP3   OH210288   1.074   3.523   3.235  0.3673 -0.4135  0.1699
 3444TIP3    H110289   1.116   3.599   3.194  0.7026 -0.5505  0.2556
 3444TIP3    H210290   1.144   3.482   3.285 -0.1598  0.0388  1.3090
 3445TIP3   OH210291   5.951   1.364   4.971  0.4005  0.0369  0.5303
 3445TIP3    H110292   5.971   1.454   4.945 -1.1226  0.7484  1.6479
 3445TIP3    H210293   5.859   1.367   4.999 -0.4531 -2.3612 -1.5514
 3446TIP3   OH210294   0.809   4.501   5.296 -0.0589  0.5379  0.0392
 3446TIP3    H110295   0.751   4.577   5.299  0.9739  1.3494 -0.2047
 3446TIP3    H210296   0.872   4.522   5.228 -0.0754 -0.7858 -0.4087
 3447TIP3   OH210297   5.880   4.807   2.320  0.0169  0.4955  0.2969
 3447TIP3    H110298   5.838   4.728   2.356 -0.0262  0.5433  0.3513
 3447TIP3    H210299   5.974   4.792   2.331 -0.0336  1.1701  1.8210
 3448TIP3   OH210300   6.684   0.202   1.657 -0.2640 -0.1472  0.1121
 3448TIP3    H110301   6.731   0.253   1.591  0.5655 -0.5946  0.3380
 3448TIP3    H210302   6.654   0.124   1.610  1.1075 -0.9051  0.4386
 3449TIP3   OH210303   5.088   6.486   2.178 -0.3214  0.2219 -0.0313
 3449TIP3    H110304   5.105   6.556   2.114 -0.9409  1.0442  0.6792
 3449TIP3    H210305   5.003   6.508   2.216 -0.9793 -1.4700 -0.4730
 3450TIP3   OH210306   4.456   1.099   0.964 -0.1464  0.7947 -0.0270
 3450TIP3    H110307   4.408   1.032   1.011  0.1365  0.9239  0.4500
 3450TIP3    H210308   4.395   1.129   0.896 -0.7017  0.8890  0.5076
 3451TIP3   OH210309   1.164   2.235   1.141  0.5669  0.6237  0.5290
 3451TIP3    H110310   1.174   2.223   1.236 -0.0972  2.7345  0.9278
 3451TIP3    H210311   1.074   2.267   1.131  0.8683  1.1193 -0.7237
 3452TIP3   OH210312   5.576   6.112   2.111 -0.3963 -0.0125  0.0405
 3452TIP3    H110313   5.663   6.073   2.107  0.0935  1.1500 -2.6963
 3452TIP3    H210314   5.516   6.038   2.107  0.3691 -0.8865  2.7691
 3453TIP3   OH210315   7.483   1.722   2.545  0.3224 -0.5004  0.2963
 3453TIP3    H110316   7.425   1.716   2.470  2.5463 -0.2514 -1.5640
 3453TIP3    H210317   7.499   1.816   2.555  0.2739 -0.5524  0.9006
 3454TIP3   OH210318   6.025   5.061   0.450 -0.1840 -0.3652  0.2785
 3454TIP3    H110319   6.047   5.145   0.409 -2.6516 -0.0805 -0.6962
 3454TIP3    H210320   5.970   5.017   0.385 -0.6305 -1.8415  1.5997
 3455TIP3   OH210321   0.686   4.312   3.828  0.5805 -1.2515 -0.2600
 3455TIP3    H110322   0.763   4.313   3.884  0.6864 -1.7821 -0.3890
 3455TIP3    H210323   0.612   4.315   3.889  0.6555  1.7018 -0.1731
 3456TIP3   OH210324   2.893   7.043   0.801 -0.0152 -0.1056 -0.2167
 3456TIP3    H110325   2.980   7.017   0.831  0.1203  0.9781  0.3566
 3456TIP3    H210326   2.871   6.978   0.734  0.5365 -1.3720  0.7738
 3457TIP3   OH210327   5.110   0.926   6.041 -0.2096 -0.0232  0.1814
 3457TIP3    H110328   5.198   0.942   6.074  0.8480 -1.6039 -1.6448
 3457TIP3    H210329   5.098   0.831   6.049 -1.7441  0.1476  0.3347
 3458TIP3   OH210330   7.043   6.590   0.462 -0.0774 -0.3653 -0.1243
 3458TIP3    H110331   7.123   6.640   0.445 -0.4987  0.1304 -0.6760
 3458TIP3    H210332   6.975   6.657   0.473 -0.5671 -0.8004 -0.4589
 3459TIP3   OH210333   1.031   7.532   1.627 -0.7616  0.4815 -0.1936
 3459TIP3    H110334   1.036   7.438   1.644 -0.9467  0.6365  0.8059
 3459TIP3    H210335   0.939   7.547   1.605 -0.8814  0.5178  0.3056
 3460TIP3   OH210336   5.943   0.045   4.467  0.0077 -0.3256  0.1261
 3460TIP3    H110337   5.854   0.081   4.478  0.6185  2.0833 -1.7795
 3460TIP3    H210338   5.944   0.013   4.376  0.4366 -2.5521  0.8607
 3461TIP3   OH210339   0.436   0.126   1.616 -0.1997 -0.2961 -0.4595
 3461TIP3    H110340   0.380   0.052   1.592 -1.0992 -0.1636  1.1299
 3461TIP3    H210341   0.500   0.089   1.677  0.0585  0.0178 -0.5373
 3462TIP3   OH210342   1.811   0.536   1.827 -0.0195 -0.2698  0.6040
 3462TIP3    H110343   1.882   0.508   1.769 -0.4893  0.8485 -0.5452
 3462TIP3    H210344   1.836   0.624   1.856  0.0677 -0.6924  1.9113
 3463TIP3   OH210345   3.328   1.199   1.503  0.0493 -0.3194  0.6559
 3463TIP3    H110346   3.317   1.118   1.455  1.5194 -0.2095  0.0658
 3463TIP3    H210347   3.422   1.217   1.498  0.0556  0.3752  2.4730
 3464TIP3   OH210348   3.471   3.449   4.692 -0.5327  0.1301 -0.1745
 3464TIP3    H110349   3.485   3.535   4.730 -0.8439  0.0162  0.2004
 3464TIP3    H210350   3.541   3.440   4.627  0.5385 -0.0159  0.9567
 3465TIP3   OH210351   5.055   0.080   1.768  0.1025 -0.0318  0.2626
 3465TIP3    H110352   5.095   0.146   1.711 -1.3625  1.5101  0.9219
 3465TIP3    H210353   5.123   0.058   1.832  0.8562  0.2648 -0.4220
 3466TIP3   OH210354   7.600   3.090   6.007  0.2476 -0.2110  0.5542
 3466TIP3    H110355   7.558   3.167   5.967 -2.2114  0.0141  3.2945
 3466TIP3    H210356   7.668   3.127   6.063  0.3845 -0.2064  0.3891
 3467TIP3   OH210357   1.549   5.979   4.219 -0.0591 -0.5518  0.1712
 3467TIP3    H110358   1.544   6.063   4.263  0.4624 -2.0007  3.2736
 3467TIP3    H210359   1.620   5.988   4.155 -0.4602  1.4869 -0.0417
 3468TIP3   OH210360   5.932   6.988   4.217 -0.3805 -0.0562 -0.5452
 3468TIP3    H110361   5.871   6.936   4.270  1.2761 -0.4674  1.0608
 3468TIP3    H210362   5.974   6.924   4.159  0.5146 -0.2952  0.3295
 3469TIP3   OH210363   6.914   3.325   6.354 -0.1036  0.1044  0.6487
 3469TIP3    H110364   6.971   3.368   6.290  0.1610  0.1894  0.9382
 3469TIP3    H210365   6.871   3.256   6.304 -0.2931  0.5023  0.2575
 3470TIP3   OH210366  -0.009   3.563   3.940 -0.3068  0.1534 -0.1837
 3470TIP3    H110367  -0.043   3.643   3.900  0.2427  1.7245  2.2330
 3470TIP3    H210368   0.076   3.588   3.976  0.6071 -1.9834 -0.7050
 3471TIP3   OH210369   6.859   0.278   3.055  0.2639  0.6055  0.3871
 3471TIP3    H110370   6.886   0.187   3.045 -0.6307  0.5368 -2.2606
 3471TIP3    H210371   6.935   0.329   3.028 -0.5633  0.4763 -2.5771
 3472TIP3   OH210372   7.077   4.604   1.094  0.1023  0.3030 -0.3891
 3472TIP3    H110373   7.122   4.677   1.052 -3.1704  1.0266 -3.0183
 3472TIP3    H210374   7.033   4.644   1.169  0.0994  0.5404 -0.5160
 3473TIP3   OH210375   6.931   1.756   5.537 -0.2581 -0.5571 -0.2279
 3473TIP3    H110376   6.964   1.671   5.566 -0.9244 -0.5315  0.6614
 3473TIP3    H210377   7.007   1.813   5.539  0.6153 -1.5145 -2.6012
 3474TIP3   OH210378   5.667   1.244   5.060  0.3437 -0.0948 -0.4137
 3474TIP3    H110379   5.633   1.334   5.057 -2.0774 -0.9131  0.0347
 3474TIP3    H210380   5.591   1.190   5.036  1.4196 -2.0883  0.5216
 3475TIP3   OH210381   8.149   0.924   1.669 -0.1946  0.2089 -0.0897
 3475TIP3    H110382   8.087   0.861   1.706  1.1826 -1.0682  0.1451
 3475TIP3    H210383   8.234   0.881   1.676  0.5973  1.4661 -1.3808
 3476TIP3   OH210384   5.516   5.357   6.494 -0.1602  0.0719 -0.2064
 3476TIP3    H110385   5.482   5.347   6.404  1.2137  0.7217 -0.8199
 3476TIP3    H210386   5.598   5.309   6.494  0.8040  1.6417  0.1330
 3477TIP3   OH210387   0.949   1.029   1.532 -0.1752  0.2961 -0.5284
 3477TIP3    H110388   0.958   1.117   1.495  2.6919 -0.0550 -0.8731
 3477TIP3    H210389   0.905   0.978   1.464 -0.5853  1.1169 -0.8949
 3478TIP3   OH210390   6.814   2.395   2.621 -0.2355  0.1608  0.5515
 3478TIP3    H110391   6.818   2.455   2.695 -0.4973 -0.5881  1.1878
 3478TIP3    H210392   6.855   2.315   2.652  1.5984  0.5044 -0.8079
 3479TIP3   OH210393   1.727   1.150   0.644 -0.5098  0.1571 -0.1830
 3479TIP3    H110394   1.740   1.086   0.714 -0.0342 -0.1274 -0.5183
 3479TIP3    H210395   1.640   1.131   0.610 -1.4394  1.3909  1.4082
 3480TIP3   OH210396   3.508   1.967   5.187 -0.0256  0.3885 -0.1335
 3480TIP3    H110397   3.556   1.896   5.230 -2.6098 -0.8220  0.9180
 3480TIP3    H210398   3.542   2.047   5.228  1.8009 -0.3030 -0.2120
 3481TIP3   OH210399   7.237   2.278   5.032  0.7423  0.0097 -0.1814
 3481TIP3    H110400   7.295   2.204   5.045  0.0516 -0.5778 -0.3875
 3481TIP3    H210401   7.290   2.355   5.055  0.9825 -0.6382  1.5611
 3482TIP3   OH210402   1.858   4.770   3.934  0.0044 -0.1805 -0.4792
 3482TIP3    H110403   1.935   4.779   3.878  0.2721  1.8893  0.1604
 3482TIP3    H210404   1.787   4.748   3.874  0.2645  2.0304 -1.6944
 3483TIP3   OH210405   2.750   3.433   0.508 -0.1014 -0.1898 -0.5447
 3483TIP3    H110406   2.780   3.349   0.474  1.6388  0.4860 -0.8022
 3483TIP3    H210407   2.684   3.411   0.572  2.4324 -2.0152  1.6709
 3484TIP3   OH210408   6.137   4.679   5.807 -0.2630 -0.1235 -0.2016
 3484TIP3    H110409   6.080   4.694   5.732 -2.9867 -2.3630  1.2064
 3484TIP3    H210410   6.109   4.744   5.872 -0.4268 -0.4963  0.1042
 3485TIP3   OH210411   1.639   4.297   4.142 -0.0377  0.1133 -0.3439
 3485TIP3    H110412   1.662   4.328   4.054  1.3703  1.6231  0.4794
 3485TIP3    H210413   1.721   4.306   4.192 -0.9626 -0.1075  1.2708
 3486TIP3   OH210414   3.717   6.771   2.690  0.3566 -0.7551  0.0281
 3486TIP3    H110415   3.662   6.740   2.617 -0.5405 -1.6006  1.0373
 3486TIP3    H210416   3.804   6.735   2.671 -0.1603 -2.0284  0.0096
 3487TIP3   OH210417   4.822   7.126   6.650 -0.1347  0.4059 -0.1772
 3487TIP3    H110418   4.783   7.110   6.564 -1.1443  1.7443  0.0051
 3487TIP3    H210419   4.902   7.175   6.631 -0.2917  0.5919 -0.3534
 3488TIP3   OH210420   0.559   0.079   4.126 -0.5264 -0.7317 -0.1540
 3488TIP3    H110421   0.573   0.098   4.219 -0.5306  0.0276 -0.3027
 3488TIP3    H210422   0.570   0.163   4.082 -0.2362 -1.1383 -0.8799
 3489TIP3   OH210423   3.866   3.792   0.410 -0.1863  0.2932 -0.1064
 3489TIP3    H110424   3.857   3.708   0.455  0.0335  0.3642  0.0733
 3489TIP3    H210425   3.799   3.848   0.450  1.2837  0.9597  1.5556
 3490TIP3   OH210426   3.059   3.345   4.749 -0.0282  0.2353 -0.0281
 3490TIP3    H110427   2.992   3.361   4.816 -0.7966  1.2604 -1.0010
 3490TIP3    H210428   3.125   3.291   4.793 -1.6353 -1.0842  0.8846
 3491TIP3   OH210429   6.894   3.235   6.050  0.2560  0.0913  0.5462
 3491TIP3    H110430   6.845   3.314   6.030 -2.6243 -1.9665 -1.2519
 3491TIP3    H210431   6.958   3.228   5.979 -0.0012  0.4071  0.2782
 3492TIP3   OH210432   5.126   5.214   6.264  0.1509  0.0824  0.2806
 3492TIP3    H110433   5.070   5.218   6.341 -1.7430 -0.8769 -0.9804
 3492TIP3    H210434   5.106   5.130   6.224  0.0583  1.1259 -2.0066
 3493TIP3   OH210435   6.976   4.167   2.520 -0.1773  0.4122 -0.1087
 3493TIP3    H110436   7.014   4.226   2.584  0.7421 -0.5195  0.2255
 3493TIP3    H210437   7.042   4.159   2.451 -0.6049  0.3539 -0.5241
 3494TIP3   OH210438   6.781   5.943   3.699  0.5524  0.3751  0.5457
 3494TIP3    H110439   6.691   5.923   3.726  0.1998  1.2476  0.0265
 3494TIP3    H210440   6.776   6.029   3.658  1.2507 -0.4503 -1.3860
 3495TIP3   OH210441   1.369   0.545   0.197 -0.1605  0.4824 -0.1778
 3495TIP3    H110442   1.328   0.568   0.280  0.9965  1.2010  0.2175
 3495TIP3    H210443   1.434   0.613   0.182  1.8211 -1.2739 -0.1132
 3496TIP3   OH210444   0.884   1.480   4.536  0.4000 -0.1435 -0.5722
 3496TIP3    H110445   0.945   1.540   4.578  0.5829 -1.6314  1.4181
 3496TIP3    H210446   0.832   1.444   4.608 -0.5753 -1.3971 -1.8454
 3497TIP3   OH210447   5.066   1.709   0.579  0.0120 -0.7500  0.3921
 3497TIP3    H110448   5.106   1.768   0.516 -1.8913 -0.4882 -0.6649
 3497TIP3    H210449   5.130   1.701   0.649  1.0877  1.1028 -0.3103
 3498TIP3   OH210450   2.297   1.071   3.691 -0.0696  0.6479 -0.0405
 3498TIP3    H110451   2.386   1.083   3.724 -0.2985  1.4969  0.2859
 3498TIP3    H210452   2.247   1.036   3.765 -0.6107  2.6639  0.6204
 3499TIP3   OH210453   6.271   5.897   0.717 -0.3481  0.0690  0.6174
 3499TIP3    H110454   6.185   5.926   0.745 -0.0249  0.8767  0.8170
 3499TIP3    H210455   6.268   5.901   0.621 -1.3369 -2.3584  0.4867
 3500TIP3   OH210456   1.529   7.564   5.772  0.6900  0.5297  0.1535
 3500TIP3    H110457   1.606   7.567   5.716 -0.9931 -1.9727 -2.6008
 3500TIP3    H210458   1.475   7.638   5.745  1.1058  0.9681  0.5067
 3501TIP3   OH210459   4.446   1.755   5.468  0.1304  0.1447  0.6953
 3501TIP3    H110460   4.415   1.797   5.548  0.8908 -0.9977  1.6180
 3501TIP3    H210461   4.406   1.667   5.469  0.3022  0.0425 -0.0850
 3502TIP3   OH210462   4.290   3.053   6.445 -0.2368 -0.1960 -0.0090
 3502TIP3    H110463   4.248   3.059   6.359  1.1712 -1.4365 -0.8333
 3502TIP3    H210464   4.251   2.975   6.485 -2.2491  1.3811  1.3297
 3503TIP3   OH210465   0.436   4.592   3.241  0.5686  0.1438 -0.0276
 3503TIP3    H110466   0.523   4.552   3.237  1.6751  2.3296  0.4443
 3503TIP3    H210467   0.440   4.650   3.317 -0.9305  1.1270 -0.6465
 3504TIP3   OH210468   2.163   4.703   5.444  0.3831  0.3715  0.1138
 3504TIP3    H110469   2.209   4.702   5.360 -0.7940  0.7716 -0.5653
 3504TIP3    H210470   2.131   4.793   5.452 -0.9982 -0.1012  0.1387
 3505TIP3   OH210471   2.000   1.968   4.881  0.0512  0.3739 -1.1277
 3505TIP3    H110472   2.068   2.022   4.843 -0.7818  1.2597 -1.3829
 3505TIP3    H210473   1.951   2.027   4.938  1.5654 -0.9883  1.8082
 3506TIP3   OH210474   1.025   6.511   0.897 -0.1407  0.2654 -0.8230
 3506TIP3    H110475   1.008   6.507   0.803 -1.0637 -1.0349 -0.6303
 3506TIP3    H210476   1.033   6.604   0.916  0.8963  0.5190 -2.3171
 3507TIP3   OH210477   2.427   2.673   3.750 -0.1714 -0.2351 -0.1777
 3507TIP3    H110478   2.348   2.704   3.705 -0.4105  0.5184  0.7174
 3507TIP3    H210479   2.400   2.591   3.792 -0.5358  0.0987  0.2556
 3508TIP3   OH210480   1.547   1.385   4.465  0.0010 -0.4420 -0.3076
 3508TIP3    H110481   1.579   1.475   4.459  1.6097 -0.9341  0.2496
 3508TIP3    H210482   1.464   1.386   4.417  1.5660  0.5774 -3.2611
 3509TIP3   OH210483   6.896   4.414   5.289  0.4797  0.4636 -0.4368
 3509TIP3    H110484   6.863   4.496   5.325 -1.2589 -0.0972 -0.6804
 3509TIP3    H210485   6.898   4.428   5.194 -0.4576  0.0158 -0.5298
 3510TIP3   OH210486   3.327   6.266   6.150 -0.4036  0.0908 -0.3617
 3510TIP3    H110487   3.368   6.300   6.071 -1.9685  1.9706 -0.4348
 3510TIP3    H210488   3.266   6.199   6.119 -0.5785  0.3976 -0.6751
 3511TIP3   OH210489   3.359   0.100   1.731  0.0055 -0.5307  0.3599
 3511TIP3    H110490   3.346   0.081   1.638  0.7992 -0.8351  0.2995
 3511TIP3    H210491   3.447   0.067   1.749  0.4855  0.9625  0.8340
 3512TIP3   OH210492   6.805   7.304   6.268 -0.2455  0.4380  0.0348
 3512TIP3    H110493   6.769   7.217   6.249 -2.3749  0.2083  4.0113
 3512TIP3    H210494   6.858   7.292   6.346 -0.9501  2.7147  0.9611
 3513TIP3   OH210495   6.770   0.365   3.876  0.6631  0.0249 -0.0938
 3513TIP3    H110496   6.791   0.454   3.904 -0.0680  0.1927 -0.0573
 3513TIP3    H210497   6.781   0.367   3.781  0.7368  0.1286 -0.0836
 3514TIP3   OH210498   1.497   0.279   1.004 -0.0613  0.6855 -0.2097
 3514TIP3    H110499   1.428   0.298   0.940  1.4617  1.1469 -1.8129
 3514TIP3    H210500   1.481   0.190   1.032 -2.4352  1.4156  0.9726
 3515TIP3   OH210501   2.031   6.631   0.693  0.1976 -0.1300 -0.0719
 3515TIP3    H110502   2.073   6.545   0.686  1.4590  0.6145 -3.1496
 3515TIP3    H210503   1.973   6.635   0.617 -1.9617  0.7637  1.5203
 3516TIP3   OH210504   7.825   4.378   5.830 -0.6904 -0.0041  0.0533
 3516TIP3    H110505   7.754   4.328   5.790 -0.0319 -1.9280  1.1305
 3516TIP3    H210506   7.781   4.447   5.880 -1.5857  1.2878 -2.3763
 3517TIP3   OH210507   4.919   6.125   1.889 -0.4413 -0.5974  0.1473
 3517TIP3    H110508   4.964   6.061   1.944 -0.8739 -1.1870 -0.1760
 3517TIP3    H210509   4.933   6.094   1.800 -0.3378 -0.0322 -0.0392
 3518TIP3   OH210510   4.236   5.878   6.366  0.5348  0.1307 -0.3389
 3518TIP3    H110511   4.332   5.883   6.373  0.8393 -0.7923 -2.9416
 3518TIP3    H210512   4.217   5.784   6.362 -0.6784  0.2362  1.5397
 3519TIP3   OH210513   0.300   7.306   1.299  0.3193  0.1520  0.4525
 3519TIP3    H110514   0.333   7.380   1.350  0.0370  0.0183  0.8447
 3519TIP3    H210515   0.337   7.229   1.343  2.5086  0.1018 -1.3306
 3520TIP3   OH210516   4.512   1.573   3.306  0.1031 -0.1127  0.2553
 3520TIP3    H110517   4.454   1.499   3.291  1.9741 -1.0386 -3.6257
 3520TIP3    H210518   4.591   1.536   3.344 -0.6400  0.7193  2.7993
 3521TIP3   OH210519   7.504   1.492   6.584 -0.2106 -0.1261 -0.1678
 3521TIP3    H110520   7.499   1.575   6.537  0.0883  0.3450  0.6209
 3521TIP3    H210521   7.586   1.498   6.634 -0.0295 -1.0221 -0.3451
 3522TIP3   OH210522   1.104   5.739   3.365 -0.3164  0.2251 -0.2422
 3522TIP3    H110523   1.088   5.774   3.277  0.2490  0.8813 -0.0955
 3522TIP3    H210524   1.094   5.644   3.356  0.1352  0.2524 -1.1040
 3523TIP3   OH210525   6.709   1.033   2.972  0.0995 -0.7414 -0.0675
 3523TIP3    H110526   6.650   1.003   2.903  0.6178  1.5573 -1.6197
 3523TIP3    H210527   6.694   1.127   2.977  1.9536 -0.4597  1.1583
 3524TIP3   OH210528   6.630   7.697   3.861  0.4494 -0.5954 -0.2968
 3524TIP3    H110529   6.643   7.651   3.778 -0.3079 -1.3411 -0.0136
 3524TIP3    H210530   6.537   7.719   3.862  0.5366 -0.2237  0.1781
 3525TIP3   OH210531   0.622   4.527   0.859 -0.4953  0.2002  0.3888
 3525TIP3    H110532   0.655   4.612   0.887  0.3094 -0.2651  0.8858
 3525TIP3    H210533   0.549   4.509   0.918  0.4612 -0.2473  1.4660
 3526TIP3   OH210534   5.623   7.425   5.287 -0.3170 -0.1700  0.0660
 3526TIP3    H110535   5.643   7.519   5.277 -1.7932  0.5121  2.5289
 3526TIP3    H210536   5.650   7.405   5.377 -4.1889 -0.8523  1.2546
 3527TIP3   OH210537   2.847   2.198   0.748 -0.1971 -0.2199  0.1382
 3527TIP3    H110538   2.785   2.270   0.753 -1.6578 -1.4672  0.7189
 3527TIP3    H210539   2.878   2.200   0.658 -1.1206  0.4064 -0.1848
 3528TIP3   OH210540   5.941   2.742   0.482  0.0930 -0.1369 -0.3745
 3528TIP3    H110541   5.931   2.744   0.577 -0.9986 -0.3856 -0.4655
 3528TIP3    H210542   5.917   2.831   0.455  0.8003  0.0553 -0.3968
 3529TIP3   OH210543   5.651   7.161   5.128 -0.2196 -0.1678 -0.4848
 3529TIP3    H110544   5.652   7.244   5.175 -0.4911  0.3643 -1.3790
 3529TIP3    H210545   5.708   7.103   5.179 -2.6478 -0.5272  2.0253
 3530TIP3   OH210546   3.249   0.380   5.319  0.4513  0.0020  0.0761
 3530TIP3    H110547   3.235   0.372   5.413 -3.0804 -0.5334 -0.3493
 3530TIP3    H210548   3.245   0.290   5.286  1.7005  0.1725 -0.6070
 3531TIP3   OH210549   8.174   4.079   3.070 -0.1166  0.3752 -0.3538
 3531TIP3    H110550   8.170   4.165   3.112  0.8528  1.8377 -3.0059
 3531TIP3    H210551   8.260   4.044   3.093 -0.3494  0.2614  0.3852
 3532TIP3   OH210552   2.292   6.018   5.510  0.5056  0.0347 -0.1717
 3532TIP3    H110553   2.275   5.965   5.588  2.2493 -0.5611 -0.1734
 3532TIP3    H210554   2.298   6.108   5.544 -1.2430  0.1313 -0.0068
 3533TIP3   OH210555   4.559   5.577   4.419 -0.5092 -0.1804  0.1464
 3533TIP3    H110556   4.613   5.586   4.341 -0.7661  0.1679  0.0034
 3533TIP3    H210557   4.522   5.489   4.412 -0.4550 -0.1870 -0.0784
 3534TIP3   OH210558   5.843   4.558   1.932 -0.1534 -0.2894 -0.1648
 3534TIP3    H110559   5.899   4.633   1.952 -1.2098  0.4275  0.1478
 3534TIP3    H210560   5.822   4.568   1.839  1.2417 -1.2570 -0.6123
 3535TIP3   OH210561   5.549   2.393   0.192  0.0044  1.0696 -0.2706
 3535TIP3    H110562   5.611   2.332   0.230 -0.6050 -0.6015 -1.8118
 3535TIP3    H210563   5.600   2.441   0.126  0.2286  1.4824  0.1971
 3536TIP3   OH210564   3.030   6.791   0.202  0.6222 -0.5411  0.0202
 3536TIP3    H110565   3.042   6.827   0.114  0.2313  2.3283  0.9997
 3536TIP3    H210566   2.965   6.722   0.191 -0.5678  0.7614 -1.7792
 3537TIP3   OH210567   2.327   4.013   4.800 -0.1753 -0.0899  0.8960
 3537TIP3    H110568   2.352   3.922   4.788  2.7634  0.7266  0.0030
 3537TIP3    H210569   2.293   4.040   4.715  1.7988  0.4026  0.2322
 3538TIP3   OH210570   5.033   2.058   1.517  0.1033  0.1185 -0.1409
 3538TIP3    H110571   4.980   2.025   1.445 -1.2301  0.3627  0.6941
 3538TIP3    H210572   5.078   2.134   1.480  0.6212 -0.6262 -1.1190
 3539TIP3   OH210573   0.291   6.762   6.338  0.1706 -0.3080  0.0466
 3539TIP3    H110574   0.220   6.804   6.386 -0.7371  0.1942 -1.6433
 3539TIP3    H210575   0.343   6.834   6.302 -0.8206 -0.5704 -2.0457
 3540TIP3   OH210576   5.784   2.264   4.627  0.4460 -0.1294  0.3704
 3540TIP3    H110577   5.806   2.234   4.539 -0.4277 -3.5011  1.1501
 3540TIP3    H210578   5.864   2.251   4.677 -0.0300 -1.5976  0.7863
 3541TIP3   OH210579   0.488   5.759   6.569 -0.4510 -0.0565  0.5071
 3541TIP3    H110580   0.500   5.666   6.548 -1.1197  0.0538 -0.4512
 3541TIP3    H210581   0.549   5.804   6.511  0.9222  0.0590  1.9781
 3542TIP3   OH210582   7.776   2.777   1.652  0.3270  0.5706  0.5763
 3542TIP3    H110583   7.715   2.712   1.618 -0.4555  0.3749  2.2374
 3542TIP3    H210584   7.847   2.780   1.589 -1.0815  0.3224 -1.0967
 3543TIP3   OH210585   0.465   6.152   5.283 -0.4128 -0.0077 -0.3458
 3543TIP3    H110586   0.426   6.065   5.276 -0.0557 -0.2356  0.3935
 3543TIP3    H210587   0.542   6.139   5.338 -1.6043  1.1816  1.6939
 3544TIP3   OH210588   6.501   0.428   0.459 -0.1495  0.3356  0.0798
 3544TIP3    H110589   6.477   0.512   0.420 -2.6439 -0.8973 -1.3026
 3544TIP3    H210590   6.435   0.367   0.426  4.0332 -3.2601 -2.8498
 3545TIP3   OH210591   6.823   5.026   0.781 -0.4749  0.0421  0.6614
 3545TIP3    H110592   6.874   4.951   0.752 -1.3344 -0.1191 -0.4932
 3545TIP3    H210593   6.742   5.022   0.730 -0.7303  1.5056  0.8976
 3546TIP3   OH210594   3.268   0.442   0.226 -0.4398 -0.1349 -0.0148
 3546TIP3    H110595   3.351   0.434   0.272 -0.3240 -3.9958 -0.5886
 3546TIP3    H210596   3.291   0.440   0.133 -1.0731  0.8682 -0.2075
 3547TIP3   OH210597   4.534   6.463   0.657 -0.0844 -0.4839 -0.6769
 3547TIP3    H110598   4.442   6.443   0.673 -0.4408  0.1028 -1.8986
 3547TIP3    H210599   4.553   6.425   0.571  0.7091 -0.2535 -0.6163
 3548TIP3   OH210600   4.183   6.945   1.711  0.4237 -0.3050  0.0584
 3548TIP3    H110601   4.140   6.860   1.701 -1.0606  0.3529  0.5359
 3548TIP3    H210602   4.118   7.009   1.680 -0.4111  1.0218  3.9109
 3549TIP3   OH210603   5.783   1.097   0.067  0.2903 -0.4537  0.1159
 3549TIP3    H110604   5.856   1.094   0.005  0.5601  1.3124  0.2785
 3549TIP3    H210605   5.823   1.126   0.149 -0.7016  1.7221 -0.0931
 3550TIP3   OH210606   4.218   7.654   3.382  0.6384  0.5231 -0.2377
 3550TIP3    H110607   4.182   7.585   3.327  1.3647  1.6415 -2.1977
 3550TIP3    H210608   4.143   7.690   3.429 -0.0671 -0.1782 -0.8257
 3551TIP3   OH210609   4.968   1.081   1.908  0.4440 -0.1041 -0.1301
 3551TIP3    H110610   5.056   1.113   1.927  0.6498 -1.2655  1.0105
 3551TIP3    H210611   4.914   1.121   1.977  0.4096 -0.8265  0.2699
 3552TIP3   OH210612   7.949   0.817   2.801 -0.0583 -0.2240 -0.1867
 3552TIP3    H110613   7.865   0.834   2.757  0.6560 -1.4090 -2.1691
 3552TIP3    H210614   7.950   0.877   2.875 -1.8507  1.1444 -1.1837
 3553TIP3   OH210615   6.173   6.323   6.317  0.4296 -0.0267  0.3137
 3553TIP3    H110616   6.078   6.307   6.320  0.4297 -0.2315 -0.4942
 3553TIP3    H210617   6.187   6.362   6.231  1.2971 -1.4218 -0.1891
 3554TIP3   OH210618   6.571   7.484   4.259 -0.4251 -0.1426  0.0169
 3554TIP3    H110619   6.591   7.447   4.344  1.1994  0.3479 -0.1184
 3554TIP3    H210620   6.496   7.541   4.274 -0.7515 -0.7993  0.9116
 3555TIP3   OH210621   1.491  -0.023   6.485  0.2432  0.2103  0.0687
 3555TIP3    H110622   1.436   0.044   6.444  0.6513 -0.6173 -1.9564
 3555TIP3    H210623   1.579  -0.007   6.451  0.5809 -0.5964  0.5210
 3556TIP3   OH210624   7.352   6.152   4.968 -0.8567 -0.2431 -0.3156
 3556TIP3    H110625   7.363   6.159   4.873 -0.4947  1.7758 -0.1668
 3556TIP3    H210626   7.399   6.228   5.004 -0.4617 -1.3042  1.5277
 3557TIP3   OH210627   7.421   3.047   6.753  0.1088  0.9821  0.7388
 3557TIP3    H110628   7.409   3.087   6.667 -0.1405  0.4819  0.5341
 3557TIP3    H210629   7.347   2.986   6.761  1.9727 -1.5844 -0.2028
 3558TIP3   OH210630   7.833   2.894   2.387 -0.6165  0.3389  0.5717
 3558TIP3    H110631   7.831   2.988   2.406 -0.0361  1.4300 -3.7568
 3558TIP3    H210632   7.749   2.877   2.345  0.3894 -0.3265 -1.2791
 3559TIP3   OH210633   7.316   7.033   6.377  0.3476  0.0143 -0.2235
 3559TIP3    H110634   7.241   7.011   6.322 -0.0524  0.6683  0.0537
 3559TIP3    H210635   7.392   7.013   6.322 -0.0380 -0.0201 -0.7551
 3560TIP3   OH210636   2.727   0.496   1.127  0.1118 -0.5527 -0.1213
 3560TIP3    H110637   2.781   0.446   1.188 -1.1202 -2.1171 -0.2344
 3560TIP3    H210638   2.694   0.430   1.065  0.1290  0.7522 -1.5794
 3561TIP3   OH210639   3.487   7.600   5.162 -0.0676 -0.3502  0.0471
 3561TIP3    H110640   3.393   7.600   5.177 -0.2120 -0.0873 -0.7903
 3561TIP3    H210641   3.503   7.677   5.107  0.7509  0.0907  0.8737
 3562TIP3   OH210642   6.755   6.440   5.100 -0.0036 -0.3557  0.7088
 3562TIP3    H110643   6.738   6.363   5.153  0.3742  0.1245  1.5544
 3562TIP3    H210644   6.700   6.509   5.138  0.1021 -0.0623  0.3414
 3563TIP3   OH210645   4.449   0.386   2.118  0.0744 -0.1787  0.7288
 3563TIP3    H110646   4.525   0.402   2.061  0.4939 -0.2111  1.2735
 3563TIP3    H210647   4.487   0.370   2.204 -0.3938 -2.4143  0.5816
 3564TIP3   OH210648   6.845  -0.003   1.422 -0.2757  0.6445  0.4928
 3564TIP3    H110649   6.763  -0.041   1.454  0.3797 -0.8307  0.5268
 3564TIP3    H210650   6.819   0.055   1.350 -1.3377  0.0794  0.4052
 3565TIP3   OH210651   2.801   2.854   2.782 -0.5433  0.2894  0.1901
 3565TIP3    H110652   2.866   2.871   2.850 -0.0938  1.2086 -0.4437
 3565TIP3    H210653   2.716   2.866   2.826 -0.2743  0.1154  0.7649
 3566TIP3   OH210654   4.240   6.816   2.986  0.1327  0.3767 -0.5662
 3566TIP3    H110655   4.198   6.851   3.065 -0.1817  1.9616 -1.3859
 3566TIP3    H210656   4.196   6.861   2.914  0.0282 -1.4417 -1.6959
 3567TIP3   OH210657   6.846   7.196   1.616 -0.1208 -0.1182 -0.0909
 3567TIP3    H110658   6.762   7.210   1.571  0.4452  1.6147 -0.6617
 3567TIP3    H210659   6.891   7.131   1.561 -0.3471  0.3173 -0.8057
 3568TIP3   OH210660   7.481   2.101   0.592  0.3053  0.4406  0.0254
 3568TIP3    H110661   7.475   2.040   0.665 -0.1603 -1.5121 -1.5563
 3568TIP3    H210662   7.416   2.169   0.612 -0.2524 -0.3860  1.0988
 3569TIP3   OH210663   5.964   0.917   1.514  0.6543 -0.5021  0.1268
 3569TIP3    H110664   6.029   0.891   1.450 -0.0186 -1.2999 -0.2475
 3569TIP3    H210665   6.006   0.904   1.599  2.2019  2.2077 -0.0889
 3570TIP3   OH210666   3.968   2.412   5.225  0.6325  0.2245 -0.2137
 3570TIP3    H110667   4.046   2.422   5.171  1.1983 -1.6239  0.1935
 3570TIP3    H210668   3.991   2.452   5.309  1.1877 -0.3966 -0.0648
 3571TIP3   OH210669   6.458   0.451   5.151  0.5345  0.1024 -0.4465
 3571TIP3    H110670   6.405   0.377   5.119  1.1538 -0.5333 -0.0332
 3571TIP3    H210671   6.472   0.505   5.074  2.9603 -1.9773 -1.6131
 3572TIP3   OH210672   5.659   7.187   3.174  0.0215 -0.1268  0.4463
 3572TIP3    H110673   5.668   7.224   3.086 -0.5017  1.1717  0.9060
 3572TIP3    H210674   5.748   7.160   3.197  0.0337 -1.2198 -0.7707
 3573TIP3   OH210675   6.565   4.320   1.341 -0.1749 -0.2765  0.0965
 3573TIP3    H110676   6.600   4.404   1.373 -0.4676 -0.3597  0.6491
 3573TIP3    H210677   6.640   4.278   1.299  0.0333  0.1651  0.0173
 3574TIP3   OH210678   5.879   1.925   2.115 -0.0215  0.2740  0.0011
 3574TIP3    H110679   5.908   1.971   2.194 -0.0887  0.8924 -0.3340
 3574TIP3    H210680   5.838   1.992   2.061 -0.4178 -0.2420 -0.3491
 3575TIP3   OH210681   1.772   4.619   5.540 -0.1449 -0.1014 -0.7973
 3575TIP3    H110682   1.802   4.685   5.602 -0.2499  0.5558 -1.4270
 3575TIP3    H210683   1.760   4.540   5.593 -0.6203  0.5469  0.0909
 3576TIP3   OH210684   6.069   1.675   1.928  0.4281  0.3946 -0.2957
 3576TIP3    H110685   6.047   1.600   1.873 -1.0969  1.7015 -1.5934
 3576TIP3    H210686   6.164   1.683   1.921  0.8889 -2.3467  1.2324
 3577TIP3   OH210687   2.514   0.909   1.370 -0.1280  0.0486 -0.2111
 3577TIP3    H110688   2.553   0.842   1.314  0.8961 -1.3620  2.0400
 3577TIP3    H210689   2.519   0.990   1.318 -0.2317 -1.3319 -2.5096
 3578TIP3   OH210690   4.885   7.671   5.801  0.6019 -0.3059  0.2407
 3578TIP3    H110691   4.875   7.620   5.720 -2.0241  1.2043 -0.5171
 3578TIP3    H210692   4.946   7.741   5.777  0.1381 -0.0891 -0.3510
 3579TIP3   OH210693   0.319   4.961   2.231 -0.0149  0.1768 -0.2425
 3579TIP3    H110694   0.291   5.043   2.190  1.3635  1.6185  1.5223
 3579TIP3    H210695   0.407   4.946   2.195  0.1669  0.0760  0.2359
 3580TIP3   OH210696   4.070   2.612   3.074 -0.1503 -0.0645  0.2928
 3580TIP3    H110697   4.091   2.679   3.139 -0.3397  2.3701 -1.9639
 3580TIP3    H210698   3.979   2.629   3.050 -0.7461 -2.2390  0.7939
 3581TIP3   OH210699   0.224   1.091   2.451 -0.3794 -0.2358 -0.7818
 3581TIP3    H110700   0.133   1.120   2.441 -0.7065 -1.8585 -3.5523
 3581TIP3    H210701   0.241   1.099   2.544 -2.3013  3.0809 -0.5410
 3582TIP3   OH210702   6.384   6.180   2.357 -0.0667  0.4947  0.6852
 3582TIP3    H110703   6.441   6.178   2.280 -0.4721 -1.8446  0.3831
 3582TIP3    H210704   6.370   6.273   2.373  0.8153  1.0702 -1.4759
 3583TIP3   OH210705   0.132   5.822   5.805 -0.1250  0.2090 -0.7361
 3583TIP3    H110706   0.137   5.752   5.740  1.1559  0.5146 -1.0031
 3583TIP3    H210707   0.131   5.777   5.890 -2.2040 -0.2042 -0.9392
 3584TIP3   OH210708   2.787   6.797   4.620  0.0976  0.1007 -0.1067
 3584TIP3    H110709   2.832   6.777   4.538  0.7627  0.1945  0.2330
 3584TIP3    H210710   2.697   6.769   4.604  0.4155 -0.7035 -0.5642
 3585TIP3   OH210711   4.251   6.857   6.007 -0.4263 -0.5832  0.5124
 3585TIP3    H110712   4.278   6.789   6.069 -0.1637 -1.1106 -0.1694
 3585TIP3    H210713   4.178   6.901   6.050  0.3842 -0.2694  1.6354
 3586TIP3   OH210714   7.096   2.583   5.662  1.0576 -0.3702 -0.5666
 3586TIP3    H110715   7.125   2.502   5.704  1.2014 -0.5832 -1.0691
 3586TIP3    H210716   7.177   2.629   5.640  1.0635 -1.0597 -2.1561
 3587TIP3   OH210717   7.081   6.392   2.653  0.1019  0.0728 -0.5190
 3587TIP3    H110718   7.161   6.371   2.701 -0.1499  1.2278  0.4535
 3587TIP3    H210719   7.012   6.346   2.701  0.0367 -0.0364 -0.7132
 3588TIP3   OH210720   5.778   2.172   2.009  0.0846  0.3161  0.0466
 3588TIP3    H110721   5.852   2.206   1.959  0.5360  1.3955  1.3856
 3588TIP3    H210722   5.701   2.199   1.958  0.5657 -0.2905 -1.0450
 3589TIP3   OH210723   1.204   1.812   2.206  0.2153  0.0580 -0.3551
 3589TIP3    H110724   1.158   1.882   2.251 -1.4805 -0.9168 -0.5131
 3589TIP3    H210725   1.272   1.783   2.268 -1.5725 -0.7475  1.3132
 3590TIP3   OH210726   7.319   0.882   3.415  0.0983  0.1222  0.2639
 3590TIP3    H110727   7.326   0.811   3.352  0.3842 -1.0831  1.6031
 3590TIP3    H210728   7.226   0.885   3.439 -0.1409  1.0627 -0.7268
 3591TIP3   OH210729   3.787   3.337   0.077  0.1923 -0.2355  0.0445
 3591TIP3    H110730   3.783   3.312   0.169 -2.4319  0.2118  0.1454
 3591TIP3    H210731   3.769   3.431   0.076  1.2422 -0.0186 -0.8840
 3592TIP3   OH210732   5.043   4.102   0.086 -1.0507  0.3733 -0.3030
 3592TIP3    H110733   5.130   4.141   0.070  0.4817 -1.3600  2.9440
 3592TIP3    H210734   4.984   4.177   0.091  0.8824  1.9125  0.7988
 3593TIP3   OH210735   2.005   3.469   4.300  0.2633 -0.0456  0.4966
 3593TIP3    H110736   2.099   3.486   4.299  0.3965 -0.7284  0.9287
 3593TIP3    H210737   1.986   3.441   4.389 -0.1802 -0.7852  0.1848
 3594TIP3   OH210738   6.133   5.317   1.322 -0.0913  0.4168 -0.0805
 3594TIP3    H110739   6.055   5.342   1.273 -0.3041 -1.5027 -0.7817
 3594TIP3    H210740   6.107   5.326   1.414 -0.3381  2.0511 -0.2671
 3595TIP3   OH210741   3.424   1.421   6.527 -0.0974  0.0845  0.1833
 3595TIP3    H110742   3.514   1.436   6.555 -0.5761  0.1630  1.7440
 3595TIP3    H210743   3.422   1.328   6.503  0.2967 -0.0214  0.5516
 3596TIP3   OH210744   7.547   3.189   4.760 -0.5503 -0.8890 -0.4463
 3596TIP3    H110745   7.522   3.151   4.676 -0.4891  0.7236 -1.2472
 3596TIP3    H210746   7.605   3.262   4.737  1.6401 -2.0157  1.1526
 3597TIP3   OH210747   3.255   3.125   4.044  0.0112 -0.7239  0.3686
 3597TIP3    H110748   3.345   3.122   4.009  0.4851 -0.2619  1.4981
 3597TIP3    H210749   3.213   3.047   4.010  0.7865 -0.8391 -0.3447
 3598TIP3   OH210750   6.244   5.312   5.126  0.1773  0.0588 -0.1225
 3598TIP3    H110751   6.179   5.269   5.071  0.6068  1.2650 -1.6781
 3598TIP3    H210752   6.223   5.405   5.119  1.9495  0.4711 -0.5595
 3599TIP3   OH210753   3.118   1.480   0.041  0.6097 -0.0661  0.0586
 3599TIP3    H110754   3.130   1.535   0.119 -0.8217 -0.5043  0.6105
 3599TIP3    H210755   3.069   1.536  -0.019  1.0615  0.0040 -0.2549
 3600TIP3   OH210756   6.391   0.627   4.623  0.0803  0.2973 -0.3909
 3600TIP3    H110757   6.435   0.658   4.544 -1.1648  1.3874 -0.6904
 3600TIP3    H210758   6.307   0.673   4.624 -0.1832 -0.1368  1.2598
 3601TIP3   OH210759   0.245   4.538   2.839  0.1976 -0.1205 -0.2407
 3601TIP3    H110760   0.241   4.474   2.910 -2.4197 -1.1208 -1.1615
 3601TIP3    H210761   0.335   4.535   2.808  1.0498 -0.6333  2.1318
 3602TIP3   OH210762   5.299   3.084   5.975 -0.1712  0.3134 -0.2605
 3602TIP3    H110763   5.268   3.005   6.020  0.2437  0.1133 -0.3205
 3602TIP3    H210764   5.245   3.155   6.011  0.9630  0.3580  1.4965
 3603TIP3   OH210765   7.570   1.559   3.497  0.5901 -0.6591 -0.4889
 3603TIP3    H110766   7.626   1.504   3.553  0.8509 -1.6055 -1.6516
 3603TIP3    H210767   7.482   1.546   3.532  1.0158  0.7146  1.2551
 3604TIP3   OH210768   6.037   1.937   6.208  0.1480 -0.2028  0.0939
 3604TIP3    H110769   6.007   1.852   6.174  3.5393 -2.4636  2.0971
 3604TIP3    H210770   6.117   1.956   6.159 -0.6240  2.0392 -0.4193
 3605TIP3   OH210771   5.130   6.213   4.661 -0.3242 -0.0754  0.2393
 3605TIP3    H110772   5.103   6.130   4.699  0.8417  0.1053  1.5383
 3605TIP3    H210773   5.137   6.195   4.567  0.8263 -1.7358  0.5938
 3606TIP3   OH210774   2.850   1.103   2.559  0.4691  0.4491 -0.3515
 3606TIP3    H110775   2.843   1.188   2.515 -0.5746 -1.0170 -3.2785
 3606TIP3    H210776   2.879   1.043   2.491  0.7379 -1.6728  1.5145
 3607TIP3   OH210777   5.864   1.820   3.348 -0.0180 -0.3242  0.1250
 3607TIP3    H110778   5.839   1.849   3.260  2.5617  0.0361 -0.5853
 3607TIP3    H210779   5.781   1.808   3.394 -1.4425 -0.0919 -2.2077
 3608TIP3   OH210780   4.012   5.876   4.533 -0.7131  0.3137 -0.3257
 3608TIP3    H110781   4.059   5.945   4.581  0.0058  0.5442 -1.3446
 3608TIP3    H210782   3.992   5.810   4.600  0.6764  0.4100  0.2217
 3609TIP3   OH210783   1.320   6.437   5.707 -0.5777 -0.1236 -0.2639
 3609TIP3    H110784   1.370   6.507   5.665 -1.6078  0.4525 -0.5740
 3609TIP3    H210785   1.370   6.415   5.785  0.8412 -0.4986 -1.2348
 3610TIP3   OH210786   0.050   6.624   2.135  0.0091 -0.3039 -0.1086
 3610TIP3    H110787   0.139   6.659   2.128  0.8760 -2.4531 -0.7529
 3610TIP3    H210788   0.016   6.660   2.217  0.7464  2.0289 -0.7457
 3611TIP3   OH210789   1.064   6.654   3.837 -0.2897  0.2398 -0.1252
 3611TIP3    H110790   1.083   6.704   3.916 -1.7995  0.1275  0.3231
 3611TIP3    H210791   0.997   6.705   3.792 -0.1187 -0.1744 -0.8670
 3612TIP3   OH210792   6.943   3.094   1.275  0.2472 -0.4585  0.1428
 3612TIP3    H110793   6.948   3.132   1.187 -2.2429 -0.5677 -0.1233
 3612TIP3    H210794   6.935   3.000   1.261 -1.7695 -0.3658  0.3259
 3613TIP3   OH210795   3.324   4.448   1.197  0.2592 -0.2129 -0.1102
 3613TIP3    H110796   3.365   4.532   1.176 -3.8420  2.0068 -0.3536
 3613TIP3    H210797   3.308   4.407   1.112  0.5523 -0.3252 -0.1118
 3614TIP3   OH210798   0.912   6.220   0.579  0.3921 -0.2781  0.1766
 3614TIP3    H110799   0.950   6.250   0.496 -0.3057 -2.6903 -1.1088
 3614TIP3    H210800   0.983   6.229   0.642  0.3092  3.6908 -0.0607
 3615TIP3   OH210801   8.257   1.065   4.491  0.0029 -0.2100 -0.1240
 3615TIP3    H110802   8.248   1.148   4.444 -0.2869  0.3731  0.9164
 3615TIP3    H210803   8.344   1.034   4.468 -0.3955 -0.3206 -1.6086
 3616TIP3   OH210804   1.231   1.431   2.371  0.0312  0.2353  0.0941
 3616TIP3    H110805   1.158   1.372   2.392 -0.1866  1.0779  1.9327
 3616TIP3    H210806   1.250   1.475   2.454  2.2245  0.5029 -0.5011
 3617TIP3   OH210807   7.287   1.270   3.446  0.2880  0.4266 -0.9358
 3617TIP3    H110808   7.354   1.219   3.492 -0.0689  0.2789 -0.5838
 3617TIP3    H210809   7.283   1.232   3.358 -1.2863 -1.3712 -0.1401
 3618TIP3   OH210810   6.611   6.098   0.054 -0.3114 -0.3892  0.3010
 3618TIP3    H110811   6.669   6.022   0.058  0.6939  0.2985 -0.5071
 3618TIP3    H210812   6.665   6.170   0.086 -0.1961  0.5438 -1.8120
 3619TIP3   OH210813   3.211   2.557   2.370 -0.0566  0.2327 -0.3170
 3619TIP3    H110814   3.117   2.552   2.387  0.1213  2.3789  1.8892
 3619TIP3    H210815   3.218   2.593   2.282 -1.3041  0.6130 -0.2738
 3620TIP3   OH210816   7.815   2.279   4.819  0.5066 -0.4131  0.0050
 3620TIP3    H110817   7.786   2.318   4.736 -0.5180 -0.9710  0.0904
 3620TIP3    H210818   7.832   2.187   4.798 -0.9614 -0.8647  0.6546
 3621TIP3   OH210819   7.406   2.445   1.206 -0.0848 -0.0350  0.8301
 3621TIP3    H110820   7.416   2.398   1.289  0.3220  1.0846  1.4302
 3621TIP3    H210821   7.467   2.402   1.146 -0.1845 -0.6734  1.1762
 3622TIP3   OH210822   7.069   1.700   0.335  0.0092  0.0337  0.0682
 3622TIP3    H110823   7.034   1.747   0.260 -1.0808 -0.4728  0.2446
 3622TIP3    H210824   7.030   1.613   0.330 -2.4220  0.7887  2.7601
 3623TIP3   OH210825   5.079   0.709   0.560 -0.2651 -0.0780 -0.3635
 3623TIP3    H110826   5.004   0.676   0.510 -1.5058  0.6122  0.9611
 3623TIP3    H210827   5.090   0.799   0.530  0.9608 -0.5764 -1.5386
 3624TIP3   OH210828   3.542   3.468   4.106  0.1088 -0.0762  0.5711
 3624TIP3    H110829   3.476   3.433   4.165  1.4468  0.8749  2.7222
 3624TIP3    H210830   3.501   3.545   4.066 -0.6063 -0.3928  0.6895
 3625TIP3   OH210831   5.483   4.691   2.848 -0.2405 -0.0342  0.7560
 3625TIP3    H110832   5.541   4.676   2.773 -0.9274  2.8338 -0.4449
 3625TIP3    H210833   5.409   4.633   2.833  0.6880 -1.2239  0.5276
 3626TIP3   OH210834   7.117   6.663   2.128  0.1163 -0.2925 -0.2193
 3626TIP3    H110835   7.137   6.597   2.062  0.8145 -0.3696  0.0639
 3626TIP3    H210836   7.171   6.640   2.203 -1.0646 -0.5161  0.5888
 3627TIP3   OH210837   3.443   6.182   0.473  0.1973  0.4317 -0.3338
 3627TIP3    H110838   3.367   6.170   0.529  0.3381  0.4887 -0.1290
 3627TIP3    H210839   3.514   6.134   0.517 -0.0812 -0.9648 -1.3141
 3628TIP3   OH210840   4.284   3.231   0.254  0.5798  0.1621 -0.0234
 3628TIP3    H110841   4.377   3.243   0.232  0.4176  1.7789  0.1170
 3628TIP3    H210842   4.265   3.300   0.317 -1.4627  1.7381 -2.2330
 3629TIP3   OH210843   3.465   5.333   0.998  0.2981  0.3447 -0.0901
 3629TIP3    H110844   3.416   5.258   0.964 -1.0915  1.6111 -1.0274
 3629TIP3    H210845   3.513   5.299   1.073 -1.2562 -1.2029  0.2607
 3630TIP3   OH210846   1.975   6.646   3.929  0.2944 -0.0279 -0.0296
 3630TIP3    H110847   2.043   6.587   3.961 -0.4168 -1.4889 -1.0791
 3630TIP3    H210848   1.924   6.668   4.007  0.9763 -0.2737  0.4956
 3631TIP3   OH210849   4.122   6.551   5.657  0.4757 -0.0098 -0.0013
 3631TIP3    H110850   4.174   6.567   5.736  1.2600 -1.0192 -0.2887
 3631TIP3    H210851   4.035   6.528   5.689 -0.0106  2.2235  0.4799
 3632TIP3   OH210852   5.294   6.698   0.122  0.1533 -0.2768  0.7634
 3632TIP3    H110853   5.266   6.611   0.093  1.3002 -0.8452  1.2793
 3632TIP3    H210854   5.295   6.751   0.043 -0.0920 -0.8713  0.3573
 3633TIP3   OH210855   4.031   6.192   2.003 -0.0782 -0.0176 -0.0858
 3633TIP3    H110856   4.105   6.134   1.983  1.2776  1.1913  1.1395
 3633TIP3    H210857   3.988   6.151   2.078 -1.9060 -1.7250 -1.9306
 3634TIP3   OH210858   1.170   7.469   0.779  0.0045 -0.3262  0.1781
 3634TIP3    H110859   1.103   7.411   0.742  0.5480 -0.9779  0.2042
 3634TIP3    H210860   1.158   7.463   0.874  0.5580 -1.0111  0.2132
 3635TIP3   OH210861   2.932   1.549   4.891 -0.0550 -0.4639  0.2413
 3635TIP3    H110862   2.868   1.555   4.820 -1.0192  0.9412  1.1881
 3635TIP3    H210863   3.001   1.611   4.866 -1.4405  1.7158  1.4915
 3636TIP3   OH210864   4.926   1.291   5.222  0.3435  0.6684  0.5409
 3636TIP3    H110865   4.965   1.291   5.310  0.4864  1.2767  0.4860
 3636TIP3    H210866   4.947   1.378   5.187  1.2233  0.0522 -0.5162
 3637TIP3   OH210867   6.229   6.923   2.426  0.1996  0.4965 -0.0236
 3637TIP3    H110868   6.300   6.936   2.364  0.0407  0.2149 -0.2658
 3637TIP3    H210869   6.198   6.834   2.410 -0.4016  0.7170 -0.1260
 3638TIP3   OH210870   2.411   4.530   5.498  0.2989 -0.8342 -0.1398
 3638TIP3    H110871   2.395   4.524   5.592  1.4047 -0.1332  0.1171
 3638TIP3    H210872   2.373   4.614   5.472  0.7540 -0.6314 -0.1502
 3639TIP3   OH210873   3.432   1.723   4.172  0.3941  0.1836 -0.1625
 3639TIP3    H110874   3.380   1.731   4.253  0.5270  1.2409 -0.1681
 3639TIP3    H210875   3.486   1.645   4.187 -0.8298 -0.6685  0.0387
 3640TIP3   OH210876   6.361   4.666   4.579 -0.5762 -0.8452 -0.2125
 3640TIP3    H110877   6.291   4.657   4.514  0.9655  1.1626 -2.3647
 3640TIP3    H210878   6.388   4.758   4.572  1.3912 -1.2204  1.4661
 3641TIP3   OH210879   1.325   3.893   6.087  0.1083 -0.5794 -0.2716
 3641TIP3    H110880   1.344   3.976   6.044 -1.9556  0.2053  0.2131
 3641TIP3    H210881   1.376   3.829   6.038  1.3640  0.8928 -0.9623
 3642TIP3   OH210882   4.532   1.008   6.582  0.1040  0.1523 -0.8421
 3642TIP3    H110883   4.514   1.002   6.676 -0.6057 -0.0140 -0.9810
 3642TIP3    H210884   4.482   0.936   6.544 -1.8168  1.8166 -1.6420
 3643TIP3   OH210885   0.165   6.416   5.090 -0.5819  0.2442  0.0636
 3643TIP3    H110886   0.074   6.388   5.080 -0.2663 -2.2290  2.7618
 3643TIP3    H210887   0.216   6.352   5.041 -0.1570 -0.6662  1.6235
 3644TIP3   OH210888   0.987   2.589   0.366 -0.1294  0.2461 -0.2676
 3644TIP3    H110889   0.996   2.642   0.445 -0.9091 -0.3162  0.2158
 3644TIP3    H210890   0.969   2.652   0.297  0.3172  0.7238  0.0510
 3645TIP3   OH210891   3.804   4.387   2.399 -0.5975  0.0006  0.1565
 3645TIP3    H110892   3.761   4.348   2.475  0.0723 -4.1753 -1.3291
 3645TIP3    H210893   3.733   4.402   2.336 -0.6670 -0.8520  0.0159
 3646TIP3   OH210894   1.947   5.986   0.778  0.1970  0.0102  0.0322
 3646TIP3    H110895   1.979   6.024   0.860 -0.6769 -0.6224  0.6751
 3646TIP3    H210896   1.981   5.897   0.778  0.0267 -0.0543 -0.2031
 3647TIP3   OH210897   6.946   5.116   2.033 -0.1476 -0.7711  0.2146
 3647TIP3    H110898   6.968   5.133   2.124  2.6942 -1.9393 -0.1699
 3647TIP3    H210899   6.964   5.199   1.988 -3.6801  0.5610  0.8732
 3648TIP3   OH210900   7.664   6.071   2.974  0.0434  0.0975  0.1877
 3648TIP3    H110901   7.714   6.103   2.899 -0.6671  2.4833  0.6713
 3648TIP3    H210902   7.584   6.124   2.975 -0.9113 -1.2557  1.4820
 3649TIP3   OH210903   5.683   4.619   3.488  0.2288  0.7389 -0.1858
 3649TIP3    H110904   5.766   4.615   3.441  1.1005  0.3415  1.3038
 3649TIP3    H210905   5.617   4.634   3.420  0.7655 -4.1774 -2.1898
 3650TIP3   OH210906   2.815   5.560   3.074  0.4919 -0.2385  0.3719
 3650TIP3    H110907   2.878   5.515   3.131 -0.8191  1.3854  3.3682
 3650TIP3    H210908   2.863   5.634   3.039  0.9817 -0.5562  0.3541
 3651TIP3   OH210909   2.794   5.974   6.156 -0.4445  0.5812 -0.0374
 3651TIP3    H110910   2.759   6.046   6.103  0.3633  0.9802 -0.0454
 3651TIP3    H210911   2.758   5.895   6.116  0.2344  0.8648 -1.2640
 3652TIP3   OH210912   1.897   3.179   4.402 -0.2853 -0.6124  0.6246
 3652TIP3    H110913   1.820   3.219   4.364  0.3590 -1.4826 -1.7704
 3652TIP3    H210914   1.863   3.103   4.451 -1.0036 -0.5969  0.1580
 3653TIP3   OH210915   4.691   7.721   4.522  0.1755  0.0607  0.1412
 3653TIP3    H110916   4.651   7.730   4.435  1.4195  0.4297 -0.4118
 3653TIP3    H210917   4.781   7.694   4.504  0.8960  1.5681  1.2368
 3654TIP3   OH210918   1.956   5.176   2.200 -0.4069  0.5936  0.0793
 3654TIP3    H110919   2.002   5.119   2.263 -1.1099  0.5670  0.5832
 3654TIP3    H210920   1.971   5.135   2.115  0.5024  0.5899  0.2280
 3655TIP3   OH210921   3.986   3.345   1.022 -0.0931  0.5926  0.1588
 3655TIP3    H110922   3.917   3.280   1.004  2.1567 -1.5910 -1.2243
 3655TIP3    H210923   3.997   3.342   1.117 -0.6072 -0.4549  0.2010
 3656TIP3   OH210924   2.736   3.999   5.649  0.2077 -0.8078  0.6399
 3656TIP3    H110925   2.775   4.085   5.666  0.3121 -0.1866 -2.1548
 3656TIP3    H210926   2.811   3.944   5.625 -0.2383 -0.2728 -2.3489
 3657TIP3   OH210927   0.307   7.067   0.836  0.1370  0.1080 -0.2904
 3657TIP3    H110928   0.393   7.024   0.831  0.0379 -0.1221 -0.0470
 3657TIP3    H210929   0.327   7.157   0.861  0.2184 -0.3170  1.2689
 3658TIP3   OH210930   7.353   6.592   6.687  0.1104  0.1186  0.0397
 3658TIP3    H110931   7.293   6.642   6.742  0.7652  0.2975  0.6085
 3658TIP3    H210932   7.406   6.542   6.749  0.9882  0.4627 -0.4096
 3659TIP3   OH210933   7.507   7.481   6.550  0.5902 -0.3906  0.3331
 3659TIP3    H110934   7.466   7.456   6.466  2.2468  0.4602 -0.7669
 3659TIP3    H210935   7.438   7.529   6.596 -0.3881 -0.9520 -0.4882
 3660TIP3   OH210936   1.195   7.584   2.113 -0.1110  0.6272 -0.2725
 3660TIP3    H110937   1.160   7.579   2.202  1.0342 -1.1531  0.1425
 3660TIP3    H210938   1.131   7.539   2.059 -0.8640  1.8083 -0.4038
 3661TIP3   OH210939   7.371   6.260   0.742 -0.2955  0.0499 -0.7490
 3661TIP3    H110940   7.300   6.311   0.782  0.8702  1.7530 -0.7439
 3661TIP3    H210941   7.369   6.177   0.789 -1.3207  0.6248  0.2993
 3662TIP3   OH210942   7.550   6.288   5.989  0.5244 -1.0401 -0.6262
 3662TIP3    H110943   7.472   6.292   5.933 -0.0704 -1.0950  0.1787
 3662TIP3    H210944   7.619   6.254   5.932 -0.1892 -1.5758 -1.1850
 3663TIP3   OH210945   7.173   0.810   2.453  0.3511 -0.2213  0.0795
 3663TIP3    H110946   7.183   0.879   2.518 -0.1891  0.1209 -0.1942
 3663TIP3    H210947   7.086   0.773   2.471  0.7539 -1.0380  0.4210
 3664TIP3   OH210948   1.047   3.304   0.743 -0.2664  0.1160  0.2018
 3664TIP3    H110949   1.121   3.325   0.687  0.8098  1.2949  1.9874
 3664TIP3    H210950   1.002   3.388   0.756 -0.2892 -0.0654  1.3791
 3665TIP3   OH210951   0.537   7.391   6.582  0.7665 -0.1970  0.1109
 3665TIP3    H110952   0.543   7.474   6.534  1.4143  1.0072  2.1671
 3665TIP3    H210953   0.613   7.341   6.553  1.3577  0.6654  0.1526
 3666TIP3   OH210954   4.783   0.297   1.693  0.0681 -0.6653  0.3960
 3666TIP3    H110955   4.870   0.311   1.731  0.3840 -1.5540  0.0305
 3666TIP3    H210956   4.800   0.247   1.613 -0.6458  0.5192 -0.5287
 3667TIP3   OH210957   5.837   5.129   4.344  0.3112  0.2132  0.2898
 3667TIP3    H110958   5.904   5.196   4.355  1.0343 -0.5614  0.6853
 3667TIP3    H210959   5.884   5.053   4.310 -0.2220 -0.5770  1.2590
 3668TIP3   OH210960   2.050   6.322   4.309  0.1319  0.4635 -0.7802
 3668TIP3    H110961   2.052   6.379   4.386  0.3524  0.8966 -1.1018
 3668TIP3    H210962   2.122   6.260   4.323  0.5781  0.9382 -0.9308
 3669TIP3   OH210963   1.783   5.660   2.997  0.2915  0.0304  0.2896
 3669TIP3    H110964   1.790   5.565   2.988 -1.2305 -0.1631  0.7496
 3669TIP3    H210965   1.694   5.680   2.965  0.8710  1.4087 -0.5635
 3670TIP3   OH210966   3.193   4.090   6.182 -0.3705 -0.3858 -0.2057
 3670TIP3    H110967   3.124   4.156   6.190 -1.2015 -1.2360 -0.1522
 3670TIP3    H210968   3.148   4.007   6.198  1.1109 -0.8178  2.3480
 3671TIP3   OH210969   0.049   6.901   2.290 -0.2017 -0.3060 -0.2243
 3671TIP3    H110970   0.019   6.835   2.351  0.3289  1.3012  1.8810
 3671TIP3    H210971   0.145   6.898   2.297 -0.1914  1.3322  0.6786
 3672TIP3   OH210972   1.999   3.079   5.117 -0.1501 -0.2170  0.1475
 3672TIP3    H110973   1.910   3.045   5.102 -0.2454  0.5936 -1.3597
 3672TIP3    H210974   2.008   3.150   5.052  1.7634 -0.5861 -0.0306
 3673TIP3   OH210975   5.665   5.195   6.132 -0.5103 -0.1456  0.4348
 3673TIP3    H110976   5.716   5.268   6.096  0.7576 -0.6795  1.0708
 3673TIP3    H210977   5.615   5.161   6.057 -0.9626  1.2293  0.0917
 3674TIP3   OH210978   6.553   0.466   5.401 -0.0643  0.1356 -0.3920
 3674TIP3    H110979   6.579   0.374   5.410  0.6493  0.2835 -0.9176
 3674TIP3    H210980   6.516   0.472   5.312  1.2710  0.6772 -0.9301
 3675TIP3   OH210981   1.395   7.519   0.398 -0.1531 -0.1344 -0.1411
 3675TIP3    H110982   1.400   7.596   0.455 -1.3100 -1.0392  1.2439
 3675TIP3    H210983   1.457   7.457   0.435  0.0790 -0.2379 -0.6899
 3676TIP3   OH210984   8.099   1.654   1.767 -0.0785  0.4033  0.0518
 3676TIP3    H110985   8.082   1.747   1.756  1.2741  0.5969 -0.5778
 3676TIP3    H210986   8.101   1.619   1.678  0.8836  0.0555  0.2020
 3677TIP3   OH210987   4.167   5.548   4.908 -0.2755  0.0607  0.0903
 3677TIP3    H110988   4.261   5.562   4.917  0.0325 -0.1681 -2.2385
 3677TIP3    H210989   4.149   5.471   4.961  0.3721  1.4383  2.4611
 3678TIP3   OH210990   2.957   2.725   6.647  0.5477  0.1572  0.3508
 3678TIP3    H110991   2.887   2.661   6.659  0.1617  0.4481 -0.3111
 3678TIP3    H210992   2.989   2.742   6.736 -0.2307  0.0351  0.6647
 3679TIP3   OH210993   0.331   3.349  -0.009 -0.5939  0.7345 -0.6243
 3679TIP3    H110994   0.391   3.310   0.055 -1.3330  0.1746 -0.2528
 3679TIP3    H210995   0.365   3.437  -0.024 -0.9739  1.2615  1.3244
 3680TIP3   OH210996   0.224   3.769   3.474  0.9479  0.5056 -0.1357
 3680TIP3    H110997   0.221   3.699   3.410 -1.8909 -1.1514  1.6274
 3680TIP3    H210998   0.295   3.744   3.533  2.1239  0.9155 -1.3229
 3681TIP3   OH210999   7.262   6.415   4.871 -0.2537  0.0689  0.2302
 3681TIP3    H111000   7.297   6.481   4.811 -0.4045  0.9232  1.0682
 3681TIP3    H211001   7.218   6.352   4.814  0.2976  0.4317 -0.6174
 3682TIP3   OH211002   3.820   7.327   3.283  0.0729 -0.1980 -0.2939
 3682TIP3    H111003   3.826   7.411   3.237 -0.7621  0.1840  0.2686
 3682TIP3    H211004   3.844   7.262   3.217  1.2810  0.5056 -0.5901
 3683TIP3   OH211005   7.091   2.208   1.758 -0.0254 -0.3692  0.4710
 3683TIP3    H111006   7.125   2.297   1.766  2.3204 -1.2428  1.1146
 3683TIP3    H211007   7.006   2.218   1.714  0.5687  2.0871 -0.2540
 3684TIP3   OH211008   0.980   6.303   4.785 -0.5732  0.1189  0.0498
 3684TIP3    H111009   0.987   6.240   4.857 -0.5751 -0.9473 -0.8506
 3684TIP3    H211010   0.898   6.349   4.802  0.4531  1.3726  1.8548
 3685TIP3   OH211011   0.981   4.890   6.508  0.1385 -0.7269 -0.0029
 3685TIP3    H111012   1.068   4.901   6.470 -0.9038  0.9692 -2.1278
 3685TIP3    H211013   0.954   4.803   6.480  2.1700 -2.6119  3.1991
 3686TIP3   OH211014   4.567   6.434   3.335  0.1061  0.2514  0.8911
 3686TIP3    H111015   4.592   6.483   3.257  0.2174 -0.0264  0.7503
 3686TIP3    H211016   4.560   6.500   3.404 -0.6587  0.5932  0.4959
 3687TIP3   OH211017   4.511   1.568   4.011 -0.7814  0.2366 -0.1476
 3687TIP3    H111018   4.598   1.607   4.012 -1.0478  0.8533 -0.1717
 3687TIP3    H211019   4.452   1.641   4.031 -1.2450 -0.3011  0.5043
 3688TIP3   OH211020   7.101   6.834   4.903  0.5566 -0.0270  0.7894
 3688TIP3    H111021   7.034   6.865   4.963  1.4398  0.0088  1.7801
 3688TIP3    H211022   7.144   6.913   4.871 -0.1180 -0.0238 -0.1721
 3689TIP3   OH211023   3.438   3.694   0.994 -0.6124  0.2152  0.0897
 3689TIP3    H111024   3.468   3.713   1.083  1.2253 -1.1988 -0.1536
 3689TIP3    H211025   3.343   3.699   0.999 -0.5485  0.2961  2.1099
 3690TIP3   OH211026   6.236   2.185   4.403 -0.3600  0.0349 -0.0866
 3690TIP3    H111027   6.243   2.221   4.492 -0.8761  0.3982 -0.1858
 3690TIP3    H211028   6.154   2.136   4.403 -0.7526  0.6687 -0.5729
 3691TIP3   OH211029   7.902   3.750   1.901  0.0202  0.0133  0.0601
 3691TIP3    H111030   7.958   3.737   1.977 -1.1930  0.0316  0.9963
 3691TIP3    H211031   7.920   3.840   1.873 -1.2525  0.9026  1.8593
 3692TIP3   OH211032   2.765   1.724   0.243  0.1084 -0.4247  0.0854
 3692TIP3    H111033   2.683   1.682   0.267  0.6542 -1.4180  0.2833
 3692TIP3    H211034   2.829   1.688   0.305  1.1748 -1.6218 -1.6139
 3693TIP3   OH211035   7.294   7.236   5.697  0.0690  0.7786 -0.2549
 3693TIP3    H111036   7.212   7.283   5.681  0.1620  0.7155 -0.9646
 3693TIP3    H211037   7.308   7.185   5.617  0.2199 -0.0899  0.3062
 3694TIP3   OH211038   1.391   1.128   4.921  0.2992  0.1115  0.2503
 3694TIP3    H111039   1.339   1.070   4.865  0.0876  0.4099  0.1386
 3694TIP3    H211040   1.460   1.071   4.956  2.2860  0.5404 -2.6336
 3695TIP3   OH211041   5.622   2.817   2.443  0.0593  0.4445 -0.0952
 3695TIP3    H111042   5.560   2.885   2.468 -1.4071  0.3405 -2.9951
 3695TIP3    H211043   5.595   2.791   2.355  2.9659 -1.1419 -0.6565
 3696TIP3   OH211044   5.513   7.086   0.732 -0.1369  0.3841 -0.1963
 3696TIP3    H111045   5.465   7.164   0.704 -0.6258 -0.1137 -0.7836
 3696TIP3    H211046   5.505   7.085   0.827  0.9017  1.6975 -0.0568
 3697TIP3   OH211047   7.175   6.442   5.795  0.0410  0.1161 -0.4308
 3697TIP3    H111048   7.198   6.362   5.843  2.2201  0.5904 -0.5756
 3697TIP3    H211049   7.083   6.431   5.771 -0.2784 -1.4333  1.3101
 3698TIP3   OH211050   5.379   5.692   6.483  0.4587  0.5343 -0.0208
 3698TIP3    H111051   5.391   5.657   6.571  0.4509  0.3587 -0.0882
 3698TIP3    H211052   5.457   5.663   6.435  0.4027  0.5206 -0.1040
 3699TIP3   OH211053   3.377   0.629   4.416 -0.6999 -0.0419 -0.1486
 3699TIP3    H111054   3.433   0.582   4.355 -1.4310 -1.4448  0.2242
 3699TIP3    H211055   3.290   0.592   4.402 -0.8615 -0.4675  1.7995
 3700TIP3   OH211056   0.734   4.752   2.753 -0.0486 -0.3364 -0.0209
 3700TIP3    H111057   0.752   4.778   2.844  0.1510 -0.6393  0.0285
 3700TIP3    H211058   0.812   4.777   2.705  0.3724 -1.2982  0.1230
 3701TIP3   OH211059   2.067   1.968   3.899 -0.6417  0.5005 -0.0748
 3701TIP3    H111060   2.144   1.928   3.940 -0.7277 -1.0698 -1.3573
 3701TIP3    H211061   2.036   1.903   3.837 -2.0664  1.7593 -0.7546
 3702TIP3   OH211062   0.332   1.729   5.218  0.0492  0.2853  0.2071
 3702TIP3    H111063   0.295   1.699   5.301 -2.3097  2.0505 -0.1341
 3702TIP3    H211064   0.396   1.795   5.244 -0.6347  0.7909  0.6450
 3703TIP3   OH211065   4.268   3.573   2.601  0.1986  0.1969 -0.3388
 3703TIP3    H111066   4.218   3.556   2.522 -0.6084 -0.6623  0.3449
 3703TIP3    H211067   4.203   3.601   2.666  1.0258  2.4266 -0.3776
 3704TIP3   OH211068   3.652   7.763   0.703  0.0622  0.8360  0.3191
 3704TIP3    H111069   3.680   7.842   0.657  1.6496  0.1923  0.1068
 3704TIP3    H211070   3.722   7.700   0.687 -0.7354 -0.3307  1.2372
 3705TIP3   OH211071   4.993   6.623   0.014  0.5660 -0.1946  0.3465
 3705TIP3    H111072   5.009   6.670  -0.067  1.6232 -1.0733  0.0183
 3705TIP3    H211073   4.931   6.678   0.062 -0.5957  0.0172 -1.3217
 3706TIP3   OH211074   2.040   5.815   1.569 -0.4577 -0.0985  0.2973
 3706TIP3    H111075   1.978   5.769   1.512 -1.1807  1.0097  0.1612
 3706TIP3    H211076   2.009   5.906   1.569  1.5121  0.6216 -0.2495
 3707TIP3   OH211077   5.949   5.727   3.855 -0.0911 -0.1776  0.5501
 3707TIP3    H111078   5.887   5.785   3.811  1.2187  0.8054 -0.0743
 3707TIP3    H211079   5.929   5.640   3.821 -1.9859 -0.1123  1.3766
 3708TIP3   OH211080   0.200   3.325   4.060  0.2440 -0.3953  0.2428
 3708TIP3    H111081   0.128   3.266   4.035 -1.1942  1.5773 -0.5081
 3708TIP3    H211082   0.254   3.273   4.120 -0.9687 -2.4373 -0.3358
 3709TIP3   OH211083   4.353   0.627   4.491  0.0756 -0.7415  0.6551
 3709TIP3    H111084   4.355   0.626   4.396 -0.3112 -2.5990  0.6185
 3709TIP3    H211085   4.444   0.608   4.517  0.2603  0.1403  0.6781
 3710TIP3   OH211086   1.071   1.768   0.654  0.0235  0.3969  0.4360
 3710TIP3    H111087   1.052   1.679   0.625  1.7547 -0.3441  1.4261
 3710TIP3    H211088   0.993   1.818   0.632 -0.7043 -1.2107 -0.7861
 3711TIP3   OH211089   6.066   2.648   4.544 -0.6761  0.6748 -0.3167
 3711TIP3    H111090   6.041   2.692   4.625 -0.3249  0.1111  0.1077
 3711TIP3    H211091   5.983   2.636   4.497 -1.1008 -0.2596  0.6161
 3712TIP3   OH211092   1.668   3.480   2.021 -0.0397  0.2952 -1.0902
 3712TIP3    H111093   1.604   3.467   2.091  0.1471  0.5853 -0.8641
 3712TIP3    H211094   1.738   3.418   2.040 -0.4652 -0.3613 -1.6030
 3713TIP3   OH211095   3.907   5.486   5.722  0.4514 -0.4270 -0.1593
 3713TIP3    H111096   3.907   5.561   5.662  1.7889 -0.8654 -0.7316
 3713TIP3    H211097   3.839   5.508   5.786 -0.5153  0.3830 -1.4028
 3714TIP3   OH211098   0.378   0.649   1.429 -0.0527 -0.2221  0.2338
 3714TIP3    H111099   0.293   0.664   1.469 -0.1775  1.3772 -0.5662
 3714TIP3    H211100   0.359   0.636   1.336  0.6101  0.8844 -0.0765
 3715TIP3   OH211101   1.128   0.355   0.157 -0.1873 -0.3211  0.4329
 3715TIP3    H111102   1.180   0.435   0.161  0.1267 -0.2687 -2.4515
 3715TIP3    H211103   1.171   0.295   0.218  0.3143  1.2785  1.7090
 3716TIP3   OH211104   8.210   1.887   5.254 -0.2098 -0.1119  0.0198
 3716TIP3    H111105   8.198   1.872   5.160  1.6965 -1.4243 -0.0809
 3716TIP3    H211106   8.295   1.931   5.261 -1.2707  1.9013  1.0415
 3717TIP3   OH211107   3.807   6.670   0.200 -0.1534 -0.2772 -0.1047
 3717TIP3    H111108   3.880   6.611   0.179  0.2014 -0.0337  0.3905
 3717TIP3    H211109   3.737   6.645   0.140 -1.0354 -3.1012  1.8888
 3718TIP3   OH211110   8.213   2.622   1.639  0.4705  0.1894 -0.3249
 3718TIP3    H111111   8.128   2.594   1.606 -0.0270  1.2371  0.0165
 3718TIP3    H211112   8.233   2.701   1.589 -0.4271  1.9724  1.9449
 3719TIP3   OH211113   6.045   0.457   4.547 -0.2431 -0.4802 -0.0163
 3719TIP3    H111114   6.078   0.369   4.563  0.9197 -0.0717 -0.0396
 3719TIP3    H211115   6.068   0.506   4.626  0.0262  0.0392 -0.4056
 3720TIP3   OH211116   2.121   7.656   1.702 -0.0981 -0.0282 -0.2860
 3720TIP3    H111117   2.187   7.708   1.748 -0.2173  0.0566 -0.2109
 3720TIP3    H211118   2.094   7.590   1.766 -1.4464  1.0800  0.3512
 3721TIP3   OH211119   0.079   3.677   5.474 -0.0586 -0.2266 -0.8968
 3721TIP3    H111120   0.102   3.766   5.502  0.8685 -0.1805 -1.7667
 3721TIP3    H211121   0.063   3.630   5.556 -0.1945  0.6459 -0.4107
 3722TIP3   OH211122   6.397   4.848   2.497  0.2102  0.5512  0.2631
 3722TIP3    H111123   6.419   4.803   2.579 -2.3326 -0.6314  0.3711
 3722TIP3    H211124   6.387   4.940   2.522  3.4658  0.9776  0.4241
 3723TIP3   OH211125   7.381   6.385   2.714 -0.4052  0.0675  0.4429
 3723TIP3    H111126   7.476   6.391   2.708 -0.3906 -0.7241 -0.3402
 3723TIP3    H211127   7.359   6.307   2.663 -1.2197 -1.4754  2.9700
 3724TIP3   OH211128   7.834   6.241   1.715 -0.0116 -0.5733 -0.4003
 3724TIP3    H111129   7.825   6.292   1.796 -2.4089  2.0014 -2.1205
 3724TIP3    H211130   7.882   6.298   1.656  1.4134 -2.2923 -0.9531
 3725TIP3   OH211131   7.753   0.733   0.067 -0.0652 -0.5994  0.0361
 3725TIP3    H111132   7.822   0.709   0.128 -0.6171  0.2841  1.0492
 3725TIP3    H211133   7.673   0.731   0.120 -1.1769 -3.4502 -1.5072
 3726TIP3   OH211134   1.589   7.592   4.900  0.1027  0.0047  0.0186
 3726TIP3    H111135   1.549   7.650   4.965  0.6104  0.5920 -0.1772
 3726TIP3    H211136   1.586   7.642   4.818  2.1512  0.5282  0.1967
 3727TIP3   OH211137   7.586   5.540   0.243 -0.4428  0.9314  0.1080
 3727TIP3    H111138   7.622   5.487   0.172 -0.5021 -0.0610  0.7866
 3727TIP3    H211139   7.542   5.613   0.200  3.8916  3.3422 -0.8087
 3728TIP3   OH211140   1.810   3.811   3.543  0.3077  0.1771 -0.2455
 3728TIP3    H111141   1.771   3.755   3.610 -0.3139 -0.2436 -0.9469
 3728TIP3    H211142   1.904   3.806   3.559  0.2445 -0.9053 -0.1723
 3729TIP3   OH211143   8.025   5.649   5.533  0.0256  0.7056  0.5693
 3729TIP3    H111144   8.015   5.568   5.483 -1.7839  1.4640 -0.4252
 3729TIP3    H211145   8.031   5.621   5.624  1.6955 -0.6341  0.1056
 3730TIP3   OH211146   2.554   1.438   3.892 -0.2227  0.4485 -0.0699
 3730TIP3    H111147   2.628   1.394   3.935 -0.6961  0.4240  0.7456
 3730TIP3    H211148   2.477   1.391   3.924 -0.6118  0.6555 -0.6944
 3731TIP3   OH211149   1.464   0.131   5.881  0.2812  0.0249 -0.1799
 3731TIP3    H111150   1.531   0.077   5.839  1.0197  1.9226 -1.5875
 3731TIP3    H211151   1.498   0.220   5.875 -0.7405  0.6695  2.3339
 3732TIP3   OH211152   0.861   2.558   3.777 -0.3277  0.2657 -0.4458
 3732TIP3    H111153   0.889   2.472   3.747 -1.3456  0.4869 -2.0995
 3732TIP3    H211154   0.878   2.617   3.703 -2.2202  0.9618 -0.3758
 3733TIP3   OH211155   6.875   1.183   1.002 -0.0385 -0.2685  0.5085
 3733TIP3    H111156   6.839   1.160   1.088  1.0295  0.6031  1.2171
 3733TIP3    H211157   6.837   1.268   0.982  0.5461  0.0245  0.6266
 3734TIP3   OH211158   4.586   7.272   2.800  0.3692  0.6125  0.0267
 3734TIP3    H111159   4.512   7.271   2.860 -0.3962 -0.3951 -0.8959
 3734TIP3    H211160   4.548   7.294   2.714  1.2949  1.0855 -0.2830
 3735TIP3   OH211161   4.314   5.576   3.920 -0.0801  0.3897  0.2459
 3735TIP3    H111162   4.397   5.532   3.940  0.6824  1.1097 -1.2015
 3735TIP3    H211163   4.326   5.612   3.832 -1.8844  0.6389  0.0576
 3736TIP3   OH211164   2.738   4.286   5.092 -0.2723 -0.3999  0.4715
 3736TIP3    H111165   2.727   4.266   5.185 -1.9959  1.8071  0.8285
 3736TIP3    H211166   2.805   4.354   5.090 -1.2578  0.5962  0.2927
 3737TIP3   OH211167   5.013   0.074   1.282  0.0880 -0.4481  0.5659
 3737TIP3    H111168   5.084   0.018   1.251 -0.0318 -1.3422  1.8450
 3737TIP3    H211169   4.983   0.121   1.203  0.5439 -1.7727 -0.4317
 3738TIP3   OH211170   0.689   5.446   3.820  0.2711  0.1100 -0.3627
 3738TIP3    H111171   0.686   5.481   3.731 -0.1116 -0.2401 -0.4924
 3738TIP3    H211172   0.679   5.522   3.876 -1.4563  0.1319 -0.6481
 3739TIP3   OH211173   4.455   7.520   3.494 -0.0672 -0.2250  0.0931
 3739TIP3    H111174   4.546   7.550   3.486 -0.5492  1.2523 -0.1282
 3739TIP3    H211175   4.403   7.589   3.453 -1.2110 -1.6651 -0.9878
 3740TIP3   OH211176   8.189   2.215   3.003 -0.6765  1.1246  0.1152
 3740TIP3    H111177   8.227   2.262   2.929  0.2378  0.6084  0.2510
 3740TIP3    H211178   8.114   2.168   2.966  0.4130  0.0010 -0.7090
 3741TIP3   OH211179   3.089   4.490   3.317 -0.2367  0.9570  0.4729
 3741TIP3    H111180   3.045   4.421   3.366 -0.4062  0.4296 -0.3945
 3741TIP3    H211181   3.035   4.568   3.329  0.4141  1.1864  2.1735
 3742TIP3   OH211182   4.875   4.185   5.989  0.2999  0.4101 -0.1681
 3742TIP3    H111183   4.840   4.264   5.948 -2.3595 -1.0818 -0.9960
 3742TIP3    H211184   4.914   4.137   5.916  1.1249  0.5316  0.1835
 3743TIP3   OH211185   1.197   1.365   1.659  0.3340  0.1938  0.2339
 3743TIP3    H111186   1.262   1.424   1.620 -0.4065  1.1770  0.4495
 3743TIP3    H211187   1.133   1.424   1.699 -1.4337 -0.7047 -1.1696
 3744TIP3   OH211188   0.255   4.285   2.082  0.2335 -0.0608 -0.5137
 3744TIP3    H111189   0.322   4.281   2.014 -0.0035  1.2074 -0.8432
 3744TIP3    H211190   0.303   4.270   2.164  1.0415  1.4462 -0.6850
 3745TIP3   OH211191   4.999   6.443   1.431  0.2692  0.1444  0.5118
 3745TIP3    H111192   5.007   6.422   1.524  0.9376  2.6437  1.0763
 3745TIP3    H211193   5.083   6.417   1.393  0.7483  0.9374  1.0102
 3746TIP3   OH211194   3.324   3.298   4.254  0.0037  0.0625  0.0690
 3746TIP3    H111195   3.393   3.247   4.211 -0.4748  0.3381 -1.0896
 3746TIP3    H211196   3.243   3.256   4.225 -0.3320  0.1586  0.8645
 3747TIP3   OH211197   2.639   4.128   3.556 -0.7801 -0.3687  0.1655
 3747TIP3    H111198   2.547   4.103   3.555 -1.0562  0.3945  1.8962
 3747TIP3    H211199   2.682   4.060   3.609 -0.3258 -0.7632 -0.6951
 3748TIP3   OH211200   0.920   6.183   5.613 -0.0730  0.5420  0.0003
 3748TIP3    H111201   0.890   6.170   5.704  0.3305  0.8678  0.1822
 3748TIP3    H211202   0.842   6.168   5.560  0.1690 -2.0400  0.2194
 3749TIP3   OH211203   4.740   7.090   6.392  0.2684  0.1667 -0.0807
 3749TIP3    H111204   4.665   7.146   6.372 -1.0383 -1.7205 -0.7320
 3749TIP3    H211205   4.790   7.086   6.310  0.0779 -0.0342 -0.1875
 3750TIP3   OH211206   5.195   5.347   6.743 -0.4995  0.9885  0.1477
 3750TIP3    H111207   5.157   5.391   6.820 -2.6116 -5.0420  3.1929
 3750TIP3    H211208   5.289   5.364   6.751 -1.0810  4.8953  0.7240
 3751TIP3   OH211209   7.442   2.994   2.698 -0.1308 -0.1336  0.5617
 3751TIP3    H111210   7.522   3.045   2.708 -0.1988  0.6707 -2.1066
 3751TIP3    H211211   7.466   2.923   2.638 -1.1662 -0.4771  0.5319
 3752TIP3   OH211212   2.258   4.142   2.857  0.4725 -0.3897  0.2089
 3752TIP3    H111213   2.311   4.211   2.897  0.3754 -0.4260  0.4017
 3752TIP3    H211214   2.179   4.138   2.911  0.2550 -0.3080 -0.1015
 3753TIP3   OH211215   7.318   0.425   0.155 -0.5081 -0.5833  0.4055
 3753TIP3    H111216   7.292   0.512   0.185 -0.5021 -0.2973 -0.3842
 3753TIP3    H211217   7.320   0.433   0.059 -1.2544 -1.6634  0.2851
 3754TIP3   OH211218   7.596   5.511   3.966  0.1314 -0.2831  0.2127
 3754TIP3    H111219   7.667   5.478   4.021  1.1560  1.4499 -0.0018
 3754TIP3    H211220   7.641   5.547   3.889 -0.8936  1.6062  0.4605
 3755TIP3   OH211221   8.186   5.275   3.285  0.4037  0.4740  0.2389
 3755TIP3    H111222   8.258   5.290   3.224  0.8589  0.6399  0.8084
 3755TIP3    H211223   8.122   5.343   3.262 -0.0686 -0.3502 -0.9858
 3756TIP3   OH211224   0.466   4.256   0.026  0.2719 -0.0287  0.1817
 3756TIP3    H111225   0.462   4.351   0.041  1.1443  0.0068  0.2089
 3756TIP3    H211226   0.516   4.223   0.101  3.1924 -0.0616 -1.6523
 3757TIP3   OH211227   1.526   5.347   0.780 -0.5066  0.0345  0.0905
 3757TIP3    H111228   1.454   5.303   0.734 -1.7634  0.8726  1.1806
 3757TIP3    H211229   1.514   5.440   0.761  0.0433  0.2241  0.6208
 3758TIP3   OH211230   0.608   4.552   2.507  0.2104 -0.6256  0.6398
 3758TIP3    H111231   0.573   4.621   2.564  1.5362 -0.8693  1.8015
 3758TIP3    H211232   0.551   4.554   2.430  0.0801  1.6362  0.7225
 3759TIP3   OH211233   6.833   7.107   5.889 -0.6155  0.1346  0.8381
 3759TIP3    H111234   6.800   7.190   5.854  0.6593  1.3201  2.2827
 3759TIP3    H211235   6.879   7.066   5.815  2.3341  2.7295  1.0126
 3760TIP3   OH211236   7.333   6.141   4.427  0.1907  0.3890 -1.2202
 3760TIP3    H111237   7.258   6.088   4.403  0.3971 -1.2333  1.2767
 3760TIP3    H211238   7.400   6.119   4.363 -0.5725 -0.3544 -1.7758
 3761TIP3   OH211239   0.659   7.176   0.014  0.1930 -0.3057  0.2618
 3761TIP3    H111240   0.582   7.130   0.050  0.9564 -0.4140  1.8625
 3761TIP3    H211241   0.705   7.208   0.092 -0.1587  2.9954 -0.7434
 3762TIP3   OH211242   5.093   6.897   5.766  0.0324 -0.0774  0.0411
 3762TIP3    H111243   5.181   6.909   5.731 -0.3634  0.4020 -0.8318
 3762TIP3    H211244   5.106   6.852   5.849  1.1688  0.8005  0.3662
 3763TIP3   OH211245   1.755   7.454   1.654  0.5720  0.7562 -0.1702
 3763TIP3    H111246   1.809   7.403   1.593  0.2526 -0.4009  0.4772
 3763TIP3    H211247   1.665   7.434   1.628  0.4371  0.2827  0.6324
 3764TIP3   OH211248   7.289   1.835   0.464 -0.1635 -0.3863  0.0985
 3764TIP3    H111249   7.214   1.787   0.428  1.3239 -1.6145 -1.5628
 3764TIP3    H211250   7.258   1.925   0.473 -1.8474 -0.8758 -0.4890
 3765TIP3   OH211251   4.734   7.765   4.807 -0.4521  0.1124  0.1588
 3765TIP3    H111252   4.713   7.858   4.804  1.1616  0.5274  0.7474
 3765TIP3    H211253   4.746   7.740   4.715 -0.6239  0.5339  0.0195
 3766TIP3   OH211254   6.797   2.185   2.945 -0.0565  0.2276  0.1872
 3766TIP3    H111255   6.849   2.188   2.865  0.4455 -0.3308  0.4842
 3766TIP3    H211256   6.861   2.167   3.014 -0.1021  3.0048  1.0661
 3767TIP3   OH211257   7.764   1.587   2.467  0.1464  0.0220 -0.2105
 3767TIP3    H111258   7.752   1.494   2.489  1.1469 -0.0306  0.2030
 3767TIP3    H211259   7.677   1.625   2.474  0.0696 -0.4126  1.9498
 3768TIP3   OH211260   3.628   6.843   1.275 -0.0941  0.2138  0.3593
 3768TIP3    H111261   3.633   6.789   1.196 -0.4140 -0.0455  0.5149
 3768TIP3    H211262   3.611   6.781   1.345  0.8125  0.3658  0.7348
 3769TIP3   OH211263   4.115   5.288   0.543 -0.9819 -0.1322  0.0348
 3769TIP3    H111264   4.172   5.328   0.608 -0.1442 -0.2281 -0.6131
 3769TIP3    H211265   4.112   5.351   0.471 -1.8143 -0.0705  0.1105
 3770TIP3   OH211266   1.824   2.027   2.782 -0.4503 -0.2626 -0.0605
 3770TIP3    H111267   1.813   1.931   2.782 -1.0252 -0.1999  0.2209
 3770TIP3    H211268   1.910   2.041   2.742 -0.7799 -0.8412 -1.0070
 3771TIP3   OH211269   5.897   0.336   4.769  0.2157  0.1292  0.1312
 3771TIP3    H111270   5.892   0.298   4.681  0.4794 -0.2449  0.2737
 3771TIP3    H211271   5.842   0.414   4.765  0.5314  0.3283 -0.4750
 3772TIP3   OH211272   2.741   4.730   0.145 -0.0287  0.3273  0.6181
 3772TIP3    H111273   2.735   4.741   0.240 -1.8089 -0.2681  0.6184
 3772TIP3    H211274   2.652   4.706   0.118  0.4005  0.6610 -1.2315
 3773TIP3   OH211275   6.971   4.896   5.131  0.2582 -0.6992  0.4335
 3773TIP3    H111276   6.961   4.843   5.052 -0.8442  0.7418 -0.4477
 3773TIP3    H211277   6.929   4.979   5.109  3.8725  1.4779  0.8839
 3774TIP3   OH211278   8.241   3.890   5.302 -0.2291  0.3925  0.2724
 3774TIP3    H111279   8.247   3.800   5.334  0.9026  0.3984  0.0997
 3774TIP3    H211280   8.245   3.882   5.207 -0.6602  0.6005  0.2313
 3775TIP3   OH211281   1.444   7.739   2.641  0.5876 -0.4229  0.0436
 3775TIP3    H111282   1.372   7.760   2.582 -0.4687  0.1889  1.4700
 3775TIP3    H211283   1.433   7.800   2.714  1.7652 -1.2160  0.9117
 3776TIP3   OH211284   7.207   3.894   1.525  0.0937  0.3625 -0.2765
 3776TIP3    H111285   7.213   3.799   1.517 -0.9930  0.3364 -0.9463
 3776TIP3    H211286   7.262   3.915   1.601 -0.7921 -0.9655  0.7781
 3777TIP3   OH211287   3.984   1.452   5.229  0.3229 -0.3438  0.0225
 3777TIP3    H111288   4.017   1.539   5.206 -0.2501 -0.3176 -0.7653
 3777TIP3    H211289   3.993   1.402   5.148 -0.1100 -0.7811  0.2415
 3778TIP3   OH211290   4.057   6.915   2.148 -0.7443  0.0040 -0.0342
 3778TIP3    H111291   4.023   6.853   2.083  0.1890  0.9996 -1.5029
 3778TIP3    H211292   4.151   6.899   2.149 -0.5516  1.1115 -0.1067
 3779TIP3   OH211293   3.442   5.682   2.458  0.1543 -0.3752  0.3347
 3779TIP3    H111294   3.422   5.708   2.368  0.4448  0.7169  0.5780
 3779TIP3    H211295   3.537   5.668   2.458  0.6710  2.4982  1.1307
 3780TIP3   OH211296   2.302   1.858   0.830  0.2401 -0.4243 -0.1530
 3780TIP3    H111297   2.262   1.776   0.861 -0.0022  0.1603  1.1047
 3780TIP3    H211298   2.246   1.927   0.866  0.5848  0.3177 -1.0057
 3781TIP3   OH211299   0.348   4.124   3.861 -0.2074 -0.0036  0.0370
 3781TIP3    H111300   0.429   4.085   3.893 -0.5178  1.3074  2.7478
 3781TIP3    H211301   0.373   4.213   3.834 -0.6402  0.2403  0.4203
 3782TIP3   OH211302   4.895   2.276   3.484 -0.0929 -0.2648  0.2256
 3782TIP3    H111303   4.832   2.347   3.496 -1.8813 -2.0459  1.9902
 3782TIP3    H211304   4.853   2.217   3.422 -0.2372 -1.5259  1.4909
 3783TIP3   OH211305   1.086   5.232   0.376 -0.2157 -0.3874  0.0577
 3783TIP3    H111306   1.098   5.151   0.426  1.5211  0.6593  1.4517
 3783TIP3    H211307   1.042   5.292   0.436 -0.6316  0.0201 -0.6395
 3784TIP3   OH211308   6.312   0.603   3.885  0.4750  0.3594 -0.3331
 3784TIP3    H111309   6.350   0.518   3.907 -1.6398 -0.7891 -0.8444
 3784TIP3    H211310   6.357   0.630   3.806  1.4664 -0.0692  0.0651
 3785TIP3   OH211311   0.281   7.754   6.193 -0.2700 -0.3852  0.8503
 3785TIP3    H111312   0.326   7.673   6.169 -0.3664 -0.4204  0.7867
 3785TIP3    H211313   0.347   7.823   6.184 -0.8147 -0.0817 -1.5323
 3786TIP3   OH211314   7.710   3.812   6.210  0.4747  0.4554  0.0108
 3786TIP3    H111315   7.660   3.771   6.140  0.4237 -0.6806  0.6897
 3786TIP3    H211316   7.747   3.739   6.260 -2.2633  1.0535  3.2565
 3787TIP3   OH211317   4.887   3.235   4.901  0.1504  0.0886 -0.2775
 3787TIP3    H111318   4.864   3.142   4.891  1.0469 -0.2872  0.8897
 3787TIP3    H211319   4.960   3.234   4.962  0.5496  1.5402 -0.7126
 3788TIP3   OH211320   6.655   4.000   6.651 -0.0077 -0.6186 -0.0129
 3788TIP3    H111321   6.736   3.951   6.639 -0.3052 -1.1518  0.1404
 3788TIP3    H211322   6.682   4.078   6.699  0.6003 -0.2251 -0.9637
 3789TIP3   OH211323   8.066   4.292   5.027 -0.0731  0.2452 -0.0075
 3789TIP3    H111324   8.066   4.334   4.941  2.3894  1.7566  0.6116
 3789TIP3    H211325   8.026   4.206   5.012 -2.3316  1.5412 -2.0166
 3790TIP3   OH211326   6.147   6.437   5.440  0.0224  0.4300  0.4716
 3790TIP3    H111327   6.178   6.396   5.521  3.1599 -0.6466 -1.0818
 3790TIP3    H211328   6.091   6.372   5.399 -0.2178  0.3104  0.9869
 3791TIP3   OH211329   3.504   7.105   2.831 -0.1762 -0.2177 -0.5193
 3791TIP3    H111330   3.430   7.065   2.784  1.1450  1.1403 -4.1149
 3791TIP3    H211331   3.498   7.198   2.810  1.2504  0.2982  1.1141
 3792TIP3   OH211332   6.293   6.894   4.444 -0.3542 -0.3259 -0.2570
 3792TIP3    H111333   6.333   6.893   4.531 -1.3006  0.7035  0.2179
 3792TIP3    H211334   6.336   6.967   4.399 -0.2684 -0.4983 -0.4553
 3793TIP3   OH211335   2.966   2.808   5.347 -0.1600  0.0822 -0.5986
 3793TIP3    H111336   2.952   2.897   5.378  0.6259  0.5138 -1.4119
 3793TIP3    H211337   2.880   2.767   5.349 -0.3608  0.5399  0.7306
 3794TIP3   OH211338   3.128   3.413   2.027 -0.3838  0.3954 -0.0451
 3794TIP3    H111339   3.170   3.485   1.978 -0.3963  0.7161  0.4053
 3794TIP3    H211340   3.179   3.407   2.108 -0.0655 -0.4458 -0.2935
 3795TIP3   OH211341   5.049   1.697   2.729 -0.3539  0.2403 -0.3385
 3795TIP3    H111342   5.034   1.675   2.821 -0.8272  1.7927 -0.0107
 3795TIP3    H211343   5.140   1.725   2.725 -0.7635  1.7206  0.0228
 3796TIP3   OH211344   0.614   6.287   1.139  0.4962  0.6021  0.1400
 3796TIP3    H111345   0.584   6.258   1.226 -0.9189 -1.6065 -0.9876
 3796TIP3    H211346   0.539   6.271   1.082  1.7031  1.1578 -1.6530
 3797TIP3   OH211347   8.205   4.555   1.758 -0.1167 -0.0071  0.8777
 3797TIP3    H111348   8.227   4.513   1.841  1.5487 -0.0769  0.4437
 3797TIP3    H211349   8.277   4.617   1.743 -0.2139 -0.2230 -0.6416
 3798TIP3   OH211350   4.720   6.266   2.023  0.0350 -0.0283  0.2268
 3798TIP3    H111351   4.709   6.229   2.111  0.4268  0.0403  0.3064
 3798TIP3    H211352   4.796   6.219   1.987  1.5398  1.7451  0.9083
 3799TIP3   OH211353   0.519   6.081   4.907 -0.2189 -0.2047  0.1958
 3799TIP3    H111354   0.520   6.124   4.821  0.8486 -0.6045 -0.0144
 3799TIP3    H211355   0.459   6.133   4.959  1.3297  1.8207  0.0795
 3800TIP3   OH211356   4.777   6.873   4.380  0.1134  0.2390  0.2247
 3800TIP3    H111357   4.836   6.874   4.455 -0.0175 -1.5059  0.3876
 3800TIP3    H211358   4.823   6.821   4.314 -0.8291 -0.3708  0.0263
 3801TIP3   OH211359   1.159   4.512   0.154  0.0049  0.4686 -0.6009
 3801TIP3    H111360   1.232   4.484   0.209  0.3141  0.5436 -0.9698
 3801TIP3    H211361   1.098   4.438   0.155 -0.3941  0.7898  0.5253
 3802TIP3   OH211362   2.962   4.170   1.856 -0.2121  0.0532 -0.7745
 3802TIP3    H111363   3.000   4.251   1.891 -2.8509  1.9511 -2.0130
 3802TIP3    H211364   3.029   4.137   1.796  1.8183  0.0354  1.3353
 3803TIP3   OH211365   6.981   4.285   5.867 -0.2520 -0.2682 -0.4540
 3803TIP3    H111366   6.951   4.337   5.942 -0.4456  0.0555 -0.7535
 3803TIP3    H211367   7.072   4.263   5.888 -0.6532 -1.2076  0.4354
 3804TIP3   OH211368   4.973   4.318   3.888  0.3467  0.2261  0.0803
 3804TIP3    H111369   5.056   4.361   3.868 -0.3661  0.9557 -1.5547
 3804TIP3    H211370   4.908   4.389   3.883 -0.5630 -0.6070 -0.3286
 3805TIP3   OH211371   5.033   3.989   1.223  0.5025 -0.0812 -0.3792
 3805TIP3    H111372   5.004   3.936   1.297  1.8612  0.7518  0.8202
 3805TIP3    H211373   5.127   3.974   1.218  0.3769 -0.5444 -2.3401
 3806TIP3   OH211374   4.626   4.111   6.075  0.2663 -0.5846 -0.0541
 3806TIP3    H111375   4.647   4.080   6.163 -0.3727 -0.5426  0.1171
 3806TIP3    H211376   4.711   4.132   6.036  0.4755  0.5478  0.9750
 3807TIP3   OH211377   8.257   3.254   4.718 -0.1590  0.0824 -0.0986
 3807TIP3    H111378   8.201   3.178   4.737  1.5290 -1.0923  0.3555
 3807TIP3    H211379   8.285   3.242   4.628  0.5897 -0.1732  0.1607
 3808TIP3   OH211380   3.887   4.956   1.216  0.1086 -0.2103 -0.6670
 3808TIP3    H111381   3.972   4.913   1.229  1.2508  1.7529 -1.1133
 3808TIP3    H211382   3.903   5.021   1.148 -0.6614  2.8532  1.7885
 3809TIP3   OH211383   8.109   7.694   4.919  0.4293 -0.0173  0.3317
 3809TIP3    H111384   8.138   7.608   4.948 -1.4972 -0.6255  0.5860
 3809TIP3    H211385   8.132   7.753   4.992  0.9924 -0.4571  0.5161
 3810TIP3   OH211386   1.751   1.047   2.175  0.3968 -0.2684 -0.9535
 3810TIP3    H111387   1.750   1.088   2.262  0.9272  0.1983 -1.1626
 3810TIP3    H211388   1.720   0.958   2.191  2.6185 -0.9280  0.1046
 3811TIP3   OH211389   5.937   5.115   6.161  0.0409  0.9429 -0.1638
 3811TIP3    H111390   6.008   5.106   6.098 -0.1924  0.1934 -0.3228
 3811TIP3    H211391   5.946   5.205   6.194  0.5814  1.1116 -0.7510
 3812TIP3   OH211392   7.885   6.180   3.243  0.2248  0.1776 -0.1484
 3812TIP3    H111393   7.950   6.111   3.257  0.7310  0.6120 -0.3593
 3812TIP3    H211394   7.803   6.142   3.275  0.1494 -1.1644 -1.7888
 3813TIP3   OH211395   2.422   5.926   4.839  0.0263  0.4213  0.1651
 3813TIP3    H111396   2.427   6.019   4.817 -0.3744  0.5709  0.6745
 3813TIP3    H211397   2.328   5.909   4.848  0.1494  0.4368  1.9348
 3814TIP3   OH211398   5.856   4.490   2.397 -0.0923  0.9998 -0.3264
 3814TIP3    H111399   5.889   4.462   2.312  2.7254  0.3501  0.8830
 3814TIP3    H211400   5.780   4.433   2.413  0.0320  0.3566 -1.8930
 3815TIP3   OH211401   3.846   2.137   3.736 -0.2471 -0.2558 -0.0476
 3815TIP3    H111402   3.806   2.224   3.737 -0.6268 -0.3940 -1.3226
 3815TIP3    H211403   3.791   2.085   3.795  0.3985  0.5085  1.2874
 3816TIP3   OH211404   2.334   3.304   2.459  0.4309  0.0142  0.7258
 3816TIP3    H111405   2.283   3.345   2.529  1.6770 -0.1578  1.7645
 3816TIP3    H211406   2.419   3.285   2.498  1.3283  0.3204 -0.9726
 3817TIP3   OH211407   0.359   6.801   1.295  0.5619 -0.4279 -0.4041
 3817TIP3    H111408   0.282   6.751   1.323 -0.0310  0.7045  0.0774
 3817TIP3    H211409   0.401   6.828   1.377 -0.0820  1.2494 -0.5749
 3818TIP3   OH211410   6.850   2.508   4.109 -0.2898  0.2452 -0.3259
 3818TIP3    H111411   6.834   2.507   4.203 -1.1955 -0.0170 -0.4765
 3818TIP3    H211412   6.782   2.566   4.074 -2.0141 -2.1148 -1.1550
 3819TIP3   OH211413   1.756   3.736   3.254  0.2749  0.0678  0.1046
 3819TIP3    H111414   1.733   3.644   3.261  0.3198  0.1057  0.7873
 3819TIP3    H211415   1.782   3.762   3.342  2.3721  0.1694 -0.4841
 3820TIP3   OH211416   0.648   3.688   3.410  0.2343  0.6944  0.0413
 3820TIP3    H111417   0.651   3.722   3.500  0.9515  0.8909 -0.0534
 3820TIP3    H211418   0.595   3.609   3.416 -1.2443  1.6631  0.3205
 3821TIP3   OH211419   5.691   0.163   0.116 -0.2555  0.2566 -0.2774
 3821TIP3    H111420   5.620   0.176   0.054 -1.3360  2.5077  1.2999
 3821TIP3    H211421   5.758   0.115   0.067 -1.2870  1.4051 -2.9725
 3822TIP3   OH211422   7.173   1.710   1.815 -0.2241 -0.2115 -0.1412
 3822TIP3    H111423   7.180   1.635   1.756  1.1055  1.0069 -1.6065
 3822TIP3    H211424   7.110   1.768   1.772  2.6734  1.8846 -1.8578
 3823TIP3   OH211425   2.740   3.816   2.607 -0.3417 -0.2016 -0.4150
 3823TIP3    H111426   2.747   3.798   2.513  0.8637 -1.1195 -0.1766
 3823TIP3    H211427   2.811   3.765   2.646 -0.7360  0.2866  0.9845
 3824TIP3   OH211428   0.225   1.912   3.618 -0.4598 -0.4529 -0.5038
 3824TIP3    H111429   0.197   1.989   3.667 -1.2797 -1.2404  0.2997
 3824TIP3    H211430   0.297   1.875   3.669 -1.2659 -1.2317  0.1085
 3825TIP3   OH211431   0.045   4.567   0.463  0.0727 -0.2766 -0.5965
 3825TIP3    H111432   0.007   4.629   0.525 -1.4260  0.0369 -1.7679
 3825TIP3    H211433   0.131   4.604   0.442 -0.3319  0.8009 -0.4075
 3826TIP3   OH211434   3.925   6.277   4.648 -0.2420  0.2066 -0.1835
 3826TIP3    H111435   3.957   6.299   4.736 -0.6552 -1.1610  0.3476
 3826TIP3    H211436   3.841   6.233   4.664 -0.9563  1.0929 -1.3566
 3827TIP3   OH211437   4.739   0.208   5.615  0.0519  0.0628 -0.2258
 3827TIP3    H111438   4.834   0.199   5.604 -0.3035 -1.0059 -3.7690
 3827TIP3    H211439   4.727   0.296   5.651  2.3569  0.5639 -0.5341
 3828TIP3   OH211440   2.797   1.192   0.794  0.7069 -0.4572  0.0712
 3828TIP3    H111441   2.876   1.138   0.805  1.3550  0.4865  0.1923
 3828TIP3    H211442   2.812   1.239   0.712  0.2506 -0.2911  0.0826
 3829TIP3   OH211443   4.418   6.000   6.036 -0.4390 -0.5316 -0.2176
 3829TIP3    H111444   4.335   5.957   6.014 -0.1835 -1.1986  0.0901
 3829TIP3    H211445   4.427   6.069   5.971 -1.2887 -0.3771 -0.1909
 3830TIP3   OH211446   6.214   0.283   5.081  0.2857 -0.1644 -0.3690
 3830TIP3    H111447   6.122   0.270   5.059  0.4352 -1.7961 -0.1605
 3830TIP3    H211448   6.233   0.217   5.147  1.6400  0.0414 -0.5184
 3831TIP3   OH211449   5.534   7.712   2.011 -0.1279  0.2280 -0.2482
 3831TIP3    H111450   5.480   7.779   1.969 -0.4911  0.2398  0.2199
 3831TIP3    H211451   5.472   7.661   2.063 -0.0242 -1.2021 -1.4986
 3832TIP3   OH211452   0.371   2.704   5.670  0.3562 -0.3808  0.0568
 3832TIP3    H111453   0.310   2.682   5.600 -0.4574  1.1822  0.2195
 3832TIP3    H211454   0.317   2.709   5.749  0.6385  1.0641  0.2007
 3833TIP3   OH211455   3.460   3.847   0.764  0.0229 -0.2215  0.6393
 3833TIP3    H111456   3.374   3.805   0.752  0.0844 -0.3253  0.5624
 3833TIP3    H211457   3.507   3.788   0.823  0.1101 -0.2635  0.5287
 3834TIP3   OH211458   0.925   4.212   2.910 -0.0271 -0.0440  0.2328
 3834TIP3    H111459   0.965   4.190   2.826 -0.6523  0.7642 -0.2870
 3834TIP3    H211460   0.975   4.287   2.942 -0.8500  0.7204 -0.2334
 3835TIP3   OH211461   2.897   2.590   5.970  0.3283 -0.4477  0.1948
 3835TIP3    H111462   2.846   2.628   6.041  1.1124  0.1939  0.4353
 3835TIP3    H211463   2.931   2.665   5.921 -0.2586 -0.8767 -0.9205
 3836TIP3   OH211464   8.133   5.649   3.349 -0.3964  0.4494  0.0312
 3836TIP3    H111465   8.211   5.633   3.401  0.6975 -1.5192 -2.0182
 3836TIP3    H211466   8.063   5.603   3.395 -0.4870  2.4104  2.0008
 3837TIP3   OH211467   7.042   6.785   3.776  0.4458  0.1429  0.1210
 3837TIP3    H111468   7.136   6.788   3.755  0.8580  0.8002  1.8419
 3837TIP3    H211469   7.016   6.695   3.761  1.1276  0.1474 -1.2359
 3838TIP3   OH211470   7.684   6.029   2.488  0.5838  0.0907 -0.5175
 3838TIP3    H111471   7.706   6.121   2.474  0.1198  0.1440 -0.9204
 3838TIP3    H211472   7.602   6.016   2.440 -0.1162 -0.1809  0.7157
 3839TIP3   OH211473   7.418   4.814   6.705  0.3056  0.3827  0.2808
 3839TIP3    H111474   7.339   4.769   6.736  0.4713  1.6001  2.6839
 3839TIP3    H211475   7.385   4.890   6.656 -0.0353  0.7637  1.0868
 3840TIP3   OH211476   0.465   5.048   4.114 -0.0831  0.4116  0.0365
 3840TIP3    H111477   0.541   5.070   4.059  1.2876  1.1318  2.1111
 3840TIP3    H211478   0.487   5.082   4.201 -1.8490 -1.3101  1.2447
 3841TIP3   OH211479   7.652   6.035   3.291  0.5127 -0.2203 -0.2681
 3841TIP3    H111480   7.571   6.085   3.282  0.1814 -1.0020 -2.0624
 3841TIP3    H211481   7.654   5.979   3.213  2.0710 -1.2464  0.4689
 3842TIP3   OH211482   0.821   3.615   4.971 -0.3375  0.3517 -0.4111
 3842TIP3    H111483   0.845   3.589   5.060  0.6578 -0.4008 -0.8906
 3842TIP3    H211484   0.727   3.633   4.977 -0.6644 -1.4042  0.4070
 3843TIP3   OH211485   7.089   2.308   2.916 -0.4913  0.2691 -0.1636
 3843TIP3    H111486   7.091   2.273   2.827 -0.4483  1.0642 -0.4842
 3843TIP3    H211487   7.149   2.383   2.914 -0.2000  0.0743  0.6358
 3844TIP3   OH211488   4.920   4.353   5.298 -0.1464  0.4934 -0.0976
 3844TIP3    H111489   4.856   4.391   5.238 -0.3421 -0.1110 -0.2830
 3844TIP3    H211490   4.935   4.264   5.263  0.6294  0.5549  0.0636
 3845TIP3   OH211491   1.128   1.928   5.308 -0.4792  0.3185 -0.7421
 3845TIP3    H111492   1.164   1.854   5.357 -0.4950 -1.2527 -2.9467
 3845TIP3    H211493   1.204   1.981   5.285 -0.3922  0.6613  0.3049
 3846TIP3   OH211494   6.123   3.089   5.689 -0.3626 -0.2790  0.3059
 3846TIP3    H111495   6.174   3.058   5.614 -0.8167 -2.4250  0.8333
 3846TIP3    H211496   6.185   3.088   5.762 -0.1327  1.0580  0.1655
 3847TIP3   OH211497   7.064   5.682   3.509 -0.0882 -0.2516  0.1166
 3847TIP3    H111498   7.133   5.669   3.575  0.6818 -1.6765 -0.9062
 3847TIP3    H211499   7.020   5.597   3.503  1.0881 -0.7904 -2.4813
 3848TIP3   OH211500   2.692   0.837   2.898 -0.0714 -0.2012 -0.0060
 3848TIP3    H111501   2.667   0.803   2.984 -2.3204 -2.4284 -1.3872
 3848TIP3    H211502   2.741   0.765   2.857  0.2724  0.5071 -0.8802
 3849TIP3   OH211503   5.628   5.863   0.279  0.5533  0.4796 -0.3204
 3849TIP3    H111504   5.595   5.884   0.366  0.5702 -0.6213 -0.0409
 3849TIP3    H211505   5.684   5.787   0.291 -1.3307 -1.1982 -1.6070
 3850TIP3   OH211506   6.323   1.722   4.666  0.0649  0.0408  0.4190
 3850TIP3    H111507   6.318   1.801   4.720 -2.8392 -0.1803  0.6757
 3850TIP3    H211508   6.232   1.690   4.664  0.8984 -2.4730 -0.8856
 3851TIP3   OH211509   3.450   2.423   0.170  0.3434  0.1725  0.3247
 3851TIP3    H111510   3.534   2.456   0.202  0.6460 -1.1340  0.9543
 3851TIP3    H211511   3.413   2.496   0.120  2.7476  0.1353 -1.6953
 3852TIP3   OH211512   6.442   3.606   2.888 -0.0509 -0.0834  0.3255
 3852TIP3    H111513   6.525   3.646   2.860 -0.0915  0.4887  1.0111
 3852TIP3    H211514   6.459   3.578   2.978 -0.0074 -1.6697 -0.1463
 3853TIP3   OH211515   1.039   6.412   5.848  0.7541 -0.1663 -0.1030
 3853TIP3    H111516   1.131   6.393   5.867  0.9953  0.4141 -0.6515
 3853TIP3    H211517   1.007   6.457   5.927  0.6072 -1.4015  0.5584
 3854TIP3   OH211518   2.677   2.807   4.516  0.3986 -0.6047 -0.2238
 3854TIP3    H111519   2.724   2.821   4.434 -0.2457 -0.5857 -0.5969
 3854TIP3    H211520   2.662   2.712   4.518  1.9591 -0.8683  0.7446
 3855TIP3   OH211521   3.473   4.554   5.154  0.2002 -0.0685  0.1043
 3855TIP3    H111522   3.497   4.578   5.243 -0.2872  0.0160  0.2152
 3855TIP3    H211523   3.555   4.558   5.105  0.4356  0.0688  0.5078
 3856TIP3   OH211524   5.398   2.851   1.275 -0.3933  0.1153  0.4303
 3856TIP3    H111525   5.460   2.780   1.287 -0.9820 -0.2185  1.7148
 3856TIP3    H211526   5.355   2.833   1.192  0.5512 -0.1564 -0.0125
 3857TIP3   OH211527   1.581   1.438   6.390  0.6534  0.4667 -1.7062
 3857TIP3    H111528   1.485   1.443   6.390  0.6632  1.3280 -0.1613
 3857TIP3    H211529   1.606   1.459   6.480  2.3074  0.3874 -2.1180
 3858TIP3   OH211530   4.400   5.275   1.561 -0.1578 -0.1352 -0.4093
 3858TIP3    H111531   4.384   5.363   1.595  0.1482 -0.2200 -0.0365
 3858TIP3    H211532   4.495   5.272   1.545 -0.2676 -0.1588 -1.1018
 3859TIP3   OH211533   3.313   3.044   0.606  0.6106  0.2766  0.0839
 3859TIP3    H111534   3.242   2.985   0.633 -0.2734  1.9208  1.5712
 3859TIP3    H211535   3.268   3.115   0.561  1.4268  0.9401  0.3058
 3860TIP3   OH211536   0.139   1.164   1.012  0.7217  0.0569  0.1150
 3860TIP3    H111537   0.138   1.218   0.933 -3.9530 -0.4007 -0.4487
 3860TIP3    H211538   0.118   1.076   0.982 -1.5514 -0.0642  1.7685
 3861TIP3   OH211539   0.892   6.891   0.039 -0.1019 -0.6971  0.2953
 3861TIP3    H111540   0.926   6.910  -0.048  0.5480  0.3677  0.7551
 3861TIP3    H211541   0.884   6.977   0.081 -2.0389 -1.0454  0.7103
 3862TIP3   OH211542   5.319   6.304   4.293 -0.2146 -0.0991  0.3447
 3862TIP3    H111543   5.309   6.210   4.278  1.8197 -0.4784  1.0275
 3862TIP3    H211544   5.305   6.344   4.207  2.1781 -1.3800 -0.7568
 3863TIP3   OH211545   7.784   6.288   1.141  0.3295  0.2296 -0.3630
 3863TIP3    H111546   7.764   6.227   1.212 -1.2939 -1.0672 -1.8470
 3863TIP3    H211547   7.699   6.324   1.115  0.9314  0.9416 -1.4225
 3864TIP3   OH211548   6.198   7.262   0.606  0.3423  0.8476  0.1386
 3864TIP3    H111549   6.269   7.216   0.651  0.2181  0.6436  0.1292
 3864TIP3    H211550   6.237   7.344   0.576  0.5979  0.6894  0.0420
 3865TIP3   OH211551   4.539   2.409   0.814  0.1513 -0.4216 -0.3147
 3865TIP3    H111552   4.584   2.444   0.737  2.6377 -1.7425  0.3949
 3865TIP3    H211553   4.559   2.471   0.884 -0.4807 -0.2187 -0.3072
 3866TIP3   OH211554   1.847   5.689   2.441  0.4014 -0.3474 -0.3830
 3866TIP3    H111555   1.830   5.694   2.535  1.3732 -0.9271 -0.1671
 3866TIP3    H211556   1.886   5.774   2.419  0.1086 -0.1860 -0.2825
 3867TIP3   OH211557   2.457   7.465   2.751 -0.4297 -0.0826  0.2501
 3867TIP3    H111558   2.363   7.467   2.769 -0.3350 -0.1384  0.7666
 3867TIP3    H211559   2.469   7.392   2.690 -0.8181  0.3986 -0.4112
 3868TIP3   OH211560   1.143   1.312   4.658 -0.4097 -0.4537  0.2553
 3868TIP3    H111561   1.059   1.276   4.628 -2.0356  1.8484  1.7175
 3868TIP3    H211562   1.161   1.384   4.599  0.4159 -0.7304  0.1521
 3869TIP3   OH211563   5.505   3.332   1.353  0.5746 -0.4299 -0.2439
 3869TIP3    H111564   5.527   3.240   1.363 -0.9494 -0.7518  0.5470
 3869TIP3    H211565   5.416   3.339   1.389 -0.3392  0.8487 -2.5275
 3870TIP3   OH211566   8.251   4.539   4.822  0.4822  0.4479  0.4089
 3870TIP3    H111567   8.225   4.628   4.843 -0.5284  0.4942 -0.9232
 3870TIP3    H211568   8.169   4.492   4.809  0.9033 -1.2472  3.1242
 3871TIP3   OH211569   2.895   2.181   5.688 -0.6265  0.6628 -0.6314
 3871TIP3    H111570   2.950   2.129   5.631 -0.0425  0.7425 -0.1523
 3871TIP3    H211571   2.953   2.210   5.758 -1.3447  0.4756  0.0650
 3872TIP3   OH211572   0.293   6.472   3.933  0.2447  0.1235  1.0912
 3872TIP3    H111573   0.367   6.530   3.950  0.5893 -0.3645  1.2955
 3872TIP3    H211574   0.334   6.389   3.908 -0.2353  0.1923  0.0047
 3873TIP3   OH211575   0.958   1.011   5.563  0.5213 -0.4546 -0.1280
 3873TIP3    H111576   0.924   0.997   5.475  1.1953 -1.3566 -0.2548
 3873TIP3    H211577   0.888   0.979   5.621 -0.0744  0.4839 -0.3171
 3874TIP3   OH211578   1.844   6.338   1.584  0.6638 -0.1319  0.2310
 3874TIP3    H111579   1.937   6.333   1.560  0.6793 -1.6510  0.5185
 3874TIP3    H211580   1.844   6.390   1.664  1.2718 -0.0808  0.2064
 3875TIP3   OH211581   0.726   2.558   6.474 -0.1846 -0.5959  0.2461
 3875TIP3    H111582   0.654   2.560   6.411 -0.4390 -0.1251  0.5445
 3875TIP3    H211583   0.764   2.471   6.464 -0.9027 -0.9167  0.2053
 3876TIP3   OH211584   6.033   1.274   5.717  0.2183 -0.3637  0.0664
 3876TIP3    H111585   6.018   1.341   5.650 -0.6307 -2.1093 -1.6022
 3876TIP3    H211586   5.960   1.285   5.778 -0.3601 -0.2429 -0.6282
 3877TIP3   OH211587   4.362   5.737   1.263  0.2147  0.2187 -0.3312
 3877TIP3    H111588   4.376   5.706   1.352 -0.0468  2.1222  0.4098
 3877TIP3    H211589   4.450   5.763   1.234  0.2311 -0.0078 -0.4895
 3878TIP3   OH211590   5.888   1.221   4.196 -0.3227  0.3752 -0.0528
 3878TIP3    H111591   5.967   1.257   4.236  0.8600 -2.2535  0.2012
 3878TIP3    H211592   5.817   1.247   4.255  0.5254  1.6975  0.4124
 3879TIP3   OH211593   0.313   4.138   1.464  0.1216 -0.8912  1.5360
 3879TIP3    H111594   0.220   4.125   1.480  0.4236 -2.7927  1.9364
 3879TIP3    H211595   0.326   4.113   1.373  0.3050 -1.0341  1.6000
 3880TIP3   OH211596   7.002   3.490   3.870 -0.1906 -0.1109  0.5823
 3880TIP3    H111597   7.010   3.565   3.811  0.3589  0.7344  1.7037
 3880TIP3    H211598   6.924   3.508   3.922 -0.2323 -0.4651  0.6431
 3881TIP3   OH211599   0.531   1.890   5.688 -0.0710  0.1505 -0.1463
 3881TIP3    H111600   0.612   1.840   5.688  1.5953  2.6346 -1.2618
 3881TIP3    H211601   0.558   1.979   5.710 -2.2692  1.3652 -1.9297
 3882TIP3   OH211602   1.677   1.369   5.495 -0.3978 -0.4595 -0.2191
 3882TIP3    H111603   1.755   1.340   5.447 -0.4771 -1.2764  0.1274
 3882TIP3    H211604   1.703   1.454   5.533 -0.0141 -0.2656 -0.9064
 3883TIP3   OH211605   0.766   1.078   2.428  0.5178 -0.5172  0.0626
 3883TIP3    H111606   0.737   0.993   2.461 -1.2829 -0.0986 -0.3362
 3883TIP3    H211607   0.686   1.130   2.422  1.3842  0.7508 -1.0280
 3884TIP3   OH211608   0.507   7.379   4.334 -0.3132 -0.1186 -0.8340
 3884TIP3    H111609   0.542   7.302   4.289 -0.0413 -1.1095  0.9480
 3884TIP3    H211610   0.431   7.346   4.381  1.0923  0.0874  1.7669
 3885TIP3   OH211611   3.997   3.014   3.994  0.2071  0.0614  0.1399
 3885TIP3    H111612   3.972   2.928   4.027  2.4787 -0.1669  1.5390
 3885TIP3    H211613   3.959   3.019   3.907 -1.6322 -1.5309  0.7908
 3886TIP3   OH211614   8.020   4.573   0.141 -0.2193 -0.1609  0.3267
 3886TIP3    H111615   8.024   4.668   0.148  0.7879 -0.2976  2.2118
 3886TIP3    H211616   7.927   4.552   0.156 -0.5187  0.5341 -0.4912
 3887TIP3   OH211617   4.834   7.489   6.690  0.0299 -0.5448  0.0451
 3887TIP3    H111618   4.817   7.452   6.604 -1.9355 -1.1864  0.6680
 3887TIP3    H211619   4.927   7.514   6.687  0.1293 -0.9736 -2.0687
 3888TIP3   OH211620   8.083   2.921   5.577  0.3166 -0.4385  0.1412
 3888TIP3    H111621   8.005   2.931   5.522  0.6831 -0.3074 -0.3630
 3888TIP3    H211622   8.117   3.011   5.587  0.6582 -0.5464 -0.0270
 3889TIP3   OH211623   5.815   3.539   6.273  0.3401 -0.3277 -0.3850
 3889TIP3    H111624   5.781   3.450   6.264 -1.5420  0.5191 -2.5463
 3889TIP3    H211625   5.894   3.541   6.219 -0.4645 -0.3438 -1.6131
 3890TIP3   OH211626   3.221   0.356   3.405 -0.0165 -0.2382  0.4825
 3890TIP3    H111627   3.177   0.375   3.488 -0.6240 -0.3242  0.1898
 3890TIP3    H211628   3.200   0.431   3.349 -0.2499 -0.5419  0.1617
 3891TIP3   OH211629   3.508   0.561   4.151  0.5395  0.1788  0.8948
 3891TIP3    H111630   3.447   0.487   4.147  0.1804  0.4814  0.6601
 3891TIP3    H211631   3.454   0.638   4.130  1.2455  0.3005 -0.6402
 3892TIP3   OH211632   4.741   3.555   2.876 -0.5823  0.6082 -0.2730
 3892TIP3    H111633   4.671   3.531   2.814  0.1046  0.3940 -0.9776
 3892TIP3    H211634   4.721   3.646   2.900 -2.3509 -0.1221  1.2676
 3893TIP3   OH211635   3.719   7.711   0.952 -0.2340  0.2719  0.2478
 3893TIP3    H111636   3.706   7.723   0.858 -0.7764  0.5668  0.3568
 3893TIP3    H211637   3.792   7.650   0.958 -0.6474 -0.3107 -0.3778
 3894TIP3   OH211638   0.124   5.385   3.166 -0.4117  0.3197 -0.3986
 3894TIP3    H111639   0.209   5.389   3.123  0.7867  0.3208  1.8017
 3894TIP3    H211640   0.133   5.443   3.242 -1.0839 -2.3605  1.9095
 3895TIP3   OH211641   1.526   5.304   2.972 -0.0108  0.1272 -0.5320
 3895TIP3    H111642   1.611   5.314   2.928  0.3563  2.0579  0.4990
 3895TIP3    H211643   1.462   5.316   2.903  0.4936 -1.9211 -1.4380
 3896TIP3   OH211644   0.085   4.865   3.059 -0.1705  0.0120  0.1871
 3896TIP3    H111645   0.172   4.884   3.023 -1.4965  2.5359 -2.0555
 3896TIP3    H211646   0.073   4.930   3.128 -0.7985  0.6333 -0.4944
 3897TIP3   OH211647   3.446   2.559   3.674  0.2688  0.8423 -0.1982
 3897TIP3    H111648   3.388   2.634   3.658 -1.0018 -0.2256 -0.7563
 3897TIP3    H211649   3.487   2.542   3.589  1.5351  1.6706  0.2219
 3898TIP3   OH211650   6.154   6.879   0.522  0.3306  0.0835  0.4536
 3898TIP3    H111651   6.095   6.804   0.529  1.2819 -0.5394  3.0340
 3898TIP3    H211652   6.239   6.844   0.548  1.2923  1.5656 -0.5733
 3899TIP3   OH211653   6.201   7.006   4.939  0.2111  0.0953 -0.4749
 3899TIP3    H111654   6.243   7.030   5.021 -0.3961 -1.0689  0.2082
 3899TIP3    H211655   6.109   7.031   4.950  0.2073  0.3157 -0.9701
 3900TIP3   OH211656   4.610   3.178   3.928 -0.4311 -0.4287 -0.5062
 3900TIP3    H111657   4.553   3.231   3.984 -0.1766 -0.4152 -0.2570
 3900TIP3    H211658   4.617   3.228   3.847 -1.8216 -1.0491 -1.0347
 3901TIP3   OH211659   3.631   5.121   0.644  0.0599  0.1111 -0.5272
 3901TIP3    H111660   3.725   5.116   0.627  0.5203 -0.0560  1.7104
 3901TIP3    H211661   3.600   5.195   0.591  1.3161 -0.2110 -1.7458
 3902TIP3   OH211662   7.460   1.383   1.842 -0.3967 -0.2373 -0.5046
 3902TIP3    H111663   7.365   1.382   1.826 -0.3957  0.5975 -0.5901
 3902TIP3    H211664   7.484   1.475   1.836  0.0041 -0.1022  2.0825
 3903TIP3   OH211665   6.584   3.482   1.434  0.3206  0.3467 -0.7256
 3903TIP3    H111666   6.490   3.467   1.439  0.3806  0.3436  1.8424
 3903TIP3    H211667   6.602   3.547   1.501  2.4668 -1.6567  0.8423
 3904TIP3   OH211668   1.165   2.028   0.739 -0.4170 -0.0383  0.5071
 3904TIP3    H111669   1.192   2.021   0.831 -2.7918 -1.6878  1.1851
 3904TIP3    H211670   1.174   1.939   0.705 -2.7698 -0.2228  0.1910
 3905TIP3   OH211671   0.424   1.034   5.165 -0.7321  0.4001  0.0512
 3905TIP3    H111672   0.434   1.120   5.124 -1.5112  0.5120  0.0838
 3905TIP3    H211673   0.476   1.039   5.245 -1.1778  1.0158  0.3056
 3906TIP3   OH211674   6.725   5.044   5.072 -0.0324 -0.9133 -0.3842
 3906TIP3    H111675   6.732   5.029   4.978 -0.8440 -0.7390 -0.4814
 3906TIP3    H211676   6.634   5.021   5.093  0.0323 -0.5773  0.2841
 3907TIP3   OH211677   5.053   7.680   0.298 -0.1126  0.5242  0.0926
 3907TIP3    H111678   5.053   7.640   0.384 -1.9138  1.9485  0.8405
 3907TIP3    H211679   5.123   7.636   0.250 -1.0944 -2.5366  1.2189
 3908TIP3   OH211680   4.137   3.813   0.480 -0.1981  0.0083  0.1675
 3908TIP3    H111681   4.045   3.823   0.454 -0.0876  0.8091  0.0585
 3908TIP3    H211682   4.160   3.724   0.452 -0.5376  0.2949 -1.0823
 3909TIP3   OH211683   3.101   4.353   4.244 -0.2239 -0.4697  1.0670
 3909TIP3    H111684   3.109   4.266   4.282  1.7511 -1.1414 -0.6965
 3909TIP3    H211685   3.129   4.413   4.314 -0.3870 -1.3500  1.8942
 3910TIP3   OH211686   2.633   1.692   5.537 -0.2946 -0.0301 -0.5673
 3910TIP3    H111687   2.613   1.630   5.607  0.5130 -0.0571 -0.3446
 3910TIP3    H211688   2.564   1.758   5.543 -0.7718 -0.5444 -0.3635
 3911TIP3   OH211689   3.761   4.568   4.637  1.1830  0.3855  0.0252
 3911TIP3    H111690   3.788   4.552   4.727 -0.4400 -0.1703  0.4497
 3911TIP3    H211691   3.731   4.483   4.605  0.4577  0.8479 -0.5619
 3912TIP3   OH211692   0.464   2.845   6.498  0.3568 -1.1913 -0.0345
 3912TIP3    H111693   0.459   2.753   6.472  2.0116 -1.6252  0.9622
 3912TIP3    H211694   0.530   2.883   6.440  0.4139 -0.9063  0.2110
 3913TIP3   OH211695   5.351   7.212   3.736 -0.0004  0.1105  0.4686
 3913TIP3    H111696   5.302   7.284   3.697  1.6097  1.0781  0.1274
 3913TIP3    H211697   5.320   7.207   3.826 -0.4980  0.8947  0.3458
 3914TIP3   OH211698   1.635   3.311   3.774 -0.1416  0.0756  0.5590
 3914TIP3    H111699   1.567   3.252   3.807 -0.3330 -0.3688 -0.5715
 3914TIP3    H211700   1.627   3.389   3.828 -2.4925  0.5883 -0.3796
 3915TIP3   OH211701   7.579   1.850   2.201 -0.3445  0.0215  0.4816
 3915TIP3    H111702   7.514   1.840   2.131  0.1033  0.1278  0.0399
 3915TIP3    H211703   7.534   1.900   2.269 -0.9889 -0.6370  0.5460
 3916TIP3   OH211704   8.227   4.814   4.802 -0.2435  0.3254 -0.3204
 3916TIP3    H111705   8.309   4.847   4.837 -0.0479 -0.1578 -0.3209
 3916TIP3    H211706   8.196   4.883   4.743 -0.7618  1.3251  1.0497
 3917TIP3   OH211707   4.090   5.908   5.714  0.3482 -0.9618  0.1116
 3917TIP3    H111708   4.020   5.970   5.693  1.5259  0.3315 -0.1844
 3917TIP3    H211709   4.067   5.828   5.666 -0.2943 -0.1596 -0.9598
 3918TIP3   OH211710   5.701   5.879   1.068  0.1799  0.0281  0.2544
 3918TIP3    H111711   5.769   5.946   1.074 -0.7733  1.3158 -2.1026
 3918TIP3    H211712   5.658   5.880   1.153  3.3531 -1.2280  2.0433
 3919TIP3   OH211713   1.472   1.406   3.063  0.4939  0.1647  0.0954
 3919TIP3    H111714   1.385   1.407   3.023  1.2637  1.0751 -1.6914
 3919TIP3    H211715   1.464   1.347   3.138 -1.3820 -0.5981 -0.6496
 3920TIP3   OH211716   0.230   5.010   1.346 -0.7763  0.1181 -0.3086
 3920TIP3    H111717   0.263   4.993   1.258 -3.0343  0.4080 -1.2886
 3920TIP3    H211718   0.260   5.098   1.367  0.1212 -0.1091 -0.6018
 3921TIP3   OH211719   3.944   3.577   5.863 -0.8824  0.3210  0.1839
 3921TIP3    H111720   3.902   3.605   5.781 -0.7221  1.2517  0.4007
 3921TIP3    H211721   3.944   3.482   5.859 -2.3397  0.3094 -0.1634
 3922TIP3   OH211722   2.398   7.048   3.256  0.1685 -0.0029  0.6559
 3922TIP3    H111723   2.375   6.991   3.183 -0.3967 -0.4143  1.1449
 3922TIP3    H211724   2.428   6.989   3.325 -1.1353  0.1976  1.4348
 3923TIP3   OH211725   4.755   3.879   0.674 -0.3402 -0.5029 -0.9350
 3923TIP3    H111726   4.660   3.881   0.683 -0.4019 -0.3984 -1.5421
 3923TIP3    H211727   4.771   3.817   0.603 -0.0321  0.4448 -1.7116
 3924TIP3   OH211728   4.181   4.860   1.128  0.1328 -0.3851  0.1346
 3924TIP3    H111729   4.224   4.828   1.207  1.7480 -1.0199 -0.9495
 3924TIP3    H211730   4.238   4.929   1.095 -1.0118  0.5328  0.0143
 3925TIP3   OH211731   2.196   6.260   1.215 -0.1781  0.4347 -0.1975
 3925TIP3    H111732   2.211   6.166   1.217 -0.2593  0.4198 -0.2715
 3925TIP3    H211733   2.284   6.298   1.223 -0.2891  0.3837  1.5721
 3926TIP3   OH211734   3.172   1.073   4.836  0.7666  0.6060 -1.0564
 3926TIP3    H111735   3.228   1.055   4.761 -0.4290 -1.1550 -1.5879
 3926TIP3    H211736   3.163   0.989   4.880 -0.6745  1.0452 -0.4596
 3927TIP3   OH211737   2.322   2.310   3.135 -0.1023  0.0184  0.7144
 3927TIP3    H111738   2.386   2.376   3.164  0.3063 -0.1761  0.2691
 3927TIP3    H211739   2.286   2.346   3.055  0.6866 -0.6404  0.0415
 3928TIP3   OH211740   5.039   2.744   5.938 -0.7264  0.0154  0.3912
 3928TIP3    H111741   4.952   2.781   5.953 -0.8616 -0.1603  0.0470
 3928TIP3    H211742   5.041   2.724   5.844 -0.2320  0.2322  0.3479
 3929TIP3   OH211743   1.989   2.422   0.400  0.3030 -0.4564 -0.2695
 3929TIP3    H111744   2.004   2.397   0.309 -0.1771 -1.8921  0.0295
 3929TIP3    H211745   1.922   2.361   0.431 -0.5440  0.8777  0.6571
 3930TIP3   OH211746   5.208   3.453   4.425 -0.0629  0.6255 -0.0780
 3930TIP3    H111747   5.301   3.460   4.449 -0.1908 -0.6254  0.8767
 3930TIP3    H211748   5.164   3.514   4.483 -0.1808 -1.2209  1.9220
 3931TIP3   OH211749   4.616   5.329   2.475  0.0871  0.6645  0.6077
 3931TIP3    H111750   4.675   5.256   2.461 -0.4666  0.0385  1.4323
 3931TIP3    H211751   4.674   5.403   2.496  0.5683 -0.2499  2.7664
 3932TIP3   OH211752   2.298   6.274   1.827 -0.7143 -0.1204 -0.3494
 3932TIP3    H111753   2.220   6.320   1.797 -1.2224 -0.7100  0.0398
 3932TIP3    H211754   2.283   6.183   1.803  0.0416 -0.1787 -0.6315
 3933TIP3   OH211755   2.600   3.440   4.286 -0.3428  0.4268  0.3367
 3933TIP3    H111756   2.563   3.359   4.250 -0.0516  1.0246 -1.3844
 3933TIP3    H211757   2.593   3.429   4.381  0.0900 -1.7929  0.1623
 3934TIP3   OH211758   6.215   5.639   6.253  0.3365 -0.4256 -0.3719
 3934TIP3    H111759   6.225   5.552   6.291  0.7775 -0.4846 -0.6167
 3934TIP3    H211760   6.273   5.639   6.177 -0.4737 -0.2861 -1.0031
 3935TIP3   OH211761   7.714   4.635   4.237  0.2014  0.0651 -0.3860
 3935TIP3    H111762   7.762   4.717   4.241  1.6588 -0.7929  0.7154
 3935TIP3    H211763   7.697   4.612   4.328 -1.2161 -0.3115 -0.7056
 3936TIP3   OH211764   1.629   6.347   5.274  0.2318 -0.4251  0.5407
 3936TIP3    H111765   1.635   6.438   5.248 -0.2332 -0.4929  0.1870
 3936TIP3    H211766   1.543   6.318   5.243 -0.1592 -0.6306  1.7535
 3937TIP3   OH211767   7.869   1.714   5.483 -0.0045  0.1861  0.1547
 3937TIP3    H111768   7.835   1.660   5.412  0.0921  0.9117 -0.4594
 3937TIP3    H211769   7.824   1.683   5.561 -1.2270  0.3683 -0.4572
 3938TIP3   OH211770   2.228   2.930   3.175 -0.0496  0.0388 -0.3756
 3938TIP3    H111771   2.281   2.992   3.225  1.3397 -0.5466 -1.0523
 3938TIP3    H211772   2.289   2.892   3.111 -1.1139 -1.2302 -0.6974
 3939TIP3   OH211773   5.628   5.862   2.308  0.5111  0.1634  0.6121
 3939TIP3    H111774   5.621   5.833   2.399  1.0661 -1.2176  0.2346
 3939TIP3    H211775   5.704   5.816   2.273 -0.5872 -0.5308 -0.9866
 3940TIP3   OH211776   3.169   4.370   0.409 -0.3388 -0.8156 -0.3292
 3940TIP3    H111777   3.144   4.303   0.346 -0.5080 -0.5931 -0.4983
 3940TIP3    H211778   3.264   4.363   0.415 -0.3127 -0.7756 -0.6801
 3941TIP3   OH211779   8.214   0.169   0.108 -0.5710  0.0789  0.7540
 3941TIP3    H111780   8.308   0.164   0.126 -0.4009 -0.4671 -0.2084
 3941TIP3    H211781   8.189   0.257   0.137  0.9173  1.5180 -1.9123
 3942TIP3   OH211782   4.457   2.584   1.314  0.2490 -0.0419 -0.2655
 3942TIP3    H111783   4.379   2.564   1.366 -0.3666  0.5050 -0.9583
 3942TIP3    H211784   4.474   2.504   1.264 -0.0461 -0.0688 -0.3263
 3943TIP3   OH211785   6.327   2.556   0.996 -0.0059 -0.5510  0.0605
 3943TIP3    H111786   6.319   2.572   1.090  1.5772  0.6684  0.0431
 3943TIP3    H211787   6.404   2.608   0.970 -0.4649 -0.7875 -1.9171
 3944TIP3   OH211788   4.126   4.639   5.820 -0.4448  0.0591 -0.2715
 3944TIP3    H111789   4.178   4.589   5.758  0.7929  1.1194 -0.1282
 3944TIP3    H211790   4.146   4.730   5.800 -0.9565  0.4518  0.9020
 3945TIP3   OH211791   3.831   2.459   4.981  0.5731 -0.2620  0.0530
 3945TIP3    H111792   3.862   2.430   5.067 -1.1854 -1.6098  0.2865
 3945TIP3    H211793   3.900   2.432   4.921  1.8550  0.7461  1.0073
 3946TIP3   OH211794   5.151   4.611   2.237 -0.1899  0.0395  0.1346
 3946TIP3    H111795   5.203   4.687   2.209  0.8766 -0.2872  1.1574
 3946TIP3    H211796   5.064   4.647   2.256 -0.0173  0.8011 -0.4571
 3947TIP3   OH211797   3.269   7.439   1.438 -0.2350 -0.1922 -0.3420
 3947TIP3    H111798   3.309   7.456   1.523 -0.6311 -0.1820 -0.1548
 3947TIP3    H211799   3.192   7.386   1.459 -2.0654  2.2752 -0.3573
 3948TIP3   OH211800   3.862   2.378   1.075  0.0831 -0.0427  0.1794
 3948TIP3    H111801   3.821   2.409   0.994  0.4758  0.9383  0.3355
 3948TIP3    H211802   3.945   2.427   1.080 -0.0677  0.1277  1.3089
 3949TIP3   OH211803   4.321   3.853   2.625  0.2167 -0.4253 -0.3687
 3949TIP3    H111804   4.334   3.764   2.594  2.0238 -0.4478  0.3540
 3949TIP3    H211805   4.298   3.843   2.717 -2.8897 -0.2411 -0.9830
 3950TIP3   OH211806   6.074   1.040   5.551 -1.0129 -0.2677 -0.1504
 3950TIP3    H111807   6.001   1.007   5.499 -0.0545 -1.2932 -0.9118
 3950TIP3    H211808   6.037   1.110   5.604 -2.3534 -0.2046 -1.1302
 3951TIP3   OH211809   1.553   6.095   5.043 -0.6324 -0.4171 -0.0537
 3951TIP3    H111810   1.647   6.110   5.040 -0.7776  0.7199  0.5378
 3951TIP3    H211811   1.543   6.011   5.088  0.0618  0.0169  0.9488
 3952TIP3   OH211812   0.079   6.247   1.000 -0.2555 -0.0069  0.1916
 3952TIP3    H111813   0.030   6.178   0.954 -0.1812 -0.2714  0.5058
 3952TIP3    H211814   0.014   6.291   1.054 -0.5444  0.9460 -0.8943
 3953TIP3   OH211815   0.202   1.562   5.041  0.1837  0.0729  0.1662
 3953TIP3    H111816   0.207   1.611   4.959  1.5373 -0.2104  0.0516
 3953TIP3    H211817   0.241   1.620   5.106 -2.3640  0.9662  0.9849
 3954TIP3   OH211818   4.377   5.091   3.985  0.2423  0.7575 -0.1992
 3954TIP3    H111819   4.403   5.027   4.051  1.8884 -0.0477 -1.5618
 3954TIP3    H211820   4.435   5.166   3.999  1.2508  0.2127 -1.2612
 3955TIP3   OH211821   6.301   2.306   0.816 -0.0805 -0.8225  0.7486
 3955TIP3    H111822   6.344   2.383   0.854 -1.0757 -0.1522  0.5598
 3955TIP3    H211823   6.274   2.254   0.892 -1.1070 -0.0198  0.9611
 3956TIP3   OH211824   2.348   1.820   6.649  0.0461  0.3052  0.3034
 3956TIP3    H111825   2.376   1.730   6.667  0.1370  0.0998 -0.7871
 3956TIP3    H211826   2.429   1.869   6.637  0.0510 -0.2633 -2.7285
 3957TIP3   OH211827   7.923   2.010   1.422 -0.1162 -0.1216 -0.0701
 3957TIP3    H111828   7.974   1.929   1.429 -0.2895 -0.4816 -2.4288
 3957TIP3    H211829   7.843   1.991   1.471  0.9127 -0.4093  1.5980
 3958TIP3   OH211830   7.089   0.633   4.795  0.2195  0.2893 -0.0881
 3958TIP3    H111831   7.054   0.707   4.845  2.2781  0.7714  0.7369
 3958TIP3    H211832   7.119   0.671   4.713  0.1581  0.1560 -0.1727
 3959TIP3   OH211833   2.204   7.053   1.183  0.3263 -0.6661  0.7811
 3959TIP3    H111834   2.113   7.083   1.186  1.0032  1.5604  3.1593
 3959TIP3    H211835   2.255   7.133   1.173  2.0951 -1.6941  1.1278
 3960TIP3   OH211836   4.408   6.256   2.751 -0.0978  0.0155 -0.2443
 3960TIP3    H111837   4.364   6.264   2.666  1.0274 -1.3404 -0.9910
 3960TIP3    H211838   4.396   6.165   2.776 -0.5612  0.4337  1.1687
 3961TIP3   OH211839   1.353   4.734   5.743  0.0377  0.4219  0.4160
 3961TIP3    H111840   1.420   4.706   5.806 -1.0052 -0.4361  1.1860
 3961TIP3    H211841   1.279   4.759   5.798 -1.4156 -1.6871 -0.4645
 3962TIP3   OH211842   4.682   7.797   2.984 -0.0564  0.2215 -0.3546
 3962TIP3    H111843   4.678   7.873   2.925  1.2396 -0.3888 -1.2758
 3962TIP3    H211844   4.618   7.736   2.947 -0.9864  0.7705  0.2966
 3963TIP3   OH211845   1.391   6.288   0.204  0.2440 -0.0667 -0.3507
 3963TIP3    H111846   1.474   6.332   0.186 -0.7405  1.3139 -1.9001
 3963TIP3    H211847   1.335   6.314   0.131 -1.6069 -0.7910  0.7538
 3964TIP3   OH211848   1.302   2.310   6.387  0.1560 -0.1043 -0.2695
 3964TIP3    H111849   1.351   2.273   6.314 -0.2082  1.2965 -1.2589
 3964TIP3    H211850   1.369   2.343   6.446  0.4362 -0.4749 -0.3740
 3965TIP3   OH211851   2.859   3.904  -0.001  0.3653  0.2275 -0.0998
 3965TIP3    H111852   2.822   3.975   0.051 -1.2579 -0.5281 -0.1600
 3965TIP3    H211853   2.950   3.929  -0.014 -0.4813  3.1317 -1.4737
 3966TIP3   OH211854   7.648   5.416   3.512  0.3283 -0.7238  0.2898
 3966TIP3    H111855   7.650   5.323   3.534  0.2553 -0.8852 -0.3613
 3966TIP3    H211856   7.658   5.461   3.596  0.9459 -1.3240  0.5485
 3967TIP3   OH211857   2.883   4.640   5.274  0.2608 -0.4641  0.6399
 3967TIP3    H111858   2.978   4.641   5.287  1.0278  1.9141 -3.4267
 3967TIP3    H211859   2.872   4.605   5.185 -2.5189  0.7187  0.4350
 3968TIP3   OH211860   4.561   3.512   4.697  0.1584  0.4913 -0.0706
 3968TIP3    H111861   4.595   3.540   4.782  2.9335  2.5521 -1.7039
 3968TIP3    H211862   4.548   3.593   4.648 -0.0039 -0.6878 -2.0973
 3969TIP3   OH211863   6.908   6.647   4.822  0.0169  0.2379  0.3194
 3969TIP3    H111864   6.973   6.708   4.789  0.3922 -0.3980 -0.1283
 3969TIP3    H211865   6.934   6.630   4.913 -0.4746  1.2507  0.6651
 3970TIP3   OH211866   3.350   4.590   5.646 -0.1703 -0.4140  0.5507
 3970TIP3    H111867   3.332   4.587   5.552  2.5341  1.4281 -0.1335
 3970TIP3    H211868   3.379   4.680   5.662  0.4645 -0.9764  2.9480
 3971TIP3   OH211869   2.153   3.714   2.469 -0.2788  0.2823 -0.7715
 3971TIP3    H111870   2.076   3.659   2.452  0.6008 -1.1590 -0.2621
 3971TIP3    H211871   2.183   3.740   2.381 -0.1301 -0.9152 -1.1026
 3972TIP3   OH211872   7.400   7.331   6.339 -0.2868  0.5711 -0.3533
 3972TIP3    H111873   7.472   7.270   6.323 -1.3062 -1.1153  1.0133
 3972TIP3    H211874   7.340   7.318   6.265 -0.3592  0.0757 -0.2179
 3973TIP3   OH211875   2.997   1.999   3.162 -0.3704  0.2296 -0.0531
 3973TIP3    H111876   3.023   1.966   3.076  0.9911 -0.9953  0.7812
 3973TIP3    H211877   2.967   1.922   3.210  1.1231  0.4464  1.3253
 3974TIP3   OH211878   3.737   1.649   5.007 -0.0400 -0.0275 -0.0099
 3974TIP3    H111879   3.681   1.722   4.979  2.0755  2.1356  0.9955
 3974TIP3    H211880   3.704   1.626   5.093  0.7239  1.4606  0.7217
 3975TIP3   OH211881   5.145   6.797   4.813  0.1285 -0.3936 -0.1312
 3975TIP3    H111882   5.217   6.770   4.870 -0.3941 -1.4118  0.0817
 3975TIP3    H211883   5.073   6.740   4.838 -0.6189  0.3007 -0.6579
 3976TIP3   OH211884   3.529   5.646   3.545  0.5010  0.0817 -0.0247
 3976TIP3    H111885   3.487   5.566   3.514  1.7164 -0.0694 -1.4204
 3976TIP3    H211886   3.574   5.620   3.625 -2.2440  0.3408  1.7188
 3977TIP3   OH211887   3.911   1.566   6.171  0.5727  0.1951  0.3194
 3977TIP3    H111888   3.852   1.641   6.182  0.7735  0.5723 -0.9764
 3977TIP3    H211889   3.981   1.582   6.234  0.4159  0.9208  0.3252
 3978TIP3   OH211890   1.881   3.968   2.281 -0.2646  0.1941  0.1940
 3978TIP3    H111891   1.880   3.916   2.201 -1.5622 -0.1815  0.4351
 3978TIP3    H211892   1.963   3.944   2.324  0.8920  1.0623 -1.4187
 3979TIP3   OH211893   0.892   3.328   5.805 -0.2397 -0.0001 -0.1972
 3979TIP3    H111894   0.881   3.250   5.860 -0.0773  0.5519  0.6372
 3979TIP3    H211895   0.915   3.398   5.866  1.2223  0.3638 -1.1247
 3980TIP3   OH211896   4.212   1.501   0.282 -0.4612 -0.2976  0.9251
 3980TIP3    H111897   4.142   1.450   0.321 -0.9108 -1.5923 -1.4195
 3980TIP3    H211898   4.284   1.439   0.272  0.9902  0.9168  2.9500
 3981TIP3   OH211899   8.089   3.371   2.586  0.8897  0.0636 -0.1497
 3981TIP3    H111900   8.139   3.437   2.537  0.9655  0.9065  1.0117
 3981TIP3    H211901   8.096   3.292   2.533  0.1392  1.1692 -1.9802
 3982TIP3   OH211902   0.247   7.491   3.532 -0.3534 -0.2195  0.5934
 3982TIP3    H111903   0.180   7.558   3.515  2.8063  2.5065 -2.8904
 3982TIP3    H211904   0.295   7.524   3.608  1.2862  1.8549 -1.1977
 3983TIP3   OH211905   3.971   3.101   0.680  0.2941 -0.0488 -0.2704
 3983TIP3    H111906   4.012   3.027   0.635  0.3378 -0.7970  0.9589
 3983TIP3    H211907   4.043   3.144   0.726 -0.0806 -0.6494  0.9139
 3984TIP3   OH211908   4.992   3.493   2.739  0.5970  0.6669 -0.4907
 3984TIP3    H111909   5.008   3.402   2.764  1.1132  0.3369 -1.9341
 3984TIP3    H211910   4.917   3.520   2.792  0.0161 -0.8067 -0.5306
 3985TIP3   OH211911   0.043   1.731   1.265 -0.8648 -0.1626 -0.3035
 3985TIP3    H111912   0.030   1.665   1.197 -1.6336 -0.7279  0.3781
 3985TIP3    H211913   0.028   1.814   1.220 -1.8488 -0.5521 -0.7159
 3986TIP3   OH211914   1.962   2.909   6.197  0.0967 -0.0124  0.5447
 3986TIP3    H111915   2.043   2.868   6.225 -0.2978  0.5104  2.6602
 3986TIP3    H211916   1.985   3.001   6.182  0.1684 -0.1498 -0.1920
 3987TIP3   OH211917   4.705   1.916   6.519 -0.0454 -0.4140 -0.3302
 3987TIP3    H111918   4.638   1.858   6.555  0.2788 -0.5997 -0.0103
 3987TIP3    H211919   4.657   1.980   6.467 -0.4172 -0.9177 -0.6118
 3988TIP3   OH211920   6.901   4.199   1.760  0.2201  0.1004 -0.3333
 3988TIP3    H111921   6.952   4.237   1.832  1.0648 -0.6271 -0.5300
 3988TIP3    H211922   6.875   4.113   1.792 -1.5779  0.7620  0.0630
 3989TIP3   OH211923   6.081   5.351   0.399 -0.2465  0.2113 -0.0962
 3989TIP3    H111924   6.079   5.443   0.373  0.5169  0.1068 -0.5514
 3989TIP3    H211925   6.003   5.340   0.454 -1.6939  0.5488 -1.9903
 3990TIP3   OH211926   2.992   6.867   1.091 -0.0939 -0.1348 -0.9760
 3990TIP3    H111927   3.049   6.791   1.084 -0.7136 -0.9023  1.3700
 3990TIP3    H211928   2.912   6.842   1.046 -0.4150 -1.0339  0.0641
 3991TIP3   OH211929   8.116   5.231   4.198 -0.1618  0.6940  0.7225
 3991TIP3    H111930   8.194   5.175   4.195  0.0547  0.9645  1.2807
 3991TIP3    H211931   8.085   5.225   4.288 -1.7413 -0.6987  0.1359
 3992TIP3   OH211932   6.599   4.278   4.659  0.2406 -0.2088 -0.0253
 3992TIP3    H111933   6.571   4.227   4.735  0.3863  0.7992  0.7290
 3992TIP3    H211934   6.670   4.226   4.620 -0.2804 -1.0512  0.1326
 3993TIP3   OH211935   8.088   6.408   2.035 -0.0639 -0.0156 -0.4481
 3993TIP3    H111936   8.170   6.366   2.011 -0.6257 -0.8828 -0.9232
 3993TIP3    H211937   8.066   6.372   2.121 -0.3384 -0.4035 -0.6748
 3994TIP3   OH211938   2.844   4.060   6.268  0.4610  0.1279  0.5984
 3994TIP3    H111939   2.885   3.975   6.251 -0.5776 -0.0727 -1.1692
 3994TIP3    H211940   2.850   4.107   6.186 -1.2639  0.7405  0.7698
 3995TIP3   OH211941   1.942   7.303   4.086  0.2533  0.0809 -0.4091
 3995TIP3    H111942   1.857   7.348   4.090 -0.6240 -1.5064 -0.2915
 3995TIP3    H211943   1.999   7.355   4.143 -1.3409 -0.2066  1.5963
 3996TIP3   OH211944   0.685   1.192   3.498  0.0656 -0.9795 -0.5289
 3996TIP3    H111945   0.690   1.179   3.592  0.9092  1.2611 -0.2100
 3996TIP3    H211946   0.593   1.215   3.482  0.0730 -0.6794 -0.1468
 3997TIP3   OH211947   3.346   6.212   5.383 -0.1023 -0.0275  0.3352
 3997TIP3    H111948   3.408   6.225   5.311 -0.5383 -1.0603 -0.2473
 3997TIP3    H211949   3.294   6.293   5.384  1.8321  1.2955  1.4766
 3998TIP3   OH211950   7.303   6.738   1.340  0.1787 -0.4823  0.8036
 3998TIP3    H111951   7.305   6.833   1.340  0.2398 -0.4833  0.8559
 3998TIP3    H211952   7.239   6.716   1.408  0.1123 -0.4774  0.7429
 3999TIP3   OH211953   1.905   3.408   2.948  0.3682 -0.8146  0.2102
 3999TIP3    H111954   1.854   3.360   3.013  2.3763  0.0577  2.6173
 3999TIP3    H211955   1.995   3.402   2.980  1.0840  1.9718 -0.9982
 4000TIP3   OH211956   0.378   7.047   1.500 -0.2302 -0.5051  0.3648
 4000TIP3    H111957   0.389   7.138   1.531 -1.1047 -0.0598 -0.5848
 4000TIP3    H211958   0.290   7.023   1.527 -0.8769 -0.2385 -1.3854
 4001TIP3   OH211959   4.723   6.597   6.275 -0.1465 -0.6046  0.4186
 4001TIP3    H111960   4.656   6.529   6.270 -0.7520  0.0193  0.0063
 4001TIP3    H211961   4.694   6.665   6.214  0.7222 -0.2072  0.4279
 4002TIP3   OH211962   6.928   3.739   4.229  0.4852  0.0257 -0.0105
 4002TIP3    H111963   7.005   3.730   4.284  1.7239  0.1324 -1.6507
 4002TIP3    H211964   6.962   3.738   4.139 -1.6069 -1.9059 -0.8725
 4003TIP3   OH211965   2.552   6.270   6.438  0.2561 -0.1055 -0.2954
 4003TIP3    H111966   2.582   6.183   6.465  0.9300  0.9482  2.7352
 4003TIP3    H211967   2.459   6.271   6.459 -0.4835 -0.9562 -3.0506
 4004TIP3   OH211968   5.259   2.688   3.962 -0.2338 -0.2599 -0.2601
 4004TIP3    H111969   5.334   2.703   4.020  0.3830 -1.5855 -0.6823
 4004TIP3    H211970   5.205   2.625   4.009 -0.8341  0.2856 -0.1993
 4005TIP3   OH211971   4.713   1.944   0.992  0.5382 -0.2821 -0.0366
 4005TIP3    H111972   4.784   1.909   0.937  0.6980 -0.5467  0.3332
 4005TIP3    H211973   4.723   1.899   1.076 -0.1937 -0.4706 -0.0436
 4006TIP3   OH211974   2.245   2.427   2.917 -0.2884  0.4547  0.3942
 4006TIP3    H111975   2.292   2.426   2.833 -0.5478 -0.6542  0.2478
 4006TIP3    H211976   2.247   2.519   2.944  0.7995  0.6446 -0.2582
 4007TIP3   OH211977   5.639   7.462   1.173 -0.1392 -0.5680  0.3709
 4007TIP3    H111978   5.575   7.528   1.144 -0.7232 -0.8358  1.0192
 4007TIP3    H211979   5.692   7.507   1.238 -1.5092 -1.1294  1.9478
 4008TIP3   OH211980   2.592   0.762   4.874  0.0236 -0.0267 -0.1118
 4008TIP3    H111981   2.578   0.856   4.864  0.4042  0.1206  0.6503
 4008TIP3    H211982   2.687   0.751   4.869  0.0143 -0.3067  0.2344
 4009TIP3   OH211983   2.226   5.806   3.545  0.2532 -0.3526  0.1965
 4009TIP3    H111984   2.208   5.719   3.581 -0.3313 -0.4618 -0.3373
 4009TIP3    H211985   2.262   5.855   3.619 -0.4972 -0.7094  0.8245
 4010TIP3   OH211986   3.696   2.200   1.288  0.1324 -0.7670  0.2141
 4010TIP3    H111987   3.764   2.175   1.350  0.0692  1.4863  1.2942
 4010TIP3    H211988   3.618   2.152   1.318  0.1335  0.1747  1.8910
 4011TIP3   OH211989   7.030   1.888   6.622 -0.8089  0.1008 -0.4743
 4011TIP3    H111990   7.035   1.811   6.678 -1.5670 -0.7587 -1.5402
 4011TIP3    H211991   7.052   1.961   6.680 -0.3737 -0.8716  0.6322
 4012TIP3   OH211992   4.991   2.995   4.176 -0.0518 -0.1906  0.1078
 4012TIP3    H111993   4.901   2.968   4.195 -0.6464  2.1726  1.0957
 4012TIP3    H211994   5.043   2.955   4.245 -0.5532 -0.4932  0.3177
 4013TIP3   OH211995   2.471   1.147   0.253  0.1498  0.0814  0.0180
 4013TIP3    H111996   2.421   1.140   0.172 -2.8193 -1.3160  1.8099
 4013TIP3    H211997   2.475   1.241   0.272  0.4269  0.3778 -1.4112
 4014TIP3   OH211998   3.129   5.615   6.410 -0.6175  0.3218 -0.2223
 4014TIP3    H111999   3.129   5.568   6.327 -1.6692 -1.5104  0.7491
 4014TIP3    H212000   3.037   5.621   6.435 -0.3039  0.5872  0.9515
 4015TIP3   OH212001   7.233   2.133   2.506 -0.6694  0.1391 -0.1689
 4015TIP3    H112002   7.300   2.080   2.464 -0.0776  0.7496 -0.0028
 4015TIP3    H212003   7.233   2.105   2.597  0.1658  0.9388  0.0853
 4016TIP3   OH212004   7.565   3.147   0.960  0.6946  0.8213 -0.3122
 4016TIP3    H112005   7.484   3.158   0.910 -0.2271  0.1332  0.9908
 4016TIP3    H212006   7.597   3.060   0.937 -1.7022 -1.1315  2.9011
 4017TIP3   OH212007   7.206   4.894   6.197  0.5730  0.8549  0.4767
 4017TIP3    H112008   7.284   4.839   6.192 -0.6696 -0.9608 -0.4602
 4017TIP3    H212009   7.182   4.895   6.290  0.4834 -0.4614  0.4862
 4018TIP3   OH212010   6.567   6.607   6.098  0.1697 -0.1456  0.1962
 4018TIP3    H112011   6.637   6.671   6.089  0.7870 -0.7547  0.5060
 4018TIP3    H212012   6.514   6.618   6.019 -0.5679  1.7022  0.9140
 4019TIP3   OH212013   6.657   7.107   2.623 -0.0173  0.8482  0.0098
 4019TIP3    H112014   6.579   7.146   2.662 -0.4669  0.3185 -0.3383
 4019TIP3    H212015   6.694   7.176   2.567 -1.9221  0.2046 -2.1948
 4020TIP3   OH212016   2.183   7.578   3.747 -0.1845  0.1822  0.0064
 4020TIP3    H112017   2.264   7.582   3.696 -0.0357 -1.2162  0.0774
 4020TIP3    H212018   2.164   7.484   3.753 -2.3795  0.5082 -0.9187
 4021TIP3   OH212019   3.858   6.931   0.538 -0.1016  0.5606  0.0455
 4021TIP3    H112020   3.871   6.966   0.627 -1.5393  4.2702 -1.0165
 4021TIP3    H212021   3.941   6.949   0.494 -0.0005  0.3829  0.1631
 4022TIP3   OH212022   3.091   7.611   4.584 -0.5477  0.8583  0.3845
 4022TIP3    H112023   3.040   7.679   4.540  0.3015  1.4904  0.3386
 4022TIP3    H212024   3.121   7.554   4.513 -3.7354 -1.3925  0.6593
 4023TIP3   OH212025   0.574   7.622   2.165  0.0319 -0.1623  0.3541
 4023TIP3    H112026   0.489   7.582   2.146 -1.3993  3.4027 -1.9175
 4023TIP3    H212027   0.632   7.589   2.096 -1.2322  1.6893 -1.7504
 4024TIP3   OH212028   8.046   3.774   3.046  0.1335 -0.2304 -0.3466
 4024TIP3    H112029   7.951   3.778   3.051  0.0965  0.6228 -1.2545
 4024TIP3    H212030   8.076   3.858   3.080  0.5059 -0.1365 -0.8819
 4025TIP3   OH212031   2.540   7.089   2.364 -0.1657 -0.0206 -0.4878
 4025TIP3    H112032   2.507   7.098   2.275 -1.7672 -0.0231  0.0810
 4025TIP3    H212033   2.477   7.030   2.407 -0.2060  1.0764  1.0260
 4026TIP3   OH212034   8.008   5.402   5.376 -0.2512  0.0662  0.0228
 4026TIP3    H112035   8.056   5.329   5.415 -0.0243 -0.8885 -1.9311
 4026TIP3    H212036   7.918   5.371   5.367 -0.2197  0.1184 -0.5378
 4027TIP3   OH212037   2.288   1.563   3.769  0.7208  0.2722 -0.1831
 4027TIP3    H112038   2.346   1.626   3.727  3.6403 -0.5937  2.1444
 4027TIP3    H212039   2.322   1.478   3.741 -0.0460 -0.2560  0.4662
 4028TIP3   OH212040   5.517   0.766   1.965 -0.3520  0.1599 -0.2929
 4028TIP3    H112041   5.521   0.834   2.032 -1.3237  1.0726 -1.1478
 4028TIP3    H212042   5.603   0.768   1.923 -0.1767  0.4444  0.0787
 4029TIP3   OH212043   8.026   3.006   3.765  0.3290 -0.2797  0.3357
 4029TIP3    H112044   7.954   3.039   3.711  1.2348  0.3197 -0.5699
 4029TIP3    H212045   8.078   2.953   3.705  0.4519 -1.0051  1.0708
 4030TIP3   OH212046   0.785   0.819   4.239 -0.0970 -0.0471  0.3245
 4030TIP3    H112047   0.740   0.737   4.219 -0.8277  0.1527  1.1070
 4030TIP3    H212048   0.761   0.838   4.329  1.0024  0.4344  0.5237
 4031TIP3   OH212049   4.769   1.377   0.186  0.5347 -0.7721  0.0334
 4031TIP3    H112050   4.701   1.353   0.123  0.0554 -0.4870  0.4352
 4031TIP3    H212051   4.774   1.473   0.181  2.1043 -0.8855 -1.2179
 4032TIP3   OH212052   0.536   2.254   6.243 -0.1820 -0.3966 -1.1882
 4032TIP3    H112053   0.518   2.345   6.266  1.7265 -0.4078  0.5816
 4032TIP3    H212054   0.540   2.208   6.326  0.4612 -1.7981 -1.9491
 4033TIP3   OH212055   2.298   4.795   3.581 -0.5713  0.0304 -0.2409
 4033TIP3    H112056   2.393   4.796   3.579 -0.5814 -0.1254 -1.6819
 4033TIP3    H212057   2.272   4.884   3.557 -0.7722 -0.3856 -1.6772
 4034TIP3   OH212058   5.617   3.779   2.283 -0.7127 -0.0120  0.1479
 4034TIP3    H112059   5.692   3.721   2.272 -0.4298  0.1909  0.9589
 4034TIP3    H212060   5.555   3.730   2.336 -1.3491 -0.3387 -0.8623
 4035TIP3   OH212061   4.459   4.829   0.208 -0.6282 -0.1389 -0.2715
 4035TIP3    H112062   4.507   4.795   0.133  0.1256  0.6633 -0.1660
 4035TIP3    H212063   4.379   4.866   0.170 -0.2277  0.3104 -0.7000
 4036TIP3   OH212064   3.315   7.362   0.678  0.2638  0.4485 -0.1486
 4036TIP3    H112065   3.287   7.271   0.678  0.6321  0.2885 -1.8341
 4036TIP3    H212066   3.316   7.388   0.770  1.8265 -1.7544  0.5173
 4037TIP3   OH212067   2.630   6.153   3.299  0.0131 -0.6266 -0.3369
 4037TIP3    H112068   2.600   6.167   3.209 -1.0083 -0.0867  0.0627
 4037TIP3    H212069   2.725   6.155   3.293 -0.0395 -0.2938 -1.3598
 4038TIP3   OH212070   7.657   5.742   1.644  0.2093 -0.4093  0.4504
 4038TIP3    H112071   7.563   5.736   1.661  0.0439  1.0012  0.1236
 4038TIP3    H212072   7.692   5.788   1.720  0.0228  2.5246 -1.0962
 4039TIP3   OH212073   4.800   4.383   5.770  0.2294 -0.6203  0.0291
 4039TIP3    H112074   4.714   4.344   5.788 -0.8539  1.3380 -0.4983
 4039TIP3    H212075   4.790   4.423   5.684  1.8934 -0.8581 -0.3008
 4040TIP3   OH212076   6.549   4.275   5.064 -0.0475 -0.0384  0.4385
 4040TIP3    H112077   6.482   4.342   5.050  1.2010  0.9964 -0.9263
 4040TIP3    H212078   6.506   4.193   5.041 -1.3094  0.4071  1.1383
 4041TIP3   OH212079   0.339   0.687   1.160  0.2608 -0.3012  0.3553
 4041TIP3    H112080   0.312   0.629   1.090  0.8244 -0.8169  0.5531
 4041TIP3    H212081   0.420   0.727   1.128 -0.0183  0.2262  0.3008
 4042TIP3   OH212082   2.072   5.944   5.318 -0.2436  0.7933  0.0348
 4042TIP3    H112083   2.138   5.966   5.253 -0.7127  1.9140 -0.0878
 4042TIP3    H212084   2.081   6.011   5.385 -1.0201  0.7522  0.1904
 4043TIP3   OH212085   5.781   0.320   6.133  0.0679 -0.3014  0.3156
 4043TIP3    H112086   5.693   0.355   6.148  0.2434 -0.3068  1.3871
 4043TIP3    H212087   5.812   0.366   6.055 -0.6927  0.0505  0.2135
 4044TIP3   OH212088   0.306   4.692   2.078  0.0208 -0.4763  0.0833
 4044TIP3    H112089   0.226   4.741   2.096 -0.7250 -1.5342 -0.2183
 4044TIP3    H212090   0.293   4.657   1.989  0.9378 -0.4318 -0.0765
 4045TIP3   OH212091   1.340   5.308   0.333 -0.2605 -0.5181  0.1511
 4045TIP3    H112092   1.254   5.319   0.375 -0.2970 -2.1699  0.5528
 4045TIP3    H212093   1.320   5.299   0.240 -0.3328  1.2101 -0.0293
 4046TIP3   OH212094   2.640   0.036   5.139  0.0296 -0.1836 -0.3624
 4046TIP3    H112095   2.584  -0.017   5.195 -1.5237 -1.5439 -3.0407
 4046TIP3    H212096   2.619   0.127   5.162 -1.7173 -0.6917  0.1373
 4047TIP3   OH212097   7.054   2.259   6.111  0.1155  0.2398 -0.1046
 4047TIP3    H112098   6.984   2.195   6.124  0.3467 -0.0286 -0.1708
 4047TIP3    H212099   7.059   2.270   6.016  0.3519  0.0407 -0.1184
 4048TIP3   OH212100   8.036   2.939   6.372 -0.7917 -0.0036 -0.7944
 4048TIP3    H112101   8.008   2.889   6.449 -2.3087 -0.7121 -1.7413
 4048TIP3    H212102   8.088   3.011   6.407  0.4843 -1.5616  0.7258
 4049TIP3   OH212103   4.497   0.820   4.807 -0.7256  0.1477 -0.3317
 4049TIP3    H112104   4.448   0.764   4.867  0.4793 -1.2451 -0.6030
 4049TIP3    H212105   4.581   0.777   4.796 -0.1278  1.4840 -1.3761
 4050TIP3   OH212106   1.363   5.740   3.809 -0.1934 -0.2821 -0.0063
 4050TIP3    H112107   1.326   5.796   3.741  2.4799  1.1973 -0.4017
 4050TIP3    H212108   1.316   5.765   3.889 -0.3516  1.2236 -0.5278
 4051TIP3   OH212109   0.405   0.650   2.654 -0.4871  0.5389 -0.4177
 4051TIP3    H112110   0.431   0.593   2.582 -4.6835 -1.0425 -0.9536
 4051TIP3    H212111   0.409   0.738   2.618  1.0660  0.1533 -1.2851
 4052TIP3   OH212112   5.175   4.086   1.547  0.3815  0.2556  0.4207
 4052TIP3    H112113   5.084   4.115   1.561  0.3621 -0.0801  1.0538
 4052TIP3    H212114   5.169   3.991   1.543  0.3152  0.3047 -2.6219
 4053TIP3   OH212115   7.886   2.597   0.586  0.4087 -0.5849 -0.0216
 4053TIP3    H112116   7.948   2.669   0.583  0.7870 -0.9065 -0.0042
 4053TIP3    H212117   7.911   2.547   0.664  0.4756 -1.0180 -0.3123
 4054TIP3   OH212118   7.367   5.751   2.747 -0.4231 -0.5728 -0.3073
 4054TIP3    H112119   7.379   5.656   2.741  1.4876 -0.5165  1.4804
 4054TIP3    H212120   7.456   5.786   2.741 -1.0539  1.0844 -0.4134
 4055TIP3   OH212121   8.157   5.450   1.849 -0.1183 -0.3857 -0.2884
 4055TIP3    H112122   8.178   5.383   1.914 -0.5984  2.2243  2.8039
 4055TIP3    H212123   8.242   5.476   1.814  0.4660 -0.0881  1.2453
 4056TIP3   OH212124   2.974   3.834   3.030  0.8150  0.1478 -0.8729
 4056TIP3    H112125   2.901   3.815   3.089  1.2508 -1.1832 -0.7429
 4056TIP3    H212126   2.938   3.898   2.968 -0.0689  0.4790 -0.0483
 4057TIP3   OH212127   5.414   3.195   2.052  0.3049  0.0883  0.2407
 4057TIP3    H112128   5.476   3.141   2.003  0.5493  1.2832 -0.8018
 4057TIP3    H212129   5.380   3.136   2.119  1.6699 -0.9321  0.0826
 4058TIP3   OH212130   1.342   3.025   5.605 -0.7038 -0.3444  0.0752
 4058TIP3    H112131   1.247   3.034   5.605 -0.7458 -0.3990 -2.0232
 4058TIP3    H212132   1.373   3.088   5.539  0.4283 -2.5094 -1.5903
 4059TIP3   OH212133   7.017   1.629   1.080  0.1477  0.1773  0.1350
 4059TIP3    H112134   6.993   1.676   1.000  1.2333  0.4620 -0.0364
 4059TIP3    H212135   6.942   1.573   1.098 -1.5084  2.4414  0.7361
 4060TIP3   OH212136   1.344   7.127   2.885 -0.0406 -0.3538  0.7563
 4060TIP3    H112137   1.300   7.212   2.889 -0.7416 -0.6815  0.3386
 4060TIP3    H212138   1.371   7.118   2.793  0.7369 -0.2429  0.9697
 4061TIP3   OH212139   6.680   4.825   5.614  0.3834 -0.0542  0.0043
 4061TIP3    H112140   6.615   4.764   5.578  2.2793 -0.9019 -2.2796
 4061TIP3    H212141   6.713   4.873   5.538 -0.0913  2.9890  1.5727
 4062TIP3   OH212142   5.302   4.103   6.306  0.2556  0.4279  0.1381
 4062TIP3    H112143   5.229   4.043   6.322 -0.5778  0.7997 -1.9565
 4062TIP3    H212144   5.379   4.046   6.300 -0.2527 -0.2388 -0.1266
 4063TIP3   OH212145   5.626   2.513   1.688 -1.0998  0.4183  0.2265
 4063TIP3    H112146   5.577   2.433   1.668 -0.0616 -0.4013  0.9202
 4063TIP3    H212147   5.608   2.529   1.780  1.1518 -0.7930  0.9363
 4064TIP3   OH212148   3.189   7.134   5.182  0.3035  0.3875  0.2444
 4064TIP3    H112149   3.177   7.119   5.088 -2.8417  2.3453  0.1758
 4064TIP3    H212150   3.272   7.181   5.188 -0.0325  1.3379 -1.7243
 4065TIP3   OH212151   0.726   2.391   3.586 -0.5852 -0.3938 -0.1518
 4065TIP3    H112152   0.673   2.344   3.521 -0.0174 -0.5517 -0.5110
 4065TIP3    H212153   0.673   2.468   3.608 -0.9954 -0.5824 -0.4459
 4066TIP3   OH212154   2.336   4.378   3.010 -0.1918  0.3750 -0.0383
 4066TIP3    H112155   2.267   4.439   2.984 -0.0381  0.6058  0.0934
 4066TIP3    H212156   2.351   4.396   3.102  0.8096  1.0846 -0.3312
 4067TIP3   OH212157   4.176   4.754   1.750 -0.0073  0.0973  0.1470
 4067TIP3    H112158   4.115   4.695   1.705 -1.2083  2.5418 -1.6350
 4067TIP3    H212159   4.127   4.786   1.825  0.1187 -0.0276  0.2847
 4068TIP3   OH212160   2.508   3.342   5.843  0.1729  0.9099  0.1719
 4068TIP3    H112161   2.586   3.317   5.794  0.9551 -0.8423  2.1793
 4068TIP3    H212162   2.540   3.397   5.914 -0.4904  0.6488  0.6848
 4069TIP3   OH212163   1.844   4.133   2.830 -0.4783 -0.2690  0.2774
 4069TIP3    H112164   1.809   4.209   2.877 -1.1350  0.0920 -0.7529
 4069TIP3    H212165   1.898   4.087   2.894 -1.1924  0.3129  1.3192
 4070TIP3   OH212166   3.152   6.442   2.346  0.0789 -0.4490 -0.4557
 4070TIP3    H112167   3.180   6.521   2.392 -0.9759 -1.0321  1.2845
 4070TIP3    H212168   3.233   6.390   2.338 -0.0020 -1.3929  3.0416
 4071TIP3   OH212169   5.872   3.324   2.911 -0.5238 -0.0942  0.1794
 4071TIP3    H112170   5.954   3.284   2.883 -0.5332  0.3323 -0.5015
 4071TIP3    H212171   5.868   3.406   2.862 -0.7950  0.4447  1.0894
 4072TIP3   OH212172   5.329   0.471   2.614  0.1780  0.3018 -0.9261
 4072TIP3    H112173   5.382   0.393   2.597  0.5691 -0.1632  1.9477
 4072TIP3    H212174   5.383   0.543   2.580  2.0182 -0.3102  0.5093
 4073TIP3   OH212175   0.934   3.269   1.510  0.2604  0.5510 -0.2001
 4073TIP3    H112176   0.930   3.258   1.415 -0.8329 -1.6836  0.0358
 4073TIP3    H212177   1.012   3.221   1.536 -0.3854 -0.3352  0.1609
 4074TIP3   OH212178   7.569   1.305   3.831  0.5313 -0.0546 -0.1189
 4074TIP3    H112179   7.594   1.267   3.915  2.9686 -0.0533 -0.7838
 4074TIP3    H212180   7.565   1.230   3.771 -1.1034 -0.0422 -0.0865
 4075TIP3   OH212181   5.946   5.074   1.939 -0.3289 -0.0228 -0.0248
 4075TIP3    H112182   5.945   5.168   1.952  0.8438 -0.2323  1.9156
 4075TIP3    H212183   6.026   5.044   1.981 -1.3324 -2.0483  0.5905
 4076TIP3   OH212184   3.825   0.752   3.926  0.0542  0.0586 -0.0666
 4076TIP3    H112185   3.741   0.796   3.941  0.7482  2.0637 -1.5145
 4076TIP3    H212186   3.824   0.730   3.833  1.5097  1.0881 -0.3663
 4077TIP3   OH212187   0.136   5.398   1.932 -0.3503 -0.3104  0.0814
 4077TIP3    H112188   0.150   5.318   1.984 -0.4701 -1.4698 -1.6097
 4077TIP3    H212189   0.154   5.469   1.994 -0.9445 -1.6052  1.8579
 4078TIP3   OH212190   3.601   1.339   0.945  0.0845  0.3019  0.5425
 4078TIP3    H112191   3.653   1.260   0.935 -0.5420 -0.0539  0.0377
 4078TIP3    H212192   3.574   1.362   0.856 -1.2343  0.0475  0.8525
 4079TIP3   OH212193   7.561   2.289   2.423 -0.1440 -0.3939  0.2100
 4079TIP3    H112194   7.646   2.311   2.462 -0.4193  1.1549  0.0286
 4079TIP3    H212195   7.497   2.308   2.491 -0.4717  0.3797 -0.2859
 4080TIP3   OH212196   5.995   3.596   2.461  0.6282 -0.2627  0.1131
 4080TIP3    H112197   5.924   3.648   2.498  0.1593 -0.3174 -0.6828
 4080TIP3    H212198   6.073   3.625   2.508  0.1187 -0.0121  0.8149
 4081TIP3   OH212199   6.059   6.877   5.641  0.3698  0.1915 -0.0861
 4081TIP3    H112200   6.147   6.860   5.676  0.2057 -0.6907 -0.0636
 4081TIP3    H212201   6.061   6.839   5.553 -0.4307 -1.1954  0.4638
 4082TIP3   OH212202   5.297   3.999   1.301 -0.3152  0.0993  0.5238
 4082TIP3    H112203   5.289   3.940   1.376 -4.1616 -0.7624 -0.3587
 4082TIP3    H212204   5.296   4.087   1.340 -0.0971 -0.3502  1.5752
 4083TIP3   OH212205   2.832  -0.001   0.024 -0.4942  0.4103 -0.0847
 4083TIP3    H112206   2.888   0.040  -0.041 -1.8008  0.6378 -1.1004
 4083TIP3    H212207   2.820   0.066   0.091  0.2008  0.4553 -0.0010
 4084TIP3   OH212208   2.848   1.533   1.372  0.3304 -0.0157  0.3600
 4084TIP3    H112209   2.922   1.473   1.368  1.5092  1.4454 -0.9549
 4084TIP3    H212210   2.880   1.615   1.334 -1.7904  0.8605  0.2688
 4085TIP3   OH212211   1.288   1.056   2.830  0.1276 -0.1577 -0.1001
 4085TIP3    H112212   1.263   1.148   2.831 -2.1433 -0.7009 -0.8048
 4085TIP3    H212213   1.230   1.016   2.765  1.0311 -2.0947  0.2137
 4086TIP3   OH212214   7.752   0.443   5.433  0.1883 -0.5216 -0.5233
 4086TIP3    H112215   7.712   0.360   5.457  1.1807 -1.2031 -1.1515
 4086TIP3    H212216   7.825   0.419   5.376  0.1408  0.8226 -1.1841
 4087TIP3   OH212217   4.634   1.499   4.797  1.0253  0.3785  0.1074
 4087TIP3    H112218   4.639   1.545   4.881 -1.5262 -0.0621  0.6041
 4087TIP3    H212219   4.629   1.406   4.821 -1.2807  0.3164 -0.3305
 4088TIP3   OH212220   0.718   0.896   3.505 -0.2806 -0.2023 -0.0390
 4088TIP3    H112221   0.778   0.927   3.573 -0.8898  1.2152 -0.0984
 4088TIP3    H212222   0.641   0.952   3.515 -1.3407 -1.5722 -0.3635
 4089TIP3   OH212223   3.162   5.790   2.421  0.2055 -0.2315 -0.7266
 4089TIP3    H112224   3.162   5.870   2.472 -2.5891  0.8166 -2.1315
 4089TIP3    H212225   3.210   5.812   2.341  0.1431 -0.2035 -0.7569
 4090TIP3   OH212226   6.718   7.429   4.489  0.2220 -0.3776  0.0874
 4090TIP3    H112227   6.699   7.486   4.563 -0.0793 -0.2758 -0.0651
 4090TIP3    H212228   6.795   7.468   4.448 -1.0477  1.0113 -1.1043
 4091TIP3   OH212229   5.168   5.815   0.563 -0.0019 -0.0364  0.0789
 4091TIP3    H112230   5.118   5.894   0.584  1.1743  0.6344  0.4266
 4091TIP3    H212231   5.188   5.824   0.470  0.2812  0.1647  0.1586
 4092TIP3   OH212232   5.794   2.081   5.304 -0.4617 -0.3045  0.6037
 4092TIP3    H112233   5.787   2.001   5.357 -1.0253 -0.3907  0.4090
 4092TIP3    H212234   5.874   2.070   5.254 -0.2181 -0.4768  1.0270
 4093TIP3   OH212235   2.497   2.982   6.231 -0.1528 -0.2652 -0.3353
 4093TIP3    H112236   2.519   2.932   6.152  2.1004  0.7051 -0.4103
 4093TIP3    H212237   2.555   2.946   6.298 -0.4766  0.3889  0.3077
 4094TIP3   OH212238   2.432   5.239   0.922 -0.9202  0.2819  0.2582
 4094TIP3    H112239   2.418   5.312   0.982  0.4303  0.1737  0.7422
 4094TIP3    H212240   2.480   5.174   0.974  0.7571  0.4008 -1.0458
 4095TIP3   OH212241   0.061   4.072   1.511 -0.5958  0.6098 -0.7955
 4095TIP3    H112242   0.073   3.977   1.514 -1.0585  0.5548 -0.7038
 4095TIP3    H212243  -0.013   4.086   1.453 -0.4890  0.9216 -0.8604
 4096TIP3   OH212244   6.271   1.530   4.215  0.3055  0.3503 -0.5027
 4096TIP3    H112245   6.252   1.468   4.285  1.5427 -1.2390 -1.4757
 4096TIP3    H212246   6.324   1.598   4.256 -0.7991  0.6236  0.5248
 4097TIP3   OH212247   7.809   3.111   1.496 -0.0660 -0.4684 -0.4309
 4097TIP3    H112248   7.803   3.151   1.582 -0.2761 -1.2628 -0.0712
 4097TIP3    H212249   7.732   3.055   1.489 -1.6282  1.7476 -2.2827
 4098TIP3   OH212250   1.820   4.423   0.972 -0.1359  0.4378 -0.1770
 4098TIP3    H112251   1.797   4.424   1.065 -2.8183  1.2245 -0.7765
 4098TIP3    H212252   1.908   4.383   0.970 -1.3364 -2.8228  2.3776
 4099TIP3   OH212253   1.958   5.323   4.146 -0.0734  0.2407  0.0870
 4099TIP3    H112254   1.966   5.228   4.156  0.3206  0.3689  1.0269
 4099TIP3    H212255   1.863   5.337   4.135 -0.2805 -0.1546  1.2257
 4100TIP3   OH212256   1.147   2.876   5.900 -0.4449  0.6026 -0.3294
 4100TIP3    H112257   1.210   2.948   5.895 -0.7077  0.7791 -1.3370
 4100TIP3    H212258   1.201   2.797   5.901 -0.1705  0.7945  0.1905
 4101TIP3   OH212259   6.629   7.193   3.332 -0.1961 -0.5354 -0.3509
 4101TIP3    H112260   6.604   7.110   3.374  0.1419 -1.2499 -1.5094
 4101TIP3    H212261   6.548   7.223   3.291 -0.3832 -0.1363  0.2878
 4102TIP3   OH212262   2.881   6.382   2.029  0.4282  0.0270 -0.0595
 4102TIP3    H112263   2.860   6.290   2.014  0.2215 -0.0208  0.4758
 4102TIP3    H212264   2.850   6.399   2.119  0.4599  0.6153 -0.1549
 4103TIP3   OH212265   8.146   0.156   3.405 -0.4753  0.7601 -0.2332
 4103TIP3    H112266   8.191   0.089   3.354  0.3027 -0.6563  2.1205
 4103TIP3    H212267   8.078   0.190   3.347  1.1569  0.2524 -2.6098
 4104TIP3   OH212268   3.387   5.406   1.824 -0.0176  0.5442 -0.5047
 4104TIP3    H112269   3.406   5.496   1.800  1.5245  0.1007 -1.0767
 4104TIP3    H212270   3.456   5.354   1.781  0.8719 -0.6293  2.1311
 4105TIP3   OH212271   4.650   4.767   0.654  0.1094 -0.3150 -0.0860
 4105TIP3    H112272   4.624   4.830   0.722  0.5702  0.9341 -1.0267
 4105TIP3    H212273   4.601   4.687   0.676  2.7720 -1.1820  3.7318
 4106TIP3   OH212274   1.360   4.826   0.180  0.3124  0.3192 -0.4860
 4106TIP3    H112275   1.368   4.785   0.093 -0.8156 -0.5071 -0.2179
 4106TIP3    H212276   1.302   4.901   0.166 -0.3280 -0.1394 -0.3629
 4107TIP3   OH212277   6.081   4.710   4.738 -0.2803  0.0380  0.5725
 4107TIP3    H112278   6.091   4.690   4.831  0.2715 -0.1146  0.4791
 4107TIP3    H212279   6.094   4.805   4.733  1.0975 -0.1377  0.4652
 4108TIP3   OH212280   1.358   0.203   5.414 -0.8119 -0.0349  0.8491
 4108TIP3    H112281   1.294   0.164   5.354 -0.3026 -0.1087  0.3427
 4108TIP3    H212282   1.431   0.141   5.414  0.2353  1.1258 -0.3649
 4109TIP3   OH212283   5.660   3.637   0.464 -0.8727 -0.4929  0.0742
 4109TIP3    H112284   5.626   3.620   0.552  0.4454 -2.0459  0.3453
 4109TIP3    H212285   5.618   3.571   0.409  1.6407 -2.5850  0.4539
 4110TIP3   OH212286   6.656   3.071   6.595  0.0120  0.4571 -0.0359
 4110TIP3    H112287   6.584   3.134   6.600  0.2035  0.7163 -0.4563
 4110TIP3    H212288   6.733   3.125   6.580 -0.0347  0.0308 -2.0671
 4111TIP3   OH212289   0.501   0.265   4.612 -0.5574 -0.2199  0.2257
 4111TIP3    H112290   0.424   0.211   4.594 -0.4924  0.0453 -0.9187
 4111TIP3    H212291   0.551   0.264   4.531  1.5674 -1.8306  1.4331
 4112TIP3   OH212292   6.394   6.493   1.017 -0.1541 -0.0758  0.3061
 4112TIP3    H112293   6.377   6.578   1.057 -1.8285 -1.1429  2.0919
 4112TIP3    H212294   6.377   6.430   1.087  0.4302 -1.9176 -1.1205
 4113TIP3   OH212295   4.476   2.211   1.326 -0.3929  0.2697 -0.1683
 4113TIP3    H112296   4.421   2.273   1.373  3.0453  1.0390  3.4347
 4113TIP3    H212297   4.520   2.264   1.258 -2.2271  0.1530 -1.5079
 4114TIP3   OH212298   1.897   7.504   1.895 -0.2150 -0.6695 -0.1926
 4114TIP3    H112299   1.913   7.410   1.886 -2.2594 -1.1951  0.8517
 4114TIP3    H212300   1.817   7.518   1.844  0.3567  0.6364 -0.7614
 4115TIP3   OH212301   7.146   7.000   2.131  0.0357 -0.2248  0.0620
 4115TIP3    H112302   7.065   7.045   2.157  0.5796  1.4803 -1.0511
 4115TIP3    H212303   7.124   6.958   2.047 -0.0349 -0.8156  0.3695
 4116TIP3   OH212304   8.178   5.409   0.751  0.3070  0.4943  0.5131
 4116TIP3    H112305   8.202   5.484   0.806 -0.6815  0.4352  1.0467
 4116TIP3    H212306   8.082   5.414   0.744  0.3140 -0.1840 -0.2252
 4117TIP3   OH212307   2.633   6.861   5.731  0.4734  0.2152  0.3482
 4117TIP3    H112308   2.680   6.838   5.652  0.5367  2.3841 -0.3136
 4117TIP3    H212309   2.656   6.953   5.747 -1.9684  0.7866  1.0832
 4118TIP3   OH212310   0.401   5.838   0.363 -0.1555  0.4544 -0.4489
 4118TIP3    H112311   0.434   5.834   0.274 -0.3552 -0.4544 -0.4954
 4118TIP3    H212312   0.309   5.812   0.355 -0.3675  1.0850 -0.0764
 4119TIP3   OH212313   0.936   4.834   1.238  0.0701 -0.6350 -0.1782
 4119TIP3    H112314   0.843   4.852   1.239 -0.0458 -0.7308 -2.6766
 4119TIP3    H212315   0.978   4.919   1.249 -0.3852 -0.0915 -2.2772
 4120TIP3   OH212316   4.756   1.115   1.058 -0.1375  0.0518 -0.5482
 4120TIP3    H112317   4.786   1.024   1.056 -2.1290 -0.6880  0.3491
 4120TIP3    H212318   4.673   1.113   1.010 -0.0952  1.4605 -0.7163
 4121TIP3   OH212319   0.377   1.454   6.541  0.7843 -0.0554 -0.2831
 4121TIP3    H112320   0.410   1.421   6.458 -1.6741 -0.8635 -1.0169
 4121TIP3    H212321   0.411   1.393   6.606 -0.6848 -1.9637 -1.2131
 4122TIP3   OH212322   7.329   5.978   3.132  0.1544  0.1489  0.5064
 4122TIP3    H112323   7.276   6.011   3.204 -0.1224 -0.7103  0.7133
 4122TIP3    H212324   7.280   5.999   3.053  0.2977  0.7968  0.5848
 4123TIP3   OH212325   2.802   1.846   5.297  0.2806  0.1243  0.0570
 4123TIP3    H112326   2.816   1.834   5.203 -0.8087 -2.1027  0.1109
 4123TIP3    H212327   2.710   1.822   5.311  0.1015  1.4889  1.5572
 4124TIP3   OH212328   3.877   0.661   2.592 -0.6490  0.1093 -0.1292
 4124TIP3    H112329   3.907   0.687   2.679  0.4612  0.4935 -0.6088
 4124TIP3    H212330   3.857   0.568   2.600  0.3332 -0.0694  0.3112
 4125TIP3   OH212331   6.527   2.105   4.339  0.1202  0.2070  1.1737
 4125TIP3    H112332   6.434   2.125   4.348  0.0094  0.4609 -0.2302
 4125TIP3    H212333   6.570   2.159   4.405 -0.7309 -0.0179  1.9316
 4126TIP3   OH212334   1.367   1.534   0.692  0.3004 -0.0995  0.6039
 4126TIP3    H112335   1.443   1.479   0.710 -0.9602 -1.5418  1.8204
 4126TIP3    H212336   1.345   1.574   0.776 -1.3926 -1.2380  0.7701
 4127TIP3   OH212337   5.436   5.072   6.439 -0.5324 -0.0253  0.0354
 4127TIP3    H112338   5.399   5.157   6.464 -0.3033  0.3611 -0.9020
 4127TIP3    H212339   5.367   5.030   6.388  0.1304  0.5385 -1.3899
 4128TIP3   OH212340   3.863   5.635   1.630 -0.0917  0.4290  0.4475
 4128TIP3    H112341   3.788   5.576   1.632 -0.8007  1.2629 -0.2858
 4128TIP3    H212342   3.842   5.702   1.695  1.7839 -1.3031  2.9937
 4129TIP3   OH212343   1.158   2.560   1.729  0.5564 -0.3353 -0.5960
 4129TIP3    H112344   1.164   2.519   1.815  0.1701 -0.1218 -0.4653
 4129TIP3    H212345   1.085   2.621   1.736  1.3686  0.6805 -0.6492
 4130TIP3   OH212346   4.518   0.964   2.704 -0.9862  0.2509 -0.2985
 4130TIP3    H112347   4.490   0.987   2.792  1.1654  0.7010  0.3242
 4130TIP3    H212348   4.562   1.042   2.672  1.9727 -1.1997 -0.1040
 4131TIP3   OH212349   5.958   7.244   5.997  0.2926 -0.0715 -0.0890
 4131TIP3    H112350   6.030   7.194   6.036  0.9049  1.1514  0.4078
 4131TIP3    H212351   5.960   7.220   5.904 -0.0544 -1.6742  0.2930
 4132TIP3   OH212352   4.597   2.224   2.436  0.2261 -0.1220 -0.0846
 4132TIP3    H112353   4.528   2.241   2.500 -0.2320  1.3688 -0.9071
 4132TIP3    H212354   4.657   2.299   2.446  1.0953 -0.7823 -0.2039
 4133TIP3   OH212355   6.395   4.746   2.763  0.0255  0.1828 -0.2046
 4133TIP3    H112356   6.310   4.778   2.733 -1.3532 -1.4544  1.6312
 4133TIP3    H212357   6.410   4.792   2.846  1.8405  1.7532 -1.3386
 4134TIP3   OH212358   2.011   0.655   2.145  0.2667 -0.6542  0.2881
 4134TIP3    H112359   2.018   0.701   2.229  1.5147 -1.0084  0.4104
 4134TIP3    H212360   1.917   0.650   2.128  0.0530  1.9299  0.2545
 4135TIP3   OH212361   5.951   3.541   0.574 -0.7477 -0.2990 -0.8948
 4135TIP3    H112362   5.949   3.446   0.584 -2.9050 -0.0841  1.7218
 4135TIP3    H212363   5.866   3.563   0.538 -0.7103  0.7137 -0.4000
 4136TIP3   OH212364   6.427   7.672   6.248 -0.1210 -0.9000  0.2111
 4136TIP3    H112365   6.393   7.616   6.318 -0.6272  0.7322  1.3077
 4136TIP3    H212366   6.349   7.709   6.207  0.1654 -1.8001 -1.2533
 4137TIP3   OH212367   1.690   1.900   0.785 -0.2290  0.0420  0.6258
 4137TIP3    H112368   1.726   1.940   0.863 -0.3727  0.1651  0.6301
 4137TIP3    H212369   1.675   1.973   0.725  0.0629 -0.0738  0.4090
 4138TIP3   OH212370   5.480   5.605   0.953  0.2084 -0.1884  0.0521
 4138TIP3    H112371   5.493   5.661   0.876 -1.6685 -0.7674 -0.7595
 4138TIP3    H212372   5.429   5.659   1.013 -1.1448 -0.7686 -0.5132
 4139TIP3   OH212373   5.502   3.454   2.115 -1.0958 -0.4299  0.3088
 4139TIP3    H112374   5.470   3.367   2.093 -3.0992 -0.0693  1.5284
 4139TIP3    H212375   5.430   3.494   2.163  0.2474  1.4565  0.8529
 4140TIP3   OH212376   5.494   6.455   2.264 -0.4549 -0.0159  0.0814
 4140TIP3    H112377   5.446   6.406   2.197  0.6170 -0.5782 -0.2917
 4140TIP3    H212378   5.465   6.546   2.251 -0.1774 -0.0870 -1.2430
 4141TIP3   OH212379   0.201   1.215   3.739 -0.3352  0.0022 -0.0729
 4141TIP3    H112380   0.239   1.187   3.656 -1.2933 -2.1357  0.1547
 4141TIP3    H212381   0.265   1.187   3.805  0.1551  1.1810 -0.0317
 4142TIP3   OH212382   6.775   3.547   0.409 -0.5335 -0.0816 -0.3155
 4142TIP3    H112383   6.708   3.615   0.407  0.9079  1.3991 -1.7947
 4142TIP3    H212384   6.850   3.590   0.451  0.4462 -0.7149 -1.3884
 4143TIP3   OH212385   4.545   0.724   2.827  0.6657  0.1114 -0.6216
 4143TIP3    H112386   4.542   0.796   2.764 -0.5217 -0.0330 -0.7454
 4143TIP3    H212387   4.521   0.647   2.776  0.1137 -0.0769 -0.0892
 4144TIP3   OH212388   7.052   3.143   1.020  0.3123 -0.3068 -0.0012
 4144TIP3    H112389   7.116   3.086   1.062  1.1379 -0.3139 -1.2332
 4144TIP3    H212390   7.095   3.228   1.014 -1.1340  0.7089  2.3932
 4145TIP3   OH212391   4.720   4.255   1.759  0.1419 -0.1609 -0.3737
 4145TIP3    H112392   4.717   4.264   1.855  1.8931  0.1484 -0.3118
 4145TIP3    H212393   4.723   4.345   1.727  0.5143 -0.2699 -0.6573
 4146TIP3   OH212394   1.812   3.075   0.850 -0.0089  0.6843  0.2327
 4146TIP3    H112395   1.823   3.016   0.925  0.4375 -0.4867 -0.7236
 4146TIP3    H212396   1.804   3.017   0.775  0.3407  1.8498 -0.7361
 4147TIP3   OH212397   7.200   1.095   4.393  0.3935 -0.3597  0.0068
 4147TIP3    H112398   7.116   1.057   4.369 -0.4271  1.3296  0.0620
 4147TIP3    H212399   7.257   1.076   4.319 -0.7115  0.4710 -1.1044
 4148TIP3   OH212400   3.526   6.262   6.402  0.4308 -0.2692 -0.0324
 4148TIP3    H112401   3.589   6.228   6.339  0.3764 -1.0850  0.3416
 4148TIP3    H212402   3.442   6.261   6.357  0.6444  0.7073 -0.4915
 4149TIP3   OH212403   1.549   3.743   1.512 -0.1946 -0.3676  0.0746
 4149TIP3    H112404   1.600   3.676   1.559 -0.9136 -1.0255 -0.0585
 4149TIP3    H212405   1.578   3.735   1.421 -0.7913 -1.0012 -0.0681
 4150TIP3   OH212406   6.827   5.364   6.239  0.0637 -0.3931 -0.2311
 4150TIP3    H112407   6.892   5.404   6.297  2.1294 -0.6894 -2.1649
 4150TIP3    H212408   6.871   5.285   6.206 -1.8967 -1.4316 -0.4988
 4151TIP3   OH212409   1.468   4.381   6.629 -0.0235  0.3597  0.3245
 4151TIP3    H112410   1.465   4.288   6.605  0.0121  0.2255  0.8309
 4151TIP3    H212411   1.551   4.412   6.592  0.3724 -0.0177  0.8705
 4152TIP3   OH212412   3.394   0.128   4.283  0.0509  0.4844 -0.0675
 4152TIP3    H112413   3.389   0.057   4.219 -0.2658  0.8820 -0.4877
 4152TIP3    H212414   3.304   0.141   4.312  0.3077 -0.2828  1.1205
 4153TIP3   OH212415   1.360   0.231   1.447 -0.0700 -0.0688  0.0546
 4153TIP3    H112416   1.302   0.306   1.429  1.4438  1.4239  1.0668
 4153TIP3    H212417   1.318   0.185   1.519  0.2545  1.3736  1.2279
 4154TIP3   OH212418   0.513   0.703   4.539 -0.0287  0.4467  0.4992
 4154TIP3    H112419   0.499   0.613   4.511 -0.6450  0.9530 -0.9167
 4154TIP3    H212420   0.472   0.756   4.470  0.4839  1.8064  1.2083
 4155TIP3   OH212421   3.870   2.729   0.539  0.5147  0.1025 -0.4159
 4155TIP3    H112422   3.818   2.770   0.609 -0.0689  0.0877 -0.8347
 4155TIP3    H212423   3.941   2.790   0.523  1.5085 -0.5615  1.1939
 4156TIP3   OH212424   4.422   1.645   2.774  0.1139  0.1639  0.2733
 4156TIP3    H112425   4.335   1.683   2.786 -0.3866 -1.1711  1.0161
 4156TIP3    H212426   4.463   1.651   2.861 -0.0377 -1.0812  0.4563
 4157TIP3   OH212427   3.126   7.120   0.522  0.2557  0.9452  0.5036
 4157TIP3    H112428   3.182   7.094   0.595 -0.0946 -0.7602  0.2077
 4157TIP3    H212429   3.163   7.074   0.446 -1.5592 -0.2976  0.3216
 4158TIP3   OH212430   0.044   0.217   1.787  0.0757  0.2335  0.3494
 4158TIP3    H112431   0.010   0.260   1.709 -2.3256  2.7328  2.5480
 4158TIP3    H212432  -0.033   0.184   1.832  1.2658 -0.3338  2.0968
 4159TIP3   OH212433   2.725   7.444   2.841  0.3538 -0.0752 -0.1347
 4159TIP3    H112434   2.637   7.478   2.830 -0.3004 -2.1145 -1.9224
 4159TIP3    H212435   2.729   7.414   2.931  0.3803  2.9126  0.9670
 4160TIP3   OH212436   7.250   1.497   5.750  0.3284 -0.3194 -0.5062
 4160TIP3    H112437   7.272   1.411   5.787 -0.3262 -0.3580 -0.1933
 4160TIP3    H212438   7.219   1.547   5.825  0.0804 -0.0206 -0.8077
 4161TIP3   OH212439   0.529   3.282   1.836  0.2823  0.3093  0.2640
 4161TIP3    H112440   0.542   3.273   1.930 -0.3753  0.1532  0.3448
 4161TIP3    H212441   0.532   3.377   1.820  1.9926  0.2818  0.1878
 4162TIP3   OH212442   3.791   5.229   5.427 -0.2257 -0.4634  0.1834
 4162TIP3    H112443   3.853   5.155   5.430 -0.4875 -0.6747  0.4647
 4162TIP3    H212444   3.846   5.307   5.435 -0.0589 -0.6756  1.2716
 4163TIP3   OH212445   2.465   5.546   2.125  0.3247  0.1010 -0.0900
 4163TIP3    H112446   2.435   5.631   2.157 -1.6181 -0.6720  0.3017
 4163TIP3    H212447   2.481   5.560   2.032 -0.6161  0.7480 -0.1666
 4164TIP3   OH212448   3.235   6.977   0.304  0.1550  0.3373  0.7144
 4164TIP3    H112449   3.300   7.043   0.281  3.0343 -3.1853 -2.4325
 4164TIP3    H212450   3.173   6.977   0.231 -2.0482  1.7908  2.4138
 4165TIP3   OH212451   5.843   3.137   3.333 -0.1436 -0.5768  0.3327
 4165TIP3    H112452   5.921   3.192   3.330  0.5166 -1.5021 -0.1317
 4165TIP3    H212453   5.806   3.143   3.245  0.0096 -0.9773  0.2392
 4166TIP3   OH212454   0.529   5.231   2.078 -0.4411  0.1363  0.0968
 4166TIP3    H112455   0.576   5.170   2.135 -1.7033  1.5216  2.7998
 4166TIP3    H212456   0.515   5.308   2.132 -3.6234  0.7474 -1.3665
 4167TIP3   OH212457   8.276   2.918   2.537 -0.0851 -0.2887  0.0632
 4167TIP3    H112458   8.240   2.833   2.511 -2.1619  0.3120  0.7688
 4167TIP3    H212459   8.241   2.980   2.473 -1.9408  0.5965  1.8274
 4168TIP3   OH212460   0.890   7.122   6.278  1.0204  0.0166 -0.1560
 4168TIP3    H112461   0.965   7.175   6.250  0.7638  0.0096 -0.8703
 4168TIP3    H212462   0.844   7.101   6.197  0.8909 -0.9538  0.1533
 4169TIP3   OH212463   4.073   5.129   1.445 -0.2530  0.2710 -0.0663
 4169TIP3    H112464   4.118   5.065   1.500  1.9442  0.2447 -1.7800
 4169TIP3    H212465   4.132   5.204   1.443 -1.2796  1.0988 -0.7133
 4170TIP3   OH212466   1.473   3.681   0.099  0.5061  0.4785  0.2333
 4170TIP3    H112467   1.461   3.594   0.139 -1.3439  0.9258  0.7426
 4170TIP3    H212468   1.514   3.663   0.015  0.8814 -0.8293  0.6735
 4171TIP3   OH212469   0.662   7.547   1.187 -0.3518  0.2792  0.2929
 4171TIP3    H112470   0.575   7.549   1.225 -1.5818 -1.7948 -2.0779
 4171TIP3    H212471   0.650   7.574   1.096  0.6307 -3.6024 -1.2026
 4172TIP3   OH212472   2.671   5.248   4.002 -0.2659 -0.2502 -0.0638
 4172TIP3    H112473   2.656   5.315   4.068  0.2448 -1.1652  1.0023
 4172TIP3    H212474   2.681   5.167   4.051  3.4776 -0.4940 -0.9063
 4173TIP3   OH212475   4.483   6.400   1.969  0.4425  0.3025 -0.5613
 4173TIP3    H112476   4.425   6.325   1.953  0.4624  0.3410 -0.8142
 4173TIP3    H212477   4.570   6.361   1.979  0.2177  0.1281  0.9631
 4174TIP3   OH212478   3.426   6.000   6.699  0.6521 -0.7403  0.5477
 4174TIP3    H112479   3.458   5.939   6.632 -0.0115 -1.3300  0.7463
 4174TIP3    H212480   3.503   6.050   6.726  1.2915 -1.7398  0.6327
 4175TIP3   OH212481   0.874   2.221   4.015  0.0267  0.0707 -0.5030
 4175TIP3    H112482   0.787   2.192   3.986 -0.9647 -0.0879  2.2909
 4175TIP3    H212483   0.927   2.142   4.014 -0.2791 -0.1324 -0.9028
 4176TIP3   OH212484   0.630   1.644   5.385 -0.4569 -0.3576  0.8832
 4176TIP3    H112485   0.640   1.553   5.412  0.8842 -0.1405  1.1785
 4176TIP3    H212486   0.704   1.690   5.425 -1.3877  0.9656  1.1701
 4177TIP3   OH212487   1.732   7.548   0.595  0.2485  0.0156  0.1626
 4177TIP3    H112488   1.661   7.500   0.553  1.3214 -1.0174 -0.5498
 4177TIP3    H212489   1.781   7.481   0.644  2.8384 -0.0925 -2.3040
 4178TIP3   OH212490   8.107   2.970   0.874  0.5640  0.6761  0.4371
 4178TIP3    H112491   8.084   3.058   0.843 -1.3709 -0.0475 -0.3030
 4178TIP3    H212492   8.200   2.976   0.894  1.2321  2.0756 -2.5486
 4179TIP3   OH212493   2.365   5.607   4.337  0.1648 -0.2362  0.3934
 4179TIP3    H112494   2.335   5.597   4.246 -0.7138 -2.7365  0.8778
 4179TIP3    H212495   2.423   5.532   4.351  0.1602  0.0276  1.9602
 4180TIP3   OH212496   2.019   1.363   0.920 -0.1463  0.2395  0.2152
 4180TIP3    H112497   2.103   1.373   0.966 -0.0823  0.5984  0.0239
 4180TIP3    H212498   2.021   1.273   0.886 -1.0144 -0.7537  2.5484
 4181TIP3   OH212499   1.766   1.344   2.067 -0.3279  0.2287  0.6361
 4181TIP3    H112500   1.740   1.265   2.115 -0.8508  1.0275  1.7058
 4181TIP3    H212501   1.859   1.356   2.088 -0.7910  1.1354  2.3261
 4182TIP3   OH212502   8.160   5.065   1.934 -0.3246 -0.4770  0.2620
 4182TIP3    H112503   8.099   4.998   1.967 -0.6808 -0.5245 -0.4738
 4182TIP3    H212504   8.156   5.056   1.839 -1.3085  1.3837  0.0737
 4183TIP3   OH212505   3.717   7.206   4.984  0.0045  0.2251 -0.3349
 4183TIP3    H112506   3.628   7.229   4.955  0.8860  2.9073 -1.2473
 4183TIP3    H212507   3.751   7.287   5.023  2.2399 -0.5772 -0.4904
 4184TIP3   OH212508   6.473   2.200   3.345  0.1318  0.0108 -0.2375
 4184TIP3    H112509   6.424   2.175   3.267  0.3029  0.6817 -0.5728
 4184TIP3    H212510   6.508   2.287   3.324  1.4597 -0.4415 -0.0172
 4185TIP3   OH212511   1.208   5.296   1.464  0.0017 -0.3877  0.6566
 4185TIP3    H112512   1.217   5.374   1.410  0.2891  0.0557  1.3266
 4185TIP3    H212513   1.245   5.321   1.548  1.1195 -1.5963  0.5541
 4186TIP3   OH212514   3.604  -0.008   1.846 -0.2972 -0.2168  0.1272
 4186TIP3    H112515   3.645   0.014   1.930 -1.3287  0.5483  0.4480
 4186TIP3    H212516   3.675   0.001   1.782  0.5984 -1.1971  0.9504
 4187TIP3   OH212517   7.630   6.559   6.126 -0.4807  0.2637  0.0226
 4187TIP3    H112518   7.594   6.647   6.126  0.0287  0.5052  1.5443
 4187TIP3    H212519   7.555   6.503   6.147 -0.3034  0.6223  1.7374
 4188TIP3   OH212520   4.324   3.289   6.594 -0.1250 -0.2871 -0.2906
 4188TIP3    H112521   4.258   3.266   6.660 -1.0247  0.3314 -0.9530
 4188TIP3    H212522   4.330   3.211   6.539 -1.4176  0.1470 -1.1051
 4189TIP3   OH212523  -0.001   7.596   5.619 -0.6868 -0.0747  0.0396
 4189TIP3    H112524   0.094   7.593   5.609 -0.8619 -0.0345 -2.0576
 4189TIP3    H212525  -0.032   7.519   5.573 -1.8406  2.0899 -3.2148
 4190TIP3   OH212526   4.902   4.397   0.142  0.1462  0.3415  0.4081
 4190TIP3    H112527   4.983   4.436   0.175  0.7464 -0.5506  0.0086
 4190TIP3    H212528   4.918   4.382   0.048 -1.3159  2.2904 -0.2297
 4191TIP3   OH212529   4.972   7.296   0.138 -0.2114 -0.3480 -0.3122
 4191TIP3    H112530   4.974   7.328   0.048 -2.0678 -1.2040 -0.6913
 4191TIP3    H212531   4.920   7.360   0.186 -1.0149 -0.9727 -0.3258
 4192TIP3   OH212532   3.113   4.679   0.886 -0.7735 -1.0894  0.0733
 4192TIP3    H112533   3.125   4.631   0.803 -0.3625 -1.0188  0.0861
 4192TIP3    H212534   3.138   4.769   0.865 -1.4657 -0.8993  0.0717
 4193TIP3   OH212535   7.051   0.900   3.851 -0.1045 -0.0391  0.5542
 4193TIP3    H112536   7.029   0.992   3.868 -0.5905 -0.1820  0.7162
 4193TIP3    H212537   6.978   0.851   3.888 -0.4829 -0.4328 -0.6703
 4194TIP3   OH212538   4.144   4.415   2.101 -0.4383  0.8364 -0.4852
 4194TIP3    H112539   4.096   4.485   2.144 -0.0467  1.0902 -0.4603
 4194TIP3    H212540   4.206   4.459   2.043  0.4366  0.5416  0.2013
 4195TIP3   OH212541   6.631   4.001   5.721  0.4300  0.3390 -0.2892
 4195TIP3    H112542   6.691   3.995   5.646  1.3485 -1.7539  0.5259
 4195TIP3    H212543   6.687   4.022   5.796 -0.5098  2.6767 -0.1371
 4196TIP3   OH212544   2.659   1.262   1.782  0.1355  0.2391  0.2802
 4196TIP3    H112545   2.603   1.295   1.711  0.0627 -0.4094  0.0268
 4196TIP3    H212546   2.609   1.282   1.862 -0.2465  0.0818  0.0857
 4197TIP3   OH212547   2.649   1.691   3.024 -0.4067  0.3593  0.3595
 4197TIP3    H112548   2.740   1.666   3.008 -0.4336  0.8172 -0.5761
 4197TIP3    H212549   2.612   1.617   3.073  0.2901 -0.1136  0.1887
 4198TIP3   OH212550   6.750   0.885   0.225 -0.6749  0.2311 -0.0404
 4198TIP3    H112551   6.672   0.854   0.178 -1.0919  0.4581  0.4871
 4198TIP3    H212552   6.772   0.813   0.284 -0.5700  0.2214 -0.0920
 4199TIP3   OH212553   6.587   5.267   4.901 -0.1338 -0.0518 -0.1248
 4199TIP3    H112554   6.589   5.272   4.997 -0.4721  0.6865 -0.1528
 4199TIP3    H212555   6.677   5.244   4.877 -0.1569 -0.7166  0.3887
 4200TIP3   OH212556   2.959   5.682   0.457 -0.4966 -0.1942 -0.1158
 4200TIP3    H112557   2.959   5.674   0.361  0.1853 -1.7169 -0.0284
 4200TIP3    H212558   3.020   5.614   0.486 -0.2942  0.5960  1.3840
 4201TIP3   OH212559   4.374   2.766   4.627  0.1052  0.3442  0.2989
 4201TIP3    H112560   4.350   2.857   4.643 -0.1791  0.2214  0.5703
 4201TIP3    H212561   4.454   2.753   4.679 -1.4193 -0.3750  2.6227
 4202TIP3   OH212562   4.499   6.577   5.615 -0.2946 -0.1347 -0.0515
 4202TIP3    H112563   4.485   6.598   5.523  1.6644  0.0818 -0.3388
 4202TIP3    H212564   4.467   6.487   5.624  0.0579 -0.3720 -1.0925
 4203TIP3   OH212565   3.165   3.755   1.048  0.2635 -0.6064 -0.3060
 4203TIP3    H112566   3.116   3.782   1.126  1.0030 -0.3759  0.0875
 4203TIP3    H212567   3.148   3.824   0.984 -2.7059 -2.1754 -1.4186
 4204TIP3   OH212568   0.247   3.149   4.970 -0.4315  0.3112  0.2909
 4204TIP3    H112569   0.229   3.153   5.064 -0.0839  1.3682  0.3335
 4204TIP3    H212570   0.206   3.068   4.941 -0.2539 -0.2030  1.4149
 4205TIP3   OH212571   1.358   2.044   2.454  0.1682 -0.0220 -0.0535
 4205TIP3    H112572   1.449   2.020   2.434  0.0326  0.4623 -1.3632
 4205TIP3    H212573   1.307   1.967   2.428 -0.0075  0.6056 -1.7034
 4206TIP3   OH212574   5.151   3.370   6.160 -0.1427  0.2288 -0.0264
 4206TIP3    H112575   5.193   3.304   6.214 -0.4716  0.7190  0.8495
 4206TIP3    H212576   5.216   3.439   6.149  0.7324 -0.8276 -2.1584
 4207TIP3   OH212577   2.946   0.588   6.077  0.2104  0.2926 -0.1222
 4207TIP3    H112578   3.025   0.536   6.060  0.6546  0.8656  0.1459
 4207TIP3    H212579   2.916   0.558   6.163 -0.9864 -1.2963 -1.0396
 4208TIP3   OH212580   7.045   5.274   1.465 -0.0204  0.6878 -0.0483
 4208TIP3    H112581   7.057   5.208   1.396 -1.5533  1.8708 -1.5227
 4208TIP3    H212582   7.113   5.253   1.530  0.1790 -1.6979 -0.9263
 4209TIP3   OH212583   4.818   4.790   1.413  0.0973  0.6529  0.0957
 4209TIP3    H112584   4.744   4.834   1.372 -0.8818  0.3793  1.5048
 4209TIP3    H212585   4.843   4.848   1.485  0.5079  0.1758  0.3401
 4210TIP3   OH212586   6.708   3.269   2.860  0.1544 -0.1194 -0.0479
 4210TIP3    H112587   6.704   3.244   2.767  0.2388 -1.8381  0.3785
 4210TIP3    H212588   6.797   3.302   2.872 -0.1616  1.0584 -0.7814
 4211TIP3   OH212589   3.875   1.157   0.766 -0.1761 -0.5076  0.3939
 4211TIP3    H112590   3.873   1.126   0.856  0.8698 -0.7172  0.3553
 4211TIP3    H212591   3.914   1.085   0.716 -1.9645 -0.9272 -0.4641
 4212TIP3   OH212592   4.533   1.829   0.713  0.1211  0.1887 -0.0562
 4212TIP3    H112593   4.526   1.741   0.751 -0.7171  0.3716  0.2239
 4212TIP3    H212594   4.447   1.846   0.674  0.6170  0.4522 -1.0721
 4213TIP3   OH212595   7.150   6.190   4.725  0.2077 -0.4214  0.3625
 4213TIP3    H112596   7.170   6.097   4.717 -1.6541 -0.8812  0.7187
 4213TIP3    H212597   7.067   6.193   4.772  0.1202  1.4206  0.1574
 4214TIP3   OH212598   3.997   5.652   4.715 -0.0774  0.8911  0.2239
 4214TIP3    H112599   4.073   5.628   4.769  0.2952  2.6183  0.5240
 4214TIP3    H212600   3.921   5.626   4.768  0.2565 -0.8302 -0.0699
 4215TIP3   OH212601   6.540   3.693   5.379 -0.0414 -0.0637 -0.3741
 4215TIP3    H112602   6.450   3.718   5.358 -0.2476 -0.2445  0.2714
 4215TIP3    H212603   6.589   3.776   5.379 -0.7089  0.3852  1.7125
 4216TIP3   OH212604   7.194   0.955   6.696  0.0454  0.0027 -0.4095
 4216TIP3    H112605   7.119   0.917   6.743  0.6360  0.7815  1.2556
 4216TIP3    H212606   7.253   0.881   6.682  0.2131 -0.1296  0.8515
 4217TIP3   OH212607   6.840   2.320   2.153 -0.1949 -0.0967  0.5074
 4217TIP3    H112608   6.935   2.311   2.143 -0.0420 -1.0202  2.3928
 4217TIP3    H212609   6.807   2.329   2.064  1.5557 -0.9254 -0.2577
 4218TIP3   OH212610   0.139   2.481   5.467 -0.0128 -0.2301  0.1277
 4218TIP3    H112611   0.204   2.541   5.431  0.2218 -1.3851 -1.4458
 4218TIP3    H212612   0.057   2.530   5.465  0.4123  0.4863  0.0972
 4219TIP3   OH212613   4.357   4.258   3.774 -0.0856 -0.8282  0.0485
 4219TIP3    H112614   4.265   4.273   3.751 -0.0003 -1.1554 -0.5021
 4219TIP3    H212615   4.353   4.202   3.852 -0.3499 -1.1033 -0.1588
 4220TIP3   OH212616   4.980   0.656   1.089 -0.0057 -0.3160  0.1513
 4220TIP3    H112617   4.992   0.565   1.061 -0.0784 -0.4007  0.3984
 4220TIP3    H212618   4.959   0.703   1.008 -0.0702 -0.5356  0.0396
 4221TIP3   OH212619   5.529   7.531   0.584 -0.0155  0.2557 -0.7319
 4221TIP3    H112620   5.566   7.526   0.672 -3.1910 -0.6174  0.6905
 4221TIP3    H212621   5.466   7.603   0.588 -1.4651 -0.8949 -1.7107
 4222TIP3   OH212622   8.191   5.136   2.454  0.3891  0.8739 -0.1449
 4222TIP3    H112623   8.111   5.082   2.461  1.0151 -0.0327  0.2001
 4222TIP3    H212624   8.259   5.074   2.428  0.9962  1.6320 -0.3783
 4223TIP3   OH212625   2.111   7.339   3.828 -0.1133  0.2537  0.1318
 4223TIP3    H112626   2.189   7.356   3.882  0.2013 -0.6149 -0.0405
 4223TIP3    H212627   2.039   7.376   3.879  0.5450  2.3112 -0.3334
 4224TIP3   OH212628   6.714   6.249   5.314  0.7022 -0.6797 -0.2453
 4224TIP3    H112629   6.766   6.263   5.394 -2.2477  2.2287  1.4192
 4224TIP3    H212630   6.623   6.253   5.344 -0.5700 -2.5737 -3.3945
 4225TIP3   OH212631   1.305   6.774   0.530  0.7019 -0.3146  0.2935
 4225TIP3    H112632   1.330   6.701   0.588  0.0397  0.8522  2.1264
 4225TIP3    H212633   1.212   6.760   0.514  0.7124 -0.2085  0.1461
 4226TIP3   OH212634   6.191   0.861   3.940 -0.5240  0.3991  0.5064
 4226TIP3    H112635   6.253   0.831   3.874  3.6703  1.3126  3.6127
 4226TIP3    H212636   6.169   0.782   3.990 -0.9892  0.2625  0.0935
 4227TIP3   OH212637   7.520   6.843   4.849 -0.3080  0.4027 -0.3699
 4227TIP3    H112638   7.512   6.828   4.755  0.1071 -0.0557 -0.3347
 4227TIP3    H212639   7.601   6.799   4.873 -0.9848 -0.4768  0.4017
 4228TIP3   OH212640   3.279   2.816   1.244 -0.0076 -0.4073  0.2935
 4228TIP3    H112641   3.330   2.797   1.323  0.0618  0.4393  0.4640
 4228TIP3    H212642   3.230   2.735   1.228  0.7416 -0.9380  0.6113
 4229TIP3   OH212643   5.515   1.856   1.296  0.1201  0.0736 -0.3794
 4229TIP3    H112644   5.592   1.843   1.241  0.2351 -0.1143 -0.1746
 4229TIP3    H212645   5.469   1.772   1.294  0.1393  0.0565 -0.1699
 4230TIP3   OH212646   7.154   1.716   2.095  0.1194  0.1993  0.3801
 4230TIP3    H112647   7.171   1.722   2.001 -1.7612 -0.6210 -0.0805
 4230TIP3    H212648   7.153   1.806   2.125 -1.5976  0.6776 -0.9179
 4231TIP3   OH212649   0.670   0.774   3.920  0.3353  0.2565 -0.8936
 4231TIP3    H112650   0.633   0.692   3.954 -0.0900  1.3273  1.4360
 4231TIP3    H212651   0.750   0.786   3.970 -0.4651  2.0571  0.0529
 4232TIP3   OH212652   5.466   7.495   4.936  0.1196  0.0316  0.3538
 4232TIP3    H112653   5.390   7.546   4.962  0.5978 -0.3333  2.6972
 4232TIP3    H212654   5.436   7.404   4.937  0.2098 -0.0072 -0.1881
 4233TIP3   OH212655   2.075   3.171   0.175 -0.0350  0.1675 -0.6496
 4233TIP3    H112656   2.057   3.171   0.081  0.6287  0.5096 -0.7866
 4233TIP3    H212657   2.116   3.256   0.192  1.2357 -0.4713 -0.3406
 4234TIP3   OH212658   6.270   6.683   5.457 -0.3808  0.2970  0.2523
 4234TIP3    H112659   6.316   6.598   5.462 -1.3503 -0.3639 -1.2699
 4234TIP3    H212660   6.183   6.661   5.424 -0.2001  2.0236 -1.5358
 4235TIP3   OH212661   0.419   4.292   2.350  0.0474 -0.0443  0.1258
 4235TIP3    H112662   0.495   4.296   2.291 -1.0045 -1.6828 -1.4603
 4235TIP3    H212663   0.371   4.373   2.332  0.5330  0.1968 -0.1279
 4236TIP3   OH212664   0.687   3.475   0.029  0.1287  0.1319  0.7663
 4236TIP3    H112665   0.734   3.527   0.094  1.1769 -3.4650  3.1694
 4236TIP3    H212666   0.753   3.417  -0.008 -1.3464 -1.0874 -0.0713
 4237TIP3   OH212667   6.029   4.376   0.149  0.2610  0.0188 -0.9458
 4237TIP3    H112668   6.084   4.346   0.221  0.1489 -3.0090 -1.9834
 4237TIP3    H212669   6.043   4.471   0.145 -1.7348  0.8968  4.6523
 4238TIP3   OH212670   1.986   4.383   0.652 -0.1891  0.5166  0.4581
 4238TIP3    H112671   2.075   4.413   0.672 -0.4537  3.6534 -2.2047
 4238TIP3    H212672   1.998   4.300   0.607  1.2598  0.1986  1.3807
 4239TIP3   OH212673   8.045   1.058   2.624  0.0962 -0.7462  0.2400
 4239TIP3    H112674   8.078   0.968   2.623 -1.4506 -1.3399  0.8894
 4239TIP3    H212675   8.121   1.110   2.649  0.9117 -1.9084  0.2712
 4240TIP3   OH212676   6.766   6.580   3.317 -0.5036 -0.2022 -0.2092
 4240TIP3    H112677   6.837   6.635   3.284  0.4858 -0.7151  0.9902
 4240TIP3    H212678   6.703   6.641   3.354  0.1123  0.1820  0.2152
 4241TIP3   OH212679   5.447   7.375   6.374 -0.2385  0.1659 -0.0642
 4241TIP3    H112680   5.542   7.386   6.377 -0.3338  0.9496  0.1914
 4241TIP3    H212681   5.428   7.367   6.280 -0.0612  1.4245 -0.2288
 4242TIP3   OH212682   0.620   3.056   0.604 -0.1174 -0.0968 -0.0157
 4242TIP3    H112683   0.560   3.089   0.537  2.4374 -0.7005 -2.7819
 4242TIP3    H212684   0.704   3.097   0.583  1.1270 -1.4790  1.9503
 4243TIP3   OH212685   5.328   1.615   4.156  0.4078 -0.0716 -0.7272
 4243TIP3    H112686   5.367   1.639   4.241 -1.5317  1.2558 -0.1577
 4243TIP3    H212687   5.403   1.610   4.097  1.6756  0.2635  0.7701
 4244TIP3   OH212688   2.144   0.644  -0.032 -0.0048 -0.4104 -0.6484
 4244TIP3    H112689   2.193   0.716   0.007  0.9734 -1.0926 -0.5820
 4244TIP3    H212690   2.136   0.580   0.039  0.9300 -1.2383 -1.2693
 4245TIP3   OH212691   0.643   0.147   2.970  0.1689  0.5421  0.1403
 4245TIP3    H112692   0.663   0.163   2.877 -2.0947  1.5285 -0.2355
 4245TIP3    H212693   0.667   0.229   3.014 -1.4309  1.1389 -0.0602
 4246TIP3   OH212694   3.459   4.577   3.512 -0.1622 -0.2505  0.5644
 4246TIP3    H112695   3.518   4.618   3.575 -0.5177  1.3412 -0.0812
 4246TIP3    H212696   3.378   4.563   3.562  0.1040 -0.5593  0.9119
 4247TIP3   OH212697   7.825   0.958   1.209  0.1015 -0.0754 -0.1100
 4247TIP3    H112698   7.818   0.866   1.185  0.4835 -0.0101 -0.5049
 4247TIP3    H212699   7.735   0.991   1.207 -0.1106 -0.5999  0.7110
 4248TIP3   OH212700   7.777   2.414   2.565  0.6342  1.4000 -0.2284
 4248TIP3    H112701   7.752   2.478   2.632 -2.0879 -0.1449  0.4110
 4248TIP3    H212702   7.816   2.342   2.614  1.4589  1.5461 -0.6633
 4249TIP3   OH212703   1.393   7.000   5.900 -0.5857  0.0317 -0.0120
 4249TIP3    H112704   1.348   7.085   5.896 -1.4625 -0.1933  2.8147
 4249TIP3    H212705   1.425   6.994   5.990 -1.0672 -2.8558  0.0663
 4250TIP3   OH212706   8.286   1.724   6.699  0.1740  0.3383  0.1098
 4250TIP3    H112707   8.247   1.738   6.613 -1.8950 -1.8879  0.5629
 4250TIP3    H212708   8.301   1.629   6.704 -0.0282  0.3601  2.2760
 4251TIP3   OH212709   7.465   7.369   5.264 -0.2338 -0.1992 -0.0831
 4251TIP3    H112710   7.380   7.355   5.222 -0.7562 -0.1760  0.9280
 4251TIP3    H212711   7.497   7.451   5.226 -1.1167  0.2986  0.2176
 4252TIP3   OH212712   3.742   5.261   0.103  0.4221 -0.1000  0.5166
 4252TIP3    H112713   3.654   5.280   0.070  1.2504 -0.0868 -1.8975
 4252TIP3    H212714   3.732   5.178   0.149 -1.0534  0.4607  1.2715
 4253TIP3   OH212715   6.757   0.879   2.067 -0.2546 -0.5833  0.2691
 4253TIP3    H112716   6.711   0.963   2.066 -1.1081 -0.9982  2.0109
 4253TIP3    H212717   6.772   0.860   2.159  1.5293 -1.5111 -0.1618
 4254TIP3   OH212718   6.074   1.414   5.485 -0.1313 -0.2235 -0.0393
 4254TIP3    H112719   6.079   1.348   5.417 -1.2179 -0.4474  0.0836
 4254TIP3    H212720   6.017   1.482   5.449  1.6037  1.0698 -0.4934
 4255TIP3   OH212721   3.456   5.894   6.045  0.5842  0.2591  0.3849
 4255TIP3    H112722   3.492   5.959   5.985  0.1252 -0.9439 -1.2778
 4255TIP3    H212723   3.514   5.818   6.036 -0.3512 -0.4747  0.2915
 4256TIP3   OH212724   6.117   2.265   5.455 -0.4750 -0.0618 -0.1890
 4256TIP3    H112725   6.075   2.321   5.521 -0.0107  0.1089 -0.0363
 4256TIP3    H212726   6.105   2.176   5.488  0.9194  0.0965  0.8182
 4257TIP3   OH212727   6.443   5.482   5.582 -0.4011 -0.1882 -0.3514
 4257TIP3    H112728   6.432   5.445   5.670 -2.0515 -1.0220 -0.8685
 4257TIP3    H212729   6.441   5.406   5.524  0.5869  0.3610 -1.1384
 4258TIP3   OH212730   3.339   4.090   2.579 -0.4376  0.0615  0.0713
 4258TIP3    H112731   3.304   4.136   2.503 -0.4979  0.9101  0.5849
 4258TIP3    H212732   3.271   4.100   2.646 -0.9527 -1.7832 -0.1231
 4259TIP3   OH212733   3.097   5.985   2.057 -0.1188 -0.1623 -0.1375
 4259TIP3    H112734   3.116   6.069   2.016 -1.8057 -0.2834 -1.2618
 4259TIP3    H212735   3.146   5.921   2.006 -1.0493 -0.1447 -1.0814
 4260TIP3   OH212736   8.287   6.303   0.571 -0.0655 -0.1539 -0.3160
 4260TIP3    H112737   8.307   6.228   0.514 -0.6254  0.7979 -1.8233
 4260TIP3    H212738   8.222   6.353   0.522  0.7776  1.6581  0.3553
 4261TIP3   OH212739   6.553   1.971   0.146 -0.2907  0.3681  0.7027
 4261TIP3    H112740   6.546   1.879   0.118 -0.7567 -0.5451  3.4947
 4261TIP3    H212741   6.542   2.021   0.065  0.0635 -2.0144 -0.9422
 4262TIP3   OH212742   0.543   4.145   4.280  0.1372 -0.0669  0.7963
 4262TIP3    H112743   0.626   4.161   4.325  1.1886 -0.9559 -0.7364
 4262TIP3    H212744   0.498   4.081   4.335 -0.2630  1.5073  2.4236
 4263TIP3   OH212745   7.602   2.574   4.490 -0.4833  0.5952 -0.2628
 4263TIP3    H112746   7.592   2.480   4.475 -1.4355  0.6872 -0.2513
 4263TIP3    H212747   7.603   2.584   4.585 -0.7506  0.6332 -0.2639
 4264TIP3   OH212748   2.158   7.623   4.894  0.1283 -0.2300  0.3808
 4264TIP3    H112749   2.160   7.527   4.885  1.3119 -0.5507  3.1017
 4264TIP3    H212750   2.066   7.642   4.916 -0.8103 -0.2948 -2.8910
 4265TIP3   OH212751   0.524   1.658   3.706 -0.5237 -0.0619 -0.0115
 4265TIP3    H112752   0.500   1.650   3.613 -0.5012  0.3335 -0.0553
 4265TIP3    H212753   0.616   1.633   3.709 -0.6862 -0.6665  0.0032
 4266TIP3   OH212754   4.070   4.387   1.127 -0.2918 -0.2619 -0.2797
 4266TIP3    H112755   4.135   4.369   1.058 -0.3141 -0.0804 -0.3460
 4266TIP3    H212756   4.088   4.320   1.193  0.7514  0.5197  0.2553
 4267TIP3   OH212757   7.205   5.504   6.640  0.3965  0.6818  0.6568
 4267TIP3    H112758   7.171   5.436   6.698 -0.3276 -0.5637 -1.1261
 4267TIP3    H212759   7.164   5.585   6.671 -1.1813 -0.1846  0.9557
 4268TIP3   OH212760   8.254   3.633   3.624  0.1521  0.1563  0.3176
 4268TIP3    H112761   8.302   3.617   3.706 -0.9042  0.0793  0.9367
 4268TIP3    H212762   8.243   3.546   3.585  0.2137  0.1344  0.3487
 4269TIP3   OH212763   7.122   1.182   0.523  0.8713  0.4219 -0.0523
 4269TIP3    H112764   7.086   1.271   0.520  1.3107  0.5840 -1.5425
 4269TIP3    H212765   7.111   1.155   0.614 -1.6845  0.9990 -0.1048
 4270TIP3   OH212766   7.260   3.143   4.896  0.0393  0.1523  0.0749
 4270TIP3    H112767   7.228   3.203   4.829 -1.0774 -1.2501 -0.7294
 4270TIP3    H212768   7.348   3.120   4.868 -1.0594 -1.8822 -2.0948
 4271TIP3   OH212769   0.495   1.264   6.693  0.6277 -0.2482 -0.5326
 4271TIP3    H112770   0.537   1.212   6.625  1.5250 -2.1028  1.3397
 4271TIP3    H212771   0.474   1.202   6.762 -1.3752  1.3590  0.4133
 4272TIP3   OH212772   2.348   5.611   3.698 -0.0047 -0.3351  0.4773
 4272TIP3    H112773   2.393   5.552   3.759  0.2400  1.9625  2.7141
 4272TIP3    H212774   2.420   5.653   3.650 -0.1402 -1.2208 -0.5324
 4273TIP3   OH212775   6.437   1.975   1.923 -0.5764 -0.1429 -0.2133
 4273TIP3    H112776   6.343   1.990   1.917 -0.2120  2.0711 -1.0800
 4273TIP3    H212777   6.470   1.987   1.834  0.7235  0.8683  0.3592
 4274TIP3   OH212778   4.312   0.485   5.671  1.1608 -1.0065  0.1305
 4274TIP3    H112779   4.280   0.397   5.694 -0.9325 -0.3149  0.1269
 4274TIP3    H212780   4.332   0.525   5.756  0.2893 -0.8794  0.2943
 4275TIP3   OH212781   6.795   4.620   6.792  0.1500  0.0688  0.2553
 4275TIP3    H112782   6.884   4.585   6.789  0.2144  0.2551 -0.0907
 4275TIP3    H212783   6.780   4.656   6.704  0.5160  1.9456  0.9068
 4276TIP3   OH212784   1.022   0.671   5.502 -0.6812  0.1634 -0.5183
 4276TIP3    H112785   1.000   0.584   5.534  0.0223  0.2861  0.3335
 4276TIP3    H212786   1.034   0.723   5.581  0.6596  0.5857 -0.9791
 4277TIP3   OH212787   5.563   0.830   0.849 -0.3491  0.1200 -0.7784
 4277TIP3    H112788   5.510   0.886   0.905  1.2728 -0.5755  1.6224
 4277TIP3    H212789   5.512   0.749   0.840  0.1807 -0.5483  1.5031
 4278TIP3   OH212790   3.283   0.745   3.805  0.2119  0.3394  0.3377
 4278TIP3    H112791   3.280   0.739   3.901 -0.8581 -0.6850  0.2670
 4278TIP3    H212792   3.215   0.808   3.783  0.7075  0.8537  0.2601
 4279TIP3   OH212793   6.369   4.373   4.016 -0.2295 -0.1973 -0.2391
 4279TIP3    H112794   6.446   4.359   4.072 -0.3006 -1.9126 -0.5307
 4279TIP3    H212795   6.358   4.469   4.014 -0.3608 -0.0409  2.8607
 4280TIP3   OH212796   4.815   0.865   6.658  0.4481 -0.2276 -0.1270
 4280TIP3    H112797   4.751   0.935   6.657 -1.7226 -1.9697  2.7030
 4280TIP3    H212798   4.781   0.800   6.596  0.8309 -0.1116 -0.4663
 4281TIP3   OH212799   5.894   1.709   2.370  0.3513  0.1289 -0.0714
 4281TIP3    H112800   5.841   1.786   2.348  1.2902  0.4568 -1.3176
 4281TIP3    H212801   5.841   1.635   2.343  0.9975  0.4871 -2.6138
 4282TIP3   OH212802   7.164   6.664   0.731  0.3962 -0.2156 -0.4917
 4282TIP3    H112803   7.243   6.717   0.734  0.7542 -0.6511 -1.7700
 4282TIP3    H212804   7.163   6.626   0.643 -2.4451  1.6512 -1.4379
 4283TIP3   OH212805   7.291   0.430   2.220 -0.0686  0.0862  0.1050
 4283TIP3    H112806   7.247   0.460   2.140  1.0142 -0.8817 -0.9087
 4283TIP3    H212807   7.328   0.510   2.258  1.1847  0.3607 -1.5334
 4284TIP3   OH212808   5.134   2.156   5.046 -0.2661  0.4663  0.5066
 4284TIP3    H112809   5.078   2.103   5.104  0.1119  0.8934  1.2786
 4284TIP3    H212810   5.201   2.192   5.104  0.3540  0.5952 -0.2732
 4285TIP3   OH212811   0.528   3.898   5.460 -0.4474 -0.3970  0.0240
 4285TIP3    H112812   0.575   3.945   5.392 -2.3798  1.3967 -0.1922
 4285TIP3    H212813   0.445   3.946   5.469 -0.9246 -1.5257  2.5226
 4286TIP3   OH212814   3.448   2.184   1.602  0.2243 -0.3405  0.0277
 4286TIP3    H112815   3.363   2.145   1.621 -0.4007  0.8082 -0.2782
 4286TIP3    H212816   3.494   2.186   1.686 -0.2661 -0.4836  0.2978
 4287TIP3   OH212817   0.632   2.671   0.487  0.2083 -0.1950 -0.1839
 4287TIP3    H112818   0.711   2.705   0.445  0.0539 -0.8957 -1.0852
 4287TIP3    H212819   0.624   2.721   0.569  0.0414  1.8704 -1.3794
 4288TIP3   OH212820   3.794   6.314   3.651 -0.0863  0.0857  0.1980
 4288TIP3    H112821   3.750   6.304   3.736  1.4160 -2.6982  0.7734
 4288TIP3    H212822   3.856   6.386   3.665 -1.0626  0.8032  0.9095
 4289TIP3   OH212823   7.648   2.582   5.788 -0.0244 -0.3073  0.3760
 4289TIP3    H112824   7.731   2.577   5.834 -0.0538  1.2608  0.6409
 4289TIP3    H212825   7.596   2.509   5.824  1.3293 -1.5448 -0.0807
 4290TIP3   OH212826   0.396   1.243   0.414 -0.5766 -0.3565 -0.1397
 4290TIP3    H112827   0.361   1.188   0.344 -0.3400  0.2525 -0.7349
 4290TIP3    H212828   0.384   1.190   0.493 -0.5390 -1.1836 -0.6744
 4291TIP3   OH212829   6.902   4.590   2.470  0.7004 -0.0934 -0.1253
 4291TIP3    H112830   6.985   4.549   2.494 -0.3874 -1.3320  1.7588
 4291TIP3    H212831   6.851   4.520   2.429  0.2488  0.4095 -0.4458
 4292TIP3   OH212832   5.725   0.499   3.171  0.1652 -0.7028 -0.0628
 4292TIP3    H112833   5.717   0.489   3.266  0.2303 -1.6001 -0.1461
 4292TIP3    H212834   5.649   0.453   3.136 -0.2674  0.2742 -0.4229
 4293TIP3   OH212835   0.505   5.903   4.642 -0.3484 -0.6739  0.4749
 4293TIP3    H112836   0.569   5.974   4.642 -0.1372 -0.8646  0.1738
 4293TIP3    H212837   0.556   5.824   4.624 -0.6436 -0.8457  0.3816
 4294TIP3   OH212838   7.029   6.135   4.398  0.9396 -0.4578 -0.0281
 4294TIP3    H112839   7.015   6.171   4.310 -1.9581  2.8219  1.5019
 4294TIP3    H212840   7.089   6.196   4.440  0.9914 -1.0351  0.7674
 4295TIP3   OH212841   7.159   3.938   0.090  0.0632 -0.2013 -0.0512
 4295TIP3    H112842   7.102   3.985   0.150 -0.4970 -0.4892 -0.3582
 4295TIP3    H212843   7.243   3.932   0.137 -1.2434 -3.4057  2.2325
 4296TIP3   OH212844   5.391   6.499   3.166  0.5221  0.2042  0.3799
 4296TIP3    H112845   5.447   6.508   3.089  1.8268  0.8391  1.3571
 4296TIP3    H212846   5.419   6.417   3.207 -0.2411 -0.1877  0.1392
 4297TIP3   OH212847   2.289   4.901   0.708 -0.2269 -0.6162  0.3188
 4297TIP3    H112848   2.306   4.860   0.623 -0.2885 -1.4415  0.6962
 4297TIP3    H212849   2.347   4.855   0.769  0.0400  0.1704  0.6774
 4298TIP3   OH212850   7.798   0.151   0.320  0.0220  0.5411  0.1264
 4298TIP3    H112851   7.831   0.160   0.230 -1.2122  0.9206 -0.3123
 4298TIP3    H212852   7.802   0.056   0.337  1.7607  0.6116  0.2928
 4299TIP3   OH212853   5.872   6.896   6.073  0.3211 -0.3434 -0.4218
 4299TIP3    H112854   5.832   6.979   6.099  0.1969  0.1636 -2.1298
 4299TIP3    H212855   5.803   6.850   6.025  1.3936  0.0736 -2.4481
 4300TIP3   OH212856   5.942   4.682   1.230  0.4794 -0.1587 -0.2306
 4300TIP3    H112857   5.985   4.608   1.188 -2.0041 -2.7468  1.4556
 4300TIP3    H212858   6.003   4.709   1.299  2.6530  1.3813 -2.5329
 4301TIP3   OH212859   0.716   6.103   5.430 -0.2301 -0.9223  0.4620
 4301TIP3    H112860   0.752   6.062   5.353 -1.0769 -2.0822  0.6610
 4301TIP3    H212861   0.660   6.036   5.470  0.0498 -0.3007  1.9798
 4302TIP3   OH212862   0.139   0.497   6.119  0.0674 -0.0664 -0.0197
 4302TIP3    H112863   0.221   0.547   6.114 -0.1572  0.3380  0.2888
 4302TIP3    H212864   0.162   0.410   6.085  0.9255 -0.3260  1.1575
 4303TIP3   OH212865   0.612   1.034   0.583  0.1301  0.7870  0.0225
 4303TIP3    H112866   0.655   1.115   0.612  0.0047  1.2080 -0.9138
 4303TIP3    H212867   0.521   1.046   0.608  0.1791  0.7714  0.2132
 4304TIP3   OH212868   5.622   1.742   4.275 -0.6870 -0.1770 -0.2027
 4304TIP3    H112869   5.649   1.819   4.225  0.9316 -0.4911  0.1476
 4304TIP3    H212870   5.547   1.773   4.327 -0.5773  0.9294 -0.6739
 4305TIP3   OH212871   3.091   0.583   2.671  0.1509  0.6070 -0.2823
 4305TIP3    H112872   3.088   0.515   2.605 -0.8320  0.4434 -0.0758
 4305TIP3    H212873   3.109   0.663   2.622 -1.6524  0.6701 -0.9176
 4306TIP3   OH212874   6.637   1.628   2.659 -0.0578  0.5176  0.5952
 4306TIP3    H112875   6.731   1.624   2.639 -0.6562 -1.2355 -2.3308
 4306TIP3    H212876   6.604   1.701   2.607 -0.7702 -0.7533 -0.7900
 4307TIP3   OH212877   4.484   4.039   6.419 -0.4757  0.2730  0.0954
 4307TIP3    H112878   4.388   4.043   6.415 -0.4292  0.4555 -0.9803
 4307TIP3    H212879   4.510   4.125   6.453 -0.8149 -0.8865  3.6956
 4308TIP3   OH212880   6.697   2.086   6.721  0.0017  0.3429  0.0434
 4308TIP3    H112881   6.760   2.038   6.774 -1.3394 -0.6276  0.7867
 4308TIP3    H212882   6.646   2.137   6.784 -0.2672  0.7745 -0.5122
 4309TIP3   OH212883   0.635   1.490   0.111 -0.1929  0.2172  0.7993
 4309TIP3    H112884   0.703   1.460   0.051 -1.4771  0.1739 -0.7282
 4309TIP3    H212885   0.644   1.435   0.188  1.3804  0.1213  0.5685
 4310TIP3   OH212886   3.427   5.402   6.081 -0.2755 -0.3313 -0.0045
 4310TIP3    H112887   3.377   5.340   6.028  0.5672 -0.1844 -0.9935
 4310TIP3    H212888   3.512   5.361   6.092 -0.3471 -0.2331  1.0343
 4311TIP3   OH212889   5.608   0.863   4.752  0.6491  0.1493  0.0190
 4311TIP3    H112890   5.524   0.869   4.797 -1.1596 -2.7848 -2.5020
 4311TIP3    H212891   5.600   0.925   4.679  0.8372  0.1763  0.0223
 4312TIP3   OH212892   1.600   3.510   4.751  0.2451  0.0522  0.0580
 4312TIP3    H112893   1.610   3.468   4.836  1.2025  0.9445  0.4157
 4312TIP3    H212894   1.690   3.524   4.720 -0.0690  0.6423 -0.6375
 4313TIP3   OH212895   0.151   1.027   6.788 -0.4006 -0.8717 -0.2673
 4313TIP3    H112896   0.172   1.019   6.695  1.5901 -0.2579  0.0787
 4313TIP3    H212897   0.101   0.948   6.809  1.5982 -2.4866 -1.2404
 4314TIP3   OH212898   3.764   6.983   5.297 -0.2830 -0.4938  0.2847
 4314TIP3    H112899   3.726   6.970   5.210 -0.4731 -1.0515  0.4491
 4314TIP3    H212900   3.699   7.037   5.343  0.0047  0.1493 -0.0415
 4315TIP3   OH212901   5.091   2.501   4.073  0.6823  0.0600  0.1188
 4315TIP3    H112902   5.006   2.474   4.038  0.9265  0.5383 -0.8706
 4315TIP3    H212903   5.112   2.434   4.138  0.1351 -0.7595 -0.5260
 4316TIP3   OH212904   6.501   1.994   2.799  0.1405  0.0525 -0.1815
 4316TIP3    H112905   6.448   1.923   2.764 -0.1039  0.5033 -0.7380
 4316TIP3    H212906   6.534   2.041   2.722  0.7198  0.2383  0.1689
 4317TIP3   OH212907   0.530   3.101   3.240  0.1413  0.0873 -0.7646
 4317TIP3    H112908   0.617   3.086   3.279 -1.2644  1.2862  3.3315
 4317TIP3    H212909   0.489   3.014   3.239 -0.2075  0.1236  1.9517
 4318TIP3   OH212910   3.450   2.722   1.709  0.0790 -0.0700 -0.2708
 4318TIP3    H112911   3.515   2.737   1.641 -0.4447  0.3102 -0.6886
 4318TIP3    H212912   3.438   2.627   1.710 -0.2813 -0.0416 -1.0637
 4319TIP3   OH212913   7.368   2.457   3.349 -0.8924  0.6109 -0.0245
 4319TIP3    H112914   7.343   2.405   3.273 -2.6080 -0.4040  1.1677
 4319TIP3    H212915   7.431   2.403   3.397  0.3590  1.3420 -0.7842
 4320TIP3   OH212916   3.047   6.659   5.717 -0.3709  0.1726  0.1690
 4320TIP3    H112917   3.015   6.749   5.721 -1.2334 -0.1517  0.7785
 4320TIP3    H212918   2.969   6.607   5.700 -0.4445 -0.7540  2.8859
 4321TIP3   OH212919   5.497   7.032   1.005 -0.2905  0.1932  0.4239
 4321TIP3    H112920   5.414   7.007   1.045 -2.0688  2.7684 -1.3769
 4321TIP3    H212921   5.520   7.115   1.047 -0.1825  0.9705 -1.1026
 4322TIP3   OH212922   1.151   3.787   0.394 -0.1487 -0.2264 -0.6304
 4322TIP3    H112923   1.196   3.807   0.476 -2.0542  0.2263  0.3626
 4322TIP3    H212924   1.180   3.698   0.371  1.1851  0.0376 -0.0436
 4323TIP3   OH212925   7.746   2.844   1.935  0.2693  0.0582  0.1212
 4323TIP3    H112926   7.814   2.776   1.941 -1.9704 -2.2874  1.0483
 4323TIP3    H212927   7.705   2.829   1.850 -0.9836 -0.5400  0.8170
 4324TIP3   OH212928   1.223   5.148   0.776  0.2250  0.3113 -0.3740
 4324TIP3    H112929   1.187   5.229   0.811 -2.0526 -0.5804 -0.5360
 4324TIP3    H212930   1.281   5.177   0.705  2.8422  1.9819  2.2082
 4325TIP3   OH212931   6.609   1.235   5.202  0.9809 -0.0154 -0.3444
 4325TIP3    H112932   6.625   1.141   5.197 -1.9306 -0.5401 -1.8349
 4325TIP3    H212933   6.627   1.267   5.114  0.2856  0.4784 -0.3171
 4326TIP3   OH212934   4.156   3.471   1.720 -0.2624  0.0491 -0.1531
 4326TIP3    H112935   4.211   3.431   1.653 -0.7206  0.9319 -1.0906
 4326TIP3    H212936   4.167   3.416   1.797 -0.3438 -1.4658 -1.1896
 4327TIP3   OH212937   7.495   2.367   5.866 -0.3479  0.0876  0.4021
 4327TIP3    H112938   7.540   2.290   5.901  1.7503  1.3984  0.7398
 4327TIP3    H212939   7.476   2.420   5.943  2.1336  1.8678 -0.1040
 4328TIP3   OH212940   4.603   2.714   3.149  0.0446  0.0694 -0.2392
 4328TIP3    H112941   4.688   2.714   3.193 -0.5972  0.5364  1.0347
 4328TIP3    H212942   4.623   2.741   3.059  1.1018  1.2615  0.3280
 4329TIP3   OH212943   6.936   5.264   6.554 -0.0198 -0.4385 -0.1594
 4329TIP3    H112944   6.992   5.283   6.630  2.1545 -0.8785 -1.5801
 4329TIP3    H212945   6.929   5.348   6.508 -1.7916 -0.0390  0.7259
 4330TIP3   OH212946   5.037   2.735   1.456  0.0376 -0.1076  0.1382
 4330TIP3    H112947   5.117   2.684   1.448  0.4261  0.4428  0.4844
 4330TIP3    H212948   5.002   2.739   1.366  0.1924 -0.6638  0.0513
 4331TIP3   OH212949   7.760   0.519   6.671 -0.3665 -0.1121 -0.0383
 4331TIP3    H112950   7.702   0.468   6.727  0.0665  0.0208  0.5431
 4331TIP3    H212951   7.754   0.477   6.585  0.1330 -1.2823  0.4769
 4332TIP3   OH212952   7.561   0.447   6.204 -0.2318 -0.3954  0.0677
 4332TIP3    H112953   7.505   0.444   6.282 -0.9651  0.5252 -0.4036
 4332TIP3    H212954   7.514   0.393   6.140 -0.8832  0.8041 -0.4996
 4333TIP3   OH212955   4.043   6.535   6.105  0.0892 -0.0543  0.2007
 4333TIP3    H112956   3.998   6.617   6.123  1.0674  0.4569  0.3451
 4333TIP3    H212957   3.995   6.470   6.157 -0.1991  0.5512  0.7071
 4334TIP3   OH212958   2.248   0.271   2.408  0.4763  0.4143 -0.1802
 4334TIP3    H112959   2.270   0.316   2.327  1.1172  0.1522 -0.1540
 4334TIP3    H212960   2.264   0.335   2.477  2.5018 -0.1938 -0.0428
 4335TIP3   OH212961   5.010   5.580   2.909 -0.4832 -0.0098  0.0306
 4335TIP3    H112962   5.008   5.645   2.839  1.1274  1.1298  0.9650
 4335TIP3    H212963   4.927   5.592   2.955 -0.2814  1.2995  0.0858
 4336TIP3   OH212964   6.758   0.346   0.425 -0.0531 -0.5007 -0.3461
 4336TIP3    H112965   6.673   0.388   0.435  0.0561 -0.3817  0.1069
 4336TIP3    H212966   6.805   0.401   0.363 -0.0685 -0.2011 -0.0917
 4337TIP3   OH212967   3.694   4.196   6.598  0.2705 -0.3238 -0.4645
 4337TIP3    H112968   3.680   4.270   6.658 -0.8020  0.8310 -2.0364
 4337TIP3    H212969   3.631   4.130   6.626 -0.6202  0.4300 -0.6114
 4338TIP3   OH212970   4.239   5.524   0.427  0.1982  0.7467 -0.0231
 4338TIP3    H112971   4.283   5.489   0.505 -1.4258  1.0400  1.0793
 4338TIP3    H212972   4.153   5.552   0.459 -0.6588  0.5401 -2.0033
 4339TIP3   OH212973   2.924   7.658   1.461 -0.2127 -0.0686  1.0584
 4339TIP3    H112974   2.841   7.666   1.414  1.0423 -1.2104 -1.5120
 4339TIP3    H212975   2.976   7.733   1.432  0.4161 -0.5262  0.9889
 4340TIP3   OH212976   3.248   4.369   2.130  0.6293  0.4619  0.4466
 4340TIP3    H112977   3.244   4.319   2.048  0.7893 -0.0038  0.7146
 4340TIP3    H212978   3.274   4.457   2.104  0.2695  0.4253 -0.0466
 4341TIP3   OH212979   1.701   3.212   6.370  0.9712  0.0725 -0.3060
 4341TIP3    H112980   1.763   3.182   6.437 -0.2490 -0.5394  0.5837
 4341TIP3    H212981   1.711   3.307   6.370  2.2723 -0.0398 -0.5611
 4342TIP3   OH212982   3.074   6.880   6.436  0.3618 -0.2479 -0.0276
 4342TIP3    H112983   2.990   6.912   6.468  0.4571  0.0440 -0.0680
 4342TIP3    H212984   3.130   6.879   6.513  0.2809 -0.5877  0.0306
 4343TIP3   OH212985   4.913   3.662   4.369  0.5498  0.0002  0.4537
 4343TIP3    H112986   4.984   3.682   4.431  0.3603  4.3209 -0.4216
 4343TIP3    H212987   4.948   3.687   4.284 -1.0711 -0.6162 -0.4394
 4344TIP3   OH212988   0.666   5.540   5.667  0.1230 -0.2848 -0.0023
 4344TIP3    H112989   0.589   5.502   5.707  0.9141 -1.2224  0.6850
 4344TIP3    H212990   0.649   5.535   5.573 -1.2904  0.9503  0.1635
 4345TIP3   OH212991   6.136   7.274   4.668  0.0103 -0.5352  0.7655
 4345TIP3    H112992   6.113   7.220   4.592 -2.2306 -0.2627  1.1995
 4345TIP3    H212993   6.096   7.359   4.650  0.0105 -0.2703  1.9444
 4346TIP3   OH212994   2.508   2.373   2.025 -0.1797  0.4023 -0.5602
 4346TIP3    H112995   2.424   2.334   1.999  0.0127 -2.3910  2.4415
 4346TIP3    H212996   2.573   2.325   1.974 -0.2202  1.6191 -1.8471
 4347TIP3   OH212997   3.770   5.735   5.690 -0.5193  0.4695  0.4229
 4347TIP3    H112998   3.694   5.777   5.731  0.7307  0.9668  2.3799
 4347TIP3    H212999   3.807   5.803   5.633 -2.2322 -0.2040 -1.6303
 4348TIP3   OH213000   4.734   6.279   3.120 -0.4879 -0.5874 -0.5872
 4348TIP3    H113001   4.648   6.320   3.135 -0.3049 -0.0585 -0.9362
 4348TIP3    H213002   4.722   6.228   3.040 -0.7493 -1.3214 -0.0864
 4349TIP3   OH213003   8.143   3.033   0.009 -0.4226  0.1233  0.0837
 4349TIP3    H113004   8.112   2.945  -0.012  0.1746  0.3292 -1.7454
 4349TIP3    H213005   8.234   3.021   0.037 -0.1651  0.2058 -0.7007
 4350TIP3   OH213006   2.652   5.021   5.180  0.3853  0.2617  0.5810
 4350TIP3    H113007   2.636   5.110   5.147  0.9463  0.6079  1.2141
 4350TIP3    H213008   2.693   4.976   5.106  0.0350  0.5020  0.2298
 4351TIP3   OH213009   6.237   1.373   6.409  0.0607  0.4366 -0.0876
 4351TIP3    H113010   6.324   1.401   6.382 -0.3962  0.7291 -1.3350
 4351TIP3    H213011   6.197   1.338   6.329 -1.0203  0.4611  0.4192
 4352TIP3   OH213012   4.577   0.011   5.789 -0.2905 -0.0433 -0.5821
 4352TIP3    H113013   4.571   0.070   5.714 -0.3390  1.0543  0.2590
 4352TIP3    H213014   4.503   0.035   5.845 -0.3911 -1.0021 -0.2745
 4353TIP3   OH213015   0.262   5.200   0.712  0.3697 -0.3378  0.1436
 4353TIP3    H113016   0.251   5.289   0.679  0.8936  0.0379  0.9464
 4353TIP3    H213017   0.318   5.157   0.647  0.4171  0.0326 -0.0651
 4354TIP3   OH213018   0.462   5.260   2.647 -0.0207 -0.1667 -0.3472
 4354TIP3    H113019   0.509   5.182   2.679 -0.5466 -0.8953 -1.2981
 4354TIP3    H213020   0.532   5.319   2.618  0.3802 -0.3548  0.2111
 4355TIP3   OH213021   6.653   5.556   5.314  0.3632 -0.0075 -0.0088
 4355TIP3    H113022   6.635   5.472   5.357  1.2607 -1.9072 -3.0625
 4355TIP3    H213023   6.568   5.600   5.309 -0.6022 -1.8338 -0.4731
 4356TIP3   OH213024   5.476   3.058   3.778  0.0372  0.5735 -0.2395
 4356TIP3    H113025   5.532   3.002   3.833 -0.4411  0.6362  0.3232
 4356TIP3    H213026   5.388   3.021   3.789 -0.4269  1.9197  0.7882
 4357TIP3   OH213027   2.506   7.597   0.020  0.0307  0.1922  0.7422
 4357TIP3    H113028   2.559   7.544   0.079  1.4524 -1.3173 -1.7191
 4357TIP3    H213029   2.562   7.672  -0.001 -0.4164  0.6492  1.1472
 4358TIP3   OH213030   7.319   4.130   3.352 -0.4305  0.0293  0.5719
 4358TIP3    H113031   7.384   4.136   3.282  1.3482 -1.4910  1.9865
 4358TIP3    H213032   7.308   4.220   3.382  2.0577  0.2324  1.1276
 4359TIP3   OH213033   2.829   5.761   5.069  0.2349  0.4354 -0.2991
 4359TIP3    H113034   2.918   5.728   5.057 -0.1603 -0.6984 -0.2068
 4359TIP3    H213035   2.833   5.852   5.038  1.2930  0.2375 -0.7834
 4360TIP3   OH213036   1.490   2.722   5.904 -0.1427 -0.2527 -0.0445
 4360TIP3    H113037   1.491   2.627   5.889  2.0827 -0.4034  0.6927
 4360TIP3    H213038   1.473   2.731   5.998  1.5293 -0.0685  0.2828
 4361TIP3   OH213039   2.991   6.309   4.504 -0.4160  0.3088  0.2182
 4361TIP3    H113040   2.905   6.321   4.466 -0.0763  0.1927 -0.6073
 4361TIP3    H213041   2.991   6.364   4.582 -1.8036 -0.9560  1.1647
 4362TIP3   OH213042   4.480   7.649   1.089 -0.4296  0.2394  0.0725
 4362TIP3    H113043   4.457   7.576   1.146  0.1345  2.0601  2.8145
 4362TIP3    H213044   4.574   7.642   1.077 -0.6448 -0.5693 -1.3650
 4363TIP3   OH213045   4.423   0.102   5.486  0.1454  0.5824  0.2936
 4363TIP3    H113046   4.367   0.026   5.494  1.1742 -0.1044  1.1511
 4363TIP3    H213047   4.381   0.170   5.539 -0.6384  0.5589 -0.2756
 4364TIP3   OH213048   3.864   5.201   0.492 -0.1342  0.1476  0.0294
 4364TIP3    H113049   3.956   5.207   0.515  0.1553  0.4840 -1.1642
 4364TIP3    H213050   3.844   5.286   0.451 -1.5374  0.9644  2.1732
 4365TIP3   OH213051   2.302   3.211   1.256 -0.7146  0.6411 -0.0699
 4365TIP3    H113052   2.217   3.255   1.249 -0.2492  1.8377  1.2665
 4365TIP3    H213053   2.347   3.257   1.326  1.0245 -0.0234 -0.6903
 4366TIP3   OH213054   2.477   0.465   5.914 -0.1510  0.0683 -0.1882
 4366TIP3    H113055   2.389   0.486   5.944  0.5786  0.6125  1.6796
 4366TIP3    H213056   2.508   0.398   5.974  0.4855 -0.6118 -1.2440
 4367TIP3   OH213057   2.103   5.410   4.392 -0.2172 -0.1367  0.1752
 4367TIP3    H113058   2.045   5.383   4.320 -0.2201 -1.0437  0.5101
 4367TIP3    H213059   2.191   5.390   4.360 -0.1482  0.3811  0.0355
 4368TIP3   OH213060   0.253   4.920   4.195 -0.0639 -0.4213  0.7373
 4368TIP3    H113061   0.334   4.945   4.152 -0.5551  0.5015  0.3274
 4368TIP3    H213062   0.214   5.003   4.224 -0.2681 -0.9329  2.0110
 4369TIP3   OH213063   2.416   4.122   5.087  0.8877  0.2949 -0.2042
 4369TIP3    H113064   2.390   4.162   5.004 -0.0960  2.2334  0.9529
 4369TIP3    H213065   2.485   4.178   5.121  0.5980  0.1177  0.7290
 4370TIP3   OH213066   1.315   6.960   4.599  0.2077  0.6461 -0.6550
 4370TIP3    H113067   1.257   6.929   4.668  0.8546 -0.7985 -0.7055
 4370TIP3    H213068   1.358   6.880   4.567 -0.2352  1.2531 -2.8781
 4371TIP3   OH213069   0.644   1.569   1.389 -0.2167 -0.7272 -0.9708
 4371TIP3    H113070   0.598   1.539   1.467 -1.2050 -0.7905 -1.5667
 4371TIP3    H213071   0.692   1.492   1.359  0.6525 -0.5432 -0.0996
 4372TIP3   OH213072   6.811   5.226   3.381 -0.5777 -0.2776 -0.0878
 4372TIP3    H113073   6.874   5.162   3.346  0.1665 -0.1491  0.9685
 4372TIP3    H213074   6.725   5.187   3.362 -0.2244 -0.1856 -2.0612
 4373TIP3   OH213075   6.793   1.640   5.165 -0.2702  0.2880  0.1742
 4373TIP3    H113076   6.846   1.564   5.138 -1.0968 -0.2680  0.0734
 4373TIP3    H213077   6.856   1.712   5.172  0.3739 -0.1690 -0.7187
 4374TIP3   OH213078   2.435   7.345   6.350  0.0121 -0.1219  0.1934
 4374TIP3    H113079   2.509   7.364   6.408 -0.0583 -0.0590  0.2622
 4374TIP3    H213080   2.402   7.431   6.324  1.3144 -0.1115 -1.5758
 4375TIP3   OH213081   1.042   7.730   2.994  0.0489 -0.1117 -0.2574
 4375TIP3    H113082   0.950   7.704   2.997  0.0309 -0.0081  0.1827
 4375TIP3    H213083   1.060   7.745   2.902  0.1717 -2.0404 -0.5856
 4376TIP3   OH213084   7.015   2.661   0.191 -0.2740  0.1968 -0.3476
 4376TIP3    H113085   6.968   2.676   0.109  0.0837 -1.1865 -0.8304
 4376TIP3    H213086   6.976   2.722   0.253 -0.8469  0.9566 -1.4338
 4377TIP3   OH213087   5.854   4.506   6.323  0.1264 -0.0721  0.0729
 4377TIP3    H113088   5.761   4.505   6.345 -0.2518  1.6277 -1.2482
 4377TIP3    H213089   5.897   4.475   6.403 -1.4465  1.2623  1.5396
 4378TIP3   OH213090   6.600   5.712   0.982  0.1578 -0.3201 -0.3183
 4378TIP3    H113091   6.638   5.748   0.901 -1.0726  1.3497 -0.2070
 4378TIP3    H213092   6.518   5.671   0.954  0.4760 -1.1171 -0.1149
 4379TIP3   OH213093   4.149   0.421   2.867  0.3040 -0.1533 -1.0136
 4379TIP3    H113094   4.086   0.348   2.868  0.0447  0.0745 -0.6214
 4379TIP3    H213095   4.230   0.382   2.900  0.0008 -0.1204 -0.2172
 4380TIP3   OH213096   5.837   3.404   6.541 -0.0799 -0.8670  0.0383
 4380TIP3    H113097   5.904   3.401   6.473  0.0282 -1.7042  0.1707
 4380TIP3    H213098   5.770   3.342   6.512 -0.1061 -1.1129  0.6168
 4381TIP3   OH213099   6.371   1.941   6.404  0.1790  0.4523  0.2765
 4381TIP3    H113100   6.405   1.925   6.493  0.2558  1.1492  0.3809
 4381TIP3    H213101   6.449   1.962   6.353  0.3358 -1.4402 -0.3333
 4382TIP3   OH213102   6.475   5.305   2.949 -0.4262 -0.1297 -0.0222
 4382TIP3    H113103   6.451   5.241   2.883 -0.6372  0.9799 -1.0564
 4382TIP3    H213104   6.550   5.266   2.994  0.4361 -0.4387 -1.6658
 4383TIP3   OH213105   7.275   1.049   1.643  0.2055 -0.0112 -0.2632
 4383TIP3    H113106   7.295   0.974   1.587 -0.5429 -1.4040  1.2634
 4383TIP3    H213107   7.191   1.027   1.683  1.1166  0.5401  2.0741
 4384TIP3   OH213108   2.456   2.131   3.301  0.2663  0.4582  0.0923
 4384TIP3    H113109   2.496   2.078   3.232  0.9060  1.6290 -0.4849
 4384TIP3    H213110   2.388   2.182   3.256 -0.2477  0.2311  0.6012
 4385TIP3   OH213111   6.421   3.653   5.012  0.4617 -0.1297 -0.0965
 4385TIP3    H113112   6.491   3.589   4.999  0.3589 -0.3505  0.4042
 4385TIP3    H213113   6.393   3.640   5.103 -0.8153 -0.6550 -0.5304
 4386TIP3   OH213114   4.404   4.492   4.332  0.0641 -0.0644  0.0180
 4386TIP3    H113115   4.443   4.565   4.380  0.3547 -0.5705  0.5637
 4386TIP3    H213116   4.311   4.497   4.351  0.4089 -1.5704  2.4993
 4387TIP3   OH213117   2.543   1.513   3.239  0.6206 -0.2276  0.4724
 4387TIP3    H113118   2.467   1.456   3.226  0.8915 -1.2946  2.9151
 4387TIP3    H213119   2.505   1.598   3.261  0.1870 -0.0426 -0.9141
 4388TIP3   OH213120   4.093   7.227   3.113 -0.0275  0.2501 -0.7545
 4388TIP3    H113121   4.035   7.251   3.040  0.0325  0.0256 -0.8766
 4388TIP3    H213122   4.081   7.133   3.123 -2.5344  0.6595  1.6546
 4389TIP3   OH213123   3.446   3.748   4.704 -0.2436 -0.7812  0.0132
 4389TIP3    H113124   3.454   3.730   4.611  1.2403  1.1130 -0.3031
 4389TIP3    H213125   3.504   3.823   4.719  0.6754 -1.8708  2.7126
 4390TIP3   OH213126   5.730   2.567   4.105 -0.2018  0.4352 -0.4010
 4390TIP3    H113127   5.758   2.507   4.174  0.6658  0.7021 -0.5079
 4390TIP3    H213128   5.811   2.607   4.074 -0.8295  2.3067  0.2569
 4391TIP3   OH213129   2.719   4.375   2.486 -0.5441 -0.2876  0.1724
 4391TIP3    H113130   2.706   4.303   2.425  3.5656 -0.1267 -1.1587
 4391TIP3    H213131   2.691   4.453   2.438 -3.7293 -0.6810  1.1427
 4392TIP3   OH213132   2.869   2.265   2.129 -0.0969  0.2012 -0.1284
 4392TIP3    H113133   2.939   2.201   2.118 -1.7893 -1.8713  0.2794
 4392TIP3    H213134   2.879   2.296   2.220 -1.3977 -2.3950  1.0117
 4393TIP3   OH213135   0.940   3.371   1.787  0.2198 -0.0119 -0.3974
 4393TIP3    H113136   0.955   3.320   1.707 -3.8550  0.3945 -1.6908
 4393TIP3    H213137   0.937   3.462   1.756 -1.6036  0.1303  0.0832
 4394TIP3   OH213138   3.195   6.051   2.604 -0.4640 -0.0525 -0.7846
 4394TIP3    H113139   3.229   6.133   2.642 -2.3629 -0.1403  1.2863
 4394TIP3    H213140   3.141   6.079   2.531 -0.6702  0.5031 -0.4231
 4395TIP3   OH213141   3.201   6.194   3.012 -0.2268 -0.3208  0.4389
 4395TIP3    H113142   3.115   6.182   2.971 -0.0389 -0.7919  0.1673
 4395TIP3    H213143   3.214   6.113   3.062  1.9691 -2.4255 -3.0456
 4396TIP3   OH213144   4.801   3.713   5.612  0.0730  0.9581  0.3029
 4396TIP3    H113145   4.788   3.624   5.579  0.6151  1.1038 -0.3313
 4396TIP3    H213146   4.826   3.700   5.704 -0.1013  0.4702  0.2873
 4397TIP3   OH213147   7.674   1.997   6.317  0.7054 -0.4576  0.2718
 4397TIP3    H113148   7.684   2.091   6.334  0.3765 -0.3559 -0.0665
 4397TIP3    H213149   7.733   1.955   6.379 -0.1020 -0.0868  1.3056
 4398TIP3   OH213150   7.153   2.422   6.800 -0.4074 -0.4036 -0.1141
 4398TIP3    H113151   7.146   2.488   6.731  2.0679  1.3896  1.2184
 4398TIP3    H213152   7.203   2.350   6.761  2.3819  1.2724  0.1137
 4399TIP3   OH213153   6.471   4.246   3.220  0.1958  0.4794  0.0109
 4399TIP3    H113154   6.475   4.216   3.129 -1.0675  2.0889 -0.6222
 4399TIP3    H213155   6.536   4.193   3.266  1.3514  0.1031 -1.9553
 4400TIP3   OH213156   0.136   3.429   4.981  0.0633  0.2057 -0.2537
 4400TIP3    H113157   0.155   3.337   4.963  0.3072 -0.2877  2.1758
 4400TIP3    H213158   0.204   3.457   5.042  0.3047  2.1873 -1.3463
 4401TIP3   OH213159   1.125   5.564   1.884 -0.4383 -0.5004  0.3859
 4401TIP3    H113160   1.205   5.615   1.869 -1.2838  0.3818 -1.3862
 4401TIP3    H213161   1.097   5.590   1.972 -0.2122  1.2541 -0.0249
 4402TIP3   OH213162   4.603   6.965   3.866  0.0485  0.1786  0.0052
 4402TIP3    H113163   4.604   6.909   3.789  1.4466  0.2662 -0.0672
 4402TIP3    H213164   4.523   6.941   3.912  0.2285 -1.3270 -0.4165
 4403TIP3   OH213165   2.598   7.514   4.007  0.0895 -0.3611  0.3276
 4403TIP3    H113166   2.609   7.601   3.971  0.0633 -1.0216 -1.3725
 4403TIP3    H213167   2.670   7.463   3.970 -1.5142 -1.7352 -1.0546
 4404TIP3   OH213168   6.017   2.175   0.700 -0.1896 -0.0789 -0.4088
 4404TIP3    H113169   6.040   2.156   0.791 -1.3962 -2.5329 -0.5142
 4404TIP3    H213170   5.945   2.238   0.706 -0.9814 -1.0218  0.4270
 4405TIP3   OH213171   1.852   6.711   1.172  0.1615 -0.4719  0.2405
 4405TIP3    H113172   1.802   6.782   1.212  1.3480  0.5934 -0.0950
 4405TIP3    H213173   1.943   6.729   1.196  0.5977 -1.3426 -0.6676
 4406TIP3   OH213174   2.614   0.992   1.780 -0.4034 -0.1328  0.2911
 4406TIP3    H113175   2.538   1.040   1.814  0.1584  2.1760 -1.4875
 4406TIP3    H213176   2.679   1.060   1.763  0.4269 -1.4746 -2.4009
 4407TIP3   OH213177   3.740   0.509   3.247 -0.1779  0.2084  0.3912
 4407TIP3    H113178   3.672   0.445   3.226  1.8350 -2.7266  2.1788
 4407TIP3    H213179   3.723   0.533   3.338 -0.1069  1.2151  0.1506
 4408TIP3   OH213180   2.323   7.361   3.488 -0.5641  0.6374 -0.0145
 4408TIP3    H113181   2.335   7.455   3.473 -0.7197  0.4705 -1.2827
 4408TIP3    H213182   2.375   7.342   3.566  0.6920  1.4910 -0.6195
 4409TIP3   OH213183   7.772   5.150   3.583  0.1135  0.2455 -0.0172
 4409TIP3    H113184   7.715   5.099   3.526  0.7412  1.3212 -1.6774
 4409TIP3    H213185   7.860   5.139   3.545  0.4580  1.4291  0.4021
 4410TIP3   OH213186   2.189   3.956   2.595 -0.0876 -0.3426  0.1264
 4410TIP3    H113187   2.242   3.949   2.675 -0.4507  0.5395  0.4518
 4410TIP3    H213188   2.181   3.866   2.564 -2.5323 -1.1694  2.7847
 4411TIP3   OH213189   0.910   3.844   5.201 -0.0593 -0.0866  0.1754
 4411TIP3    H113190   0.835   3.805   5.246 -0.9729  1.5990  0.1971
 4411TIP3    H213191   0.892   3.829   5.108 -1.3110  1.7083  0.0760
 4412TIP3   OH213192   0.241   3.492   5.680  0.0603  0.3141  0.2752
 4412TIP3    H113193   0.308   3.453   5.735 -0.7394 -0.2779  0.8659
 4412TIP3    H213194   0.165   3.500   5.738 -0.7516 -0.1798 -0.6981
 4413TIP3   OH213195   5.792   6.073   0.593 -0.1843 -0.0283  0.3826
 4413TIP3    H113196   5.871   6.067   0.647  0.4420  0.1005 -0.4916
 4413TIP3    H213197   5.783   6.167   0.575 -1.6709  0.2152  2.0716
 4414TIP3   OH213198   1.699   5.716   5.967 -0.4282 -0.0909  0.7990
 4414TIP3    H113199   1.678   5.793   6.019 -0.7198 -1.1308  2.2787
 4414TIP3    H213200   1.615   5.676   5.947 -0.3989  0.7663 -1.3137
 4415TIP3   OH213201   2.801   5.479   5.319  0.4593 -0.3617  0.2797
 4415TIP3    H113202   2.870   5.472   5.253  0.4661  0.7079  0.1511
 4415TIP3    H213203   2.729   5.522   5.273  0.0909 -0.5176  0.7055
 4416TIP3   OH213204   4.591   6.562   3.090  0.5788  0.0369 -0.4665
 4416TIP3    H113205   4.587   6.582   2.996 -1.1137 -0.2946 -0.4953
 4416TIP3    H213206   4.647   6.630   3.127 -0.0915  1.1845 -1.4810
 4417TIP3   OH213207   5.983   5.718   4.245  0.8440 -1.0416  0.3565
 4417TIP3    H113208   5.897   5.697   4.283 -0.1777  1.7876 -0.1145
 4417TIP3    H213209   6.016   5.789   4.299  1.7547 -0.4633 -0.9073
 4418TIP3   OH213210   0.448   4.886   1.921 -0.1220  0.8978  0.2708
 4418TIP3    H113211   0.531   4.872   1.967  0.6722  2.5782 -0.5895
 4418TIP3    H213212   0.385   4.836   1.972  1.4464 -0.6808  0.7830
 4419TIP3   OH213213   6.201   3.707   6.509  0.2455  0.2960 -0.0777
 4419TIP3    H113214   6.211   3.622   6.552 -1.9528  1.6358  3.5145
 4419TIP3    H213215   6.225   3.690   6.417  1.1945 -3.8207  0.7102
 4420TIP3   OH213216   7.508   4.006   0.923  0.7229 -0.1377 -0.2213
 4420TIP3    H113217   7.512   3.947   0.847 -1.4532 -0.3003 -0.2669
 4420TIP3    H213218   7.543   4.089   0.890  1.0057 -0.5600 -1.0202
 4421TIP3   OH213219   5.396   4.881   3.808  0.0872  0.3549  0.5384
 4421TIP3    H113220   5.426   4.906   3.720 -0.2965 -1.3582 -0.1074
 4421TIP3    H213221   5.470   4.832   3.845 -0.8734 -1.6165 -0.0541
 4422TIP3   OH213222   1.784   7.786   5.163 -0.0205  0.5130  0.2969
 4422TIP3    H113223   1.690   7.792   5.143  0.1581 -0.2144 -0.8762
 4422TIP3    H213224   1.790   7.716   5.228 -0.2271 -0.0458 -0.2698
 4423TIP3   OH213225   2.287   4.517   6.104  0.2260 -0.4552 -0.0985
 4423TIP3    H113226   2.215   4.461   6.075 -1.7521  0.9135  1.9135
 4423TIP3    H213227   2.289   4.507   6.199  1.7708  0.6487  0.0183
 4424TIP3   OH213228   6.005   2.186   1.256  0.0607 -0.0177 -0.0092
 4424TIP3    H113229   6.064   2.255   1.228 -0.5931 -0.5464 -3.0079
 4424TIP3    H213230   5.920   2.230   1.266 -0.2262 -0.2310 -1.3364
 4425TIP3   OH213231   5.954   0.698   6.073  0.1959 -0.3223  0.5443
 4425TIP3    H113232   5.907   0.764   6.124 -0.3639 -0.7696  0.6190
 4425TIP3    H213233   5.983   0.744   5.994 -2.5279 -0.5948 -0.7300
 4426TIP3   OH213234   4.751   2.033   4.401 -0.4544 -0.0133 -0.4974
 4426TIP3    H113235   4.677   1.977   4.379 -0.9679  0.4186  0.0801
 4426TIP3    H213236   4.765   2.020   4.495  0.1991 -0.0851 -0.5989
 4427TIP3   OH213237   4.023   6.158   0.629 -0.0675 -0.4818 -0.2279
 4427TIP3    H113238   4.020   6.094   0.558  0.3649 -1.0924  0.2930
 4427TIP3    H213239   3.963   6.227   0.601  0.2794 -0.5935 -1.2926
 4428TIP3   OH213240   3.280   0.820   2.940 -0.0504  0.0219 -0.0178
 4428TIP3    H113241   3.246   0.778   3.019  1.4271 -1.6163 -0.2062
 4428TIP3    H213242   3.215   0.887   2.919 -0.6623  0.2695  2.3672
 4429TIP3   OH213243   0.944   0.352   3.113  0.4428  0.3371  0.4598
 4429TIP3    H113244   0.971   0.271   3.069 -0.1421  1.3464 -1.8481
 4429TIP3    H213245   0.849   0.347   3.117  0.4791  0.2418  1.7412
 4430TIP3   OH213246   6.108   4.011   6.474  0.0360  0.6029  0.4188
 4430TIP3    H113247   6.045   3.994   6.404  0.4467  0.6965  0.0223
 4430TIP3    H213248   6.109   4.106   6.482  1.4589  0.7252 -0.8298
 4431TIP3   OH213249   7.736   0.746   3.871 -0.1450  0.3000 -0.4065
 4431TIP3    H113250   7.687   0.708   3.944 -1.6456 -1.6335 -2.2990
 4431TIP3    H213251   7.815   0.781   3.912 -0.2265 -1.9566  1.9799
 4432TIP3   OH213252   5.661   4.192   5.068  0.4632  0.2410 -0.0665
 4432TIP3    H113253   5.567   4.209   5.065  0.5416  0.5428 -2.2915
 4432TIP3    H213254   5.675   4.150   5.153 -1.9231 -1.1758 -0.2766
 4433TIP3   OH213255   0.331   7.790   4.843 -0.0918  0.1439 -0.2533
 4433TIP3    H113256   0.241   7.808   4.868 -0.4412  0.0777 -1.4021
 4433TIP3    H213257   0.367   7.741   4.917 -0.8254  0.6408  0.4506
 4434TIP3   OH213258   2.580   2.702   4.770 -0.0645 -0.1718  0.6194
 4434TIP3    H113259   2.617   2.643   4.835  2.2095 -0.7472 -1.0984
 4434TIP3    H213260   2.640   2.777   4.768 -0.3150  0.0145 -0.5319
 4435TIP3   OH213261   6.673   7.344   3.982 -0.5052  0.3709 -0.2955
 4435TIP3    H113262   6.637   7.384   4.061  0.0765  1.2668 -0.4708
 4435TIP3    H213263   6.737   7.281   4.013 -0.0001  0.9959 -0.0453
 4436TIP3   OH213264   6.501   0.430   1.244 -0.6632 -0.0839 -0.1252
 4436TIP3    H113265   6.492   0.344   1.286  1.2632 -1.2086 -1.8362
 4436TIP3    H213266   6.427   0.434   1.182 -0.3053 -0.8955 -0.6193
 4437TIP3   OH213267   5.511   7.474   4.070 -0.1247  0.5310  0.0598
 4437TIP3    H113268   5.530   7.557   4.026  0.0359 -0.0045 -0.9173
 4437TIP3    H213269   5.438   7.493   4.129 -0.3138  1.2847 -0.4163
 4438TIP3   OH213270   2.865   7.781   2.371  0.0776 -0.2846  0.3236
 4438TIP3    H113271   2.918   7.776   2.450  0.3251 -0.1454  0.1673
 4438TIP3    H213272   2.803   7.708   2.379  1.4130 -1.5508 -0.3172
 4439TIP3   OH213273   0.099   4.780   1.723  0.2983 -0.7507 -0.6848
 4439TIP3    H113274   0.115   4.863   1.768 -2.2827 -1.3195  1.6327
 4439TIP3    H213275   0.080   4.804   1.633 -1.2249  1.3499  0.1197
 4440TIP3   OH213276   1.810   5.986   4.681 -0.3911  0.0771  0.1237
 4440TIP3    H113277   1.851   5.961   4.598  0.2980  2.0464 -0.1683
 4440TIP3    H213278   1.807   6.081   4.679 -1.1365  0.1301  2.0080
 4441TIP3   OH213279   5.917   4.610   3.368 -0.6059  0.2322  0.2678
 4441TIP3    H113280   5.949   4.520   3.365 -1.2548  0.0002  0.2061
 4441TIP3    H213281   5.918   4.640   3.277  0.3231  0.5536  0.3668
 4442TIP3   OH213282   4.650   1.027   0.749  0.1041 -0.3060  0.7079
 4442TIP3    H113283   4.612   0.993   0.830 -0.7743  0.4783  0.6370
 4442TIP3    H213284   4.698   0.953   0.712 -2.5971 -1.8442  0.0086
 4443TIP3   OH213285   0.330   5.816   0.993 -0.2273  0.2444 -0.3962
 4443TIP3    H113286   0.327   5.781   0.904 -0.5471 -1.9561  0.4194
 4443TIP3    H213287   0.401   5.769   1.035 -0.0541  1.2825  0.5303
 4444TIP3   OH213288   5.830   3.488   3.822 -0.1616  0.0550  0.3716
 4444TIP3    H113289   5.852   3.395   3.827 -0.7216 -0.1698 -0.8743
 4444TIP3    H213290   5.737   3.490   3.801 -0.1021  0.8871  0.1126
 4445TIP3   OH213291   0.696   4.071   6.209  0.0901 -0.5124 -0.0286
 4445TIP3    H113292   0.686   4.023   6.291  1.0151  1.5039  1.3584
 4445TIP3    H213293   0.618   4.127   6.205 -0.9016 -1.9384 -1.5399
 4446TIP3   OH213294   3.832   7.625   3.148  0.0547 -0.1849  0.2284
 4446TIP3    H113295   3.874   7.648   3.230  0.8692  2.8900 -0.9301
 4446TIP3    H213296   3.743   7.661   3.155 -0.7246 -2.0446  0.6208
 4447TIP3   OH213297   0.784   5.212   4.500 -0.4369 -0.2697 -0.1030
 4447TIP3    H113298   0.810   5.120   4.492 -1.1568 -0.8244  2.9098
 4447TIP3    H213299   0.866   5.260   4.509 -0.1208 -0.7760 -0.2349
 4448TIP3   OH213300   4.193   4.583   2.835  0.2131  0.1633 -0.3256
 4448TIP3    H113301   4.227   4.542   2.914  1.7444  1.2494 -0.3786
 4448TIP3    H213302   4.103   4.606   2.857  0.7140  0.7797  1.2564
 4449TIP3   OH213303   4.663   4.231   1.216  0.8575 -0.4794  0.7856
 4449TIP3    H113304   4.675   4.198   1.127  0.6679  1.3068  0.0541
 4449TIP3    H213305   4.740   4.201   1.263  0.2732 -2.6951  0.4483
 4450TIP3   OH213306   6.979   3.237   4.363  0.6897 -0.2540  0.3104
 4450TIP3    H113307   6.982   3.197   4.450  1.4520  0.6525  0.7303
 4450TIP3    H213308   7.070   3.264   4.347  0.3943  0.3418 -0.3949
 4451TIP3   OH213309   1.100   5.074   2.567 -0.9551 -0.4665 -0.2517
 4451TIP3    H113310   1.152   5.017   2.623 -0.7203 -0.9790 -0.9633
 4451TIP3    H213311   1.127   5.163   2.590 -1.7248 -0.6039  1.2638
 4452TIP3   OH213312   5.484   3.938   6.220 -0.0100  0.1214 -0.2399
 4452TIP3    H113313   5.564   3.981   6.191 -0.0849 -0.1438 -0.8455
 4452TIP3    H213314   5.470   3.868   6.156 -0.6312  0.0561 -0.0343
 4453TIP3   OH213315   2.708   6.367   5.190 -0.0149  0.0003 -0.2537
 4453TIP3    H113316   2.792   6.381   5.146 -0.0223  2.3625  0.3387
 4453TIP3    H213317   2.725   6.388   5.281 -1.5370  2.0744 -0.3694
 4454TIP3   OH213318   8.315   5.835   5.119 -0.2051  0.4907 -0.0142
 4454TIP3    H113319   8.284   5.822   5.029  1.2987  0.5301 -0.5754
 4454TIP3    H213320   8.240   5.812   5.174 -0.9947 -0.0395 -1.2658
 4455TIP3   OH213321   5.638   3.367   3.395 -0.7877  0.4271  0.8372
 4455TIP3    H113322   5.727   3.333   3.393 -1.1247 -0.5124  1.4323
 4455TIP3    H213323   5.582   3.291   3.411 -1.8943  0.6632 -1.3863
 4456TIP3   OH213324   3.182   3.052   1.648  0.2149  0.1558  0.0234
 4456TIP3    H113325   3.145   2.964   1.646 -0.1712  0.2800  1.1643
 4456TIP3    H213326   3.140   3.095   1.722  1.6633  0.7407  0.5492
 4457TIP3   OH213327   5.993   3.269   1.809 -0.0623  0.6432 -0.5913
 4457TIP3    H113328   5.944   3.199   1.767 -0.5394 -0.0641  1.0597
 4457TIP3    H213329   6.074   3.228   1.838  0.6576  1.3356 -1.5745
 4458TIP3   OH213330   7.219   4.971   1.929 -0.0288  0.3578 -0.1187
 4458TIP3    H113331   7.153   4.932   1.987 -0.4834 -0.5127 -1.1941
 4458TIP3    H213332   7.176   4.977   1.844  0.3332  2.4502 -0.2086
 4459TIP3   OH213333   6.405   7.682   1.814 -0.3815 -0.3377  0.2941
 4459TIP3    H113334   6.376   7.644   1.731 -1.2192 -0.9762  0.8617
 4459TIP3    H213335   6.424   7.606   1.870  0.1641  0.0818  0.6951
 4460TIP3   OH213336   4.468   4.645   5.929 -0.7074  0.5832  0.3728
 4460TIP3    H113337   4.383   4.619   5.964 -1.0627  0.7143 -0.3706
 4460TIP3    H213338   4.463   4.625   5.836  0.4454 -0.3219  0.4886
 4461TIP3   OH213339   3.996   7.536   5.311 -0.5191  0.6999  0.2006
 4461TIP3    H113340   3.946   7.498   5.383 -0.6441 -1.0941 -0.7428
 4461TIP3    H213341   4.064   7.589   5.353 -1.9672  1.5710  1.5458
 4462TIP3   OH213342   3.086   6.360   1.318  0.4253  0.5142 -0.0719
 4462TIP3    H113343   3.011   6.373   1.260  1.7581  0.1215 -1.9857
 4462TIP3    H213344   3.067   6.413   1.395 -1.6956  0.5965 -0.5952
 4463TIP3   OH213345   7.184   1.208   4.055  0.7777 -0.0896  0.0390
 4463TIP3    H113346   7.113   1.242   4.110  1.2165 -0.6429  0.9752
 4463TIP3    H213347   7.225   1.286   4.017  0.8888  0.3465  1.0353
 4464TIP3   OH213348   2.761   4.437   6.247 -0.5380  0.1887  0.1344
 4464TIP3    H113349   2.721   4.434   6.334 -2.1601  2.3168 -0.4770
 4464TIP3    H213350   2.692   4.410   6.187 -0.3925  1.6062 -0.7237
 4465TIP3   OH213351   3.464   4.336   3.781 -0.3175  0.1674 -0.8638
 4465TIP3    H113352   3.506   4.395   3.844  0.6319 -0.8128 -0.5566
 4465TIP3    H213353   3.383   4.308   3.824 -0.9812  1.5173 -1.1688
 4466TIP3   OH213354   5.316   2.136   5.459 -0.4684  0.4942 -0.0398
 4466TIP3    H113355   5.310   2.181   5.375 -2.2470  0.5959  0.1036
 4466TIP3    H213356   5.341   2.204   5.522  1.1165  0.3663 -0.4927
 4467TIP3   OH213357   4.235   2.081   3.110  0.2080  1.0339 -0.1661
 4467TIP3    H113358   4.301   2.103   3.176  1.5525  0.0624 -1.1162
 4467TIP3    H213359   4.203   2.165   3.078 -0.4773  1.5144  1.7029
 4468TIP3   OH213360   3.046   2.622   0.474 -0.1900 -0.6559  0.1840
 4468TIP3    H113361   3.087   2.642   0.559 -1.2069 -2.0024  1.0399
 4468TIP3    H213362   3.115   2.580   0.424 -0.1405 -1.7929  1.1611
 4469TIP3   OH213363   0.510   4.604   2.783  0.1030  0.3183 -0.0739
 4469TIP3    H113364   0.550   4.691   2.784 -0.9282  0.8104  0.1171
 4469TIP3    H213365   0.584   4.543   2.783  0.8366  1.1891  0.0729
 4470TIP3   OH213366   7.532   4.153   5.302  0.2842 -0.0063  0.9647
 4470TIP3    H113367   7.476   4.211   5.355  1.6076 -0.1553  2.5955
 4470TIP3    H213368   7.479   4.075   5.288 -0.2849  0.2418  1.6660
 4471TIP3   OH213369   5.838   5.022   3.330 -0.6821  0.3001 -0.0557
 4471TIP3    H113370   5.871   5.097   3.280 -1.7984 -0.0292 -1.3562
 4471TIP3    H213371   5.889   5.023   3.411  1.5742  0.5727 -1.3756
 4472TIP3   OH213372   0.524   1.991   1.397  0.0703  0.1629  0.3596
 4472TIP3    H113373   0.600   1.934   1.386 -0.6685 -0.8487  0.3444
 4472TIP3    H213374   0.517   2.004   1.491  0.6008  0.7521  0.3261
 4473TIP3   OH213375   2.646   4.259   5.350 -0.3724 -0.1493  0.3464
 4473TIP3    H113376   2.601   4.174   5.349 -1.4146  0.3555 -1.4904
 4473TIP3    H213377   2.577   4.322   5.328  0.5061  1.1200  1.1190
 4474TIP3   OH213378   7.721   5.996   3.620  0.3530  0.0122  0.3421
 4474TIP3    H113379   7.660   6.062   3.589  1.5719  0.4297 -1.2804
 4474TIP3    H213380   7.665   5.930   3.662 -1.1383  0.6953 -0.4894
 4475TIP3   OH213381   0.085   3.020   0.854 -0.4450 -0.4107  0.1256
 4475TIP3    H113382   0.140   3.044   0.929  0.8281 -1.4751 -0.4263
 4475TIP3    H213383   0.131   3.057   0.778 -2.2169  1.4983 -0.1130
 4476TIP3   OH213384   3.477   5.239   1.451  0.6243  0.0741 -0.0721
 4476TIP3    H113385   3.382   5.252   1.458  0.2537 -1.5677 -1.2217
 4476TIP3    H213386   3.500   5.191   1.530  0.4321  0.1856  0.0529
 4477TIP3   OH213387   1.777   4.162   2.096 -0.6435  0.1882 -0.1549
 4477TIP3    H113388   1.834   4.168   2.172 -1.2610  1.0260  0.2577
 4477TIP3    H213389   1.740   4.074   2.101 -0.0187 -0.0709  0.0207
 4478TIP3   OH213390   0.714   7.026   2.770  0.2913 -0.3191  0.4816
 4478TIP3    H113391   0.751   7.092   2.712 -0.4752 -1.3255 -1.2284
 4478TIP3    H213392   0.780   6.956   2.771  0.3470 -0.2597  0.9135
 4479TIP3   OH213393   7.159   0.259   4.181  0.4636 -0.1419 -0.1693
 4479TIP3    H113394   7.144   0.168   4.205 -1.4145 -0.1700 -1.2510
 4479TIP3    H213395   7.107   0.310   4.243  1.3516  0.2014  0.3113
 4480TIP3   OH213396   6.908   6.376   3.452  0.3027 -0.2873 -0.1571
 4480TIP3    H113397   6.846   6.418   3.392  1.0603  0.8788 -0.1587
 4480TIP3    H213398   6.874   6.287   3.464 -1.5059  0.3973  0.0442
 4481TIP3   OH213399   5.626   2.770   5.504 -0.4089 -0.3686  0.8847
 4481TIP3    H113400   5.644   2.856   5.544 -1.6634 -0.5574  1.9152
 4481TIP3    H213401   5.600   2.715   5.578 -2.8927 -0.7311 -0.1845
 4482TIP3   OH213402   7.583   4.776   2.401 -0.5537 -0.2974 -0.5262
 4482TIP3    H113403   7.668   4.739   2.380  0.1052  0.9034 -0.0715
 4482TIP3    H213404   7.581   4.781   2.496 -1.5576 -1.2322 -0.4721
 4483TIP3   OH213405   3.481   6.688   0.477  0.0170 -0.5690 -0.2257
 4483TIP3    H113406   3.455   6.723   0.392  0.6510 -3.2321 -1.6104
 4483TIP3    H213407   3.560   6.637   0.459  1.6802  0.8303  2.4542
 4484TIP3   OH213408   4.149   6.070   4.697 -0.4861 -0.1226 -0.0324
 4484TIP3    H113409   4.088   6.143   4.691  0.2407  0.4184 -1.5736
 4484TIP3    H213410   4.127   6.025   4.778 -1.5454  1.2751  0.4768
 4485TIP3   OH213411   5.820   2.057   4.862  0.1842 -0.3928 -0.0306
 4485TIP3    H113412   5.789   2.136   4.907  0.3215  0.0215 -0.6533
 4485TIP3    H213413   5.908   2.043   4.896 -0.1614 -0.7931  0.7344
 4486TIP3   OH213414   0.729   1.161   4.351  0.5744  0.0814 -0.2360
 4486TIP3    H113415   0.817   1.197   4.338  1.1684 -0.8740  0.9724
 4486TIP3    H213416   0.699   1.139   4.263  2.6621 -2.0929 -0.5155
 4487TIP3   OH213417   1.112   0.969   3.526 -0.2243 -0.0202 -0.1330
 4487TIP3    H113418   1.131   0.891   3.475 -1.0067 -0.7994  0.7238
 4487TIP3    H213419   1.102   1.038   3.461  0.8599 -0.5353 -0.8762
 4488TIP3   OH213420   3.825   4.164   5.117  0.6287 -0.5573 -0.4947
 4488TIP3    H113421   3.844   4.157   5.210 -1.1044  0.9948  0.0325
 4488TIP3    H213422   3.821   4.258   5.100 -2.7509 -0.6861 -1.2273
 4489TIP3   OH213423   2.794   5.844   2.760 -0.0673  0.5529  0.4377
 4489TIP3    H113424   2.806   5.857   2.666 -1.5308 -0.5632  0.0486
 4489TIP3    H213425   2.875   5.875   2.799  0.5225  1.1784 -1.1783
 4490TIP3   OH213426   5.692   0.393   5.306 -0.4095  0.0562 -0.1597
 4490TIP3    H113427   5.772   0.355   5.342 -1.1190  0.1736  1.6681
 4490TIP3    H213428   5.702   0.387   5.211  1.6751 -0.0856  0.0384
 4491TIP3   OH213429   7.043   3.332   2.154  0.4608  0.1466  0.2795
 4491TIP3    H113430   6.969   3.369   2.201  1.2822 -0.2663  1.9515
 4491TIP3    H213431   7.091   3.408   2.120  0.3110  0.4800  0.8186
 4492TIP3   OH213432   4.301   0.901   1.219  0.1288  0.5518  0.1867
 4492TIP3    H113433   4.294   0.821   1.271 -1.0902  0.6479  0.2082
 4492TIP3    H213434   4.337   0.966   1.279 -1.0275  0.6007  0.8577
 4493TIP3   OH213435   6.056   2.055   5.753  0.4307 -0.3358 -0.1771
 4493TIP3    H113436   6.090   2.001   5.682  0.4051 -0.6666  0.0615
 4493TIP3    H213437   5.991   2.111   5.711 -2.3001 -3.0185  0.1290
 4494TIP3   OH213438   5.375   3.885   3.019  0.1252  0.4783  0.1414
 4494TIP3    H113439   5.386   3.882   3.114  1.0785  0.9686  0.0695
 4494TIP3    H213440   5.380   3.979   2.998  0.1412  0.3557 -0.4111
 4495TIP3   OH213441   1.546   2.082   3.455  0.1568 -0.1590  0.2875
 4495TIP3    H113442   1.567   2.127   3.373  1.4985 -0.7335  0.2943
 4495TIP3    H213443   1.591   2.132   3.523 -0.8397  0.2376  0.6815
 4496TIP3   OH213444   0.929   0.345   2.765 -0.4933  0.0411 -0.2555
 4496TIP3    H113445   0.891   0.417   2.714  1.5309  0.6125 -1.0479
 4496TIP3    H213446   0.853   0.295   2.796 -1.8564  0.7922 -2.1886
 4497TIP3   OH213447   1.492   4.874   4.965  1.3801 -0.4130 -0.5243
 4497TIP3    H113448   1.504   4.919   5.049  0.2947 -1.3358  0.1568
 4497TIP3    H213449   1.544   4.794   4.972  1.0378 -0.6454 -0.5993
 4498TIP3   OH213450   0.794   5.713   1.152  0.0111  0.3933  0.1533
 4498TIP3    H113451   0.838   5.703   1.237  2.1643 -1.2186 -1.0240
 4498TIP3    H213452   0.788   5.623   1.118 -2.4741  0.7965 -0.6611
 4499TIP3   OH213453   7.795   2.646   4.103  0.0592 -0.6364 -0.0947
 4499TIP3    H113454   7.778   2.738   4.083  0.5981 -0.8537 -1.6626
 4499TIP3    H213455   7.828   2.647   4.193  1.2609  0.8357 -0.5147
 4500TIP3   OH213456   4.461   6.207   5.292 -0.0986  0.1509  0.0258
 4500TIP3    H113457   4.525   6.154   5.340 -0.2830  0.8082  1.0252
 4500TIP3    H213458   4.490   6.297   5.304  0.9931  0.2679 -2.8154
 4501TIP3   OH213459   1.863   2.081   2.368 -0.2848 -0.6422 -0.2419
 4501TIP3    H113460   1.882   1.992   2.340  1.1722 -0.5947  0.5065
 4501TIP3    H213461   1.930   2.101   2.433 -0.5311  1.0242 -0.4408
 4502TIP3   OH213462   0.204   4.312   1.139 -0.2808  0.4358  0.1158
 4502TIP3    H113463   0.143   4.323   1.066 -2.1308 -0.6899  1.4100
 4502TIP3    H213464   0.148   4.316   1.217  1.2796 -0.8415  1.3469
 4503TIP3   OH213465   0.831   3.396   4.781  0.9069  0.1477  0.0839
 4503TIP3    H113466   0.801   3.470   4.834  0.9824  0.3478 -0.1515
 4503TIP3    H213467   0.752   3.347   4.763  0.5595  1.1399 -1.2613
 4504TIP3   OH213468   6.947   0.682   6.095 -0.0399  0.1280  0.3982
 4504TIP3    H113469   6.941   0.628   6.016 -0.3634  0.0721  0.4605
 4504TIP3    H213470   6.898   0.761   6.075  0.6994  0.5444  0.1932
 4505TIP3   OH213471   2.719   4.604   1.144 -0.0931  0.3126 -0.3236
 4505TIP3    H113472   2.740   4.570   1.231  1.2724 -0.4640 -0.9217
 4505TIP3    H213473   2.800   4.593   1.094 -1.4447 -1.3088 -2.3242
 4506TIP3   OH213474   4.941   7.229   3.377  0.9530  0.3377  0.3049
 4506TIP3    H113475   4.862   7.242   3.428  1.1458  1.2526  0.3789
 4506TIP3    H213476   5.012   7.262   3.432  1.6393 -2.0251  0.9747
 4507TIP3   OH213477   7.492   5.187   1.344  0.8497 -0.0748  0.6809
 4507TIP3    H113478   7.541   5.109   1.371  0.4113 -0.9567 -0.9035
 4507TIP3    H213479   7.555   5.239   1.294  0.5765 -0.5144 -0.1420
 4508TIP3   OH213480   5.296   7.685   2.747  0.2339 -0.0345  0.4626
 4508TIP3    H113481   5.358   7.740   2.700  0.8715 -0.0138  1.2997
 4508TIP3    H213482   5.243   7.746   2.797 -0.7575 -0.0243 -0.5735
 4509TIP3   OH213483   4.192   0.641   1.124  0.3760  0.5775  0.4973
 4509TIP3    H113484   4.250   0.638   1.200  0.9540  1.0923  0.0914
 4509TIP3    H213485   4.110   0.677   1.158 -0.1488 -1.3233  1.3338
 4510TIP3   OH213486   0.558   3.331   5.188 -0.1892  0.0695 -0.1146
 4510TIP3    H113487   0.489   3.393   5.163  0.1399  0.7567  0.6239
 4510TIP3    H213488   0.606   3.376   5.258  1.6719  0.0557 -1.3117
 4511TIP3   OH213489   3.694   2.373   3.695  0.0172  0.2250 -0.6761
 4511TIP3    H113490   3.599   2.381   3.705 -0.3752 -1.1914 -2.6906
 4511TIP3    H213491   3.724   2.462   3.673 -0.8629  0.6173 -0.3325
 4512TIP3   OH213492   2.340   7.003   2.578  0.1044  0.3802 -0.0684
 4512TIP3    H113493   2.358   7.038   2.665  0.2622  3.1467 -1.0934
 4512TIP3    H213494   2.245   7.015   2.566  0.0069 -0.4101 -0.1177
 4513TIP3   OH213495   4.428   0.023   1.249  0.3874 -0.2666 -0.4105
 4513TIP3    H113496   4.376   0.079   1.192  0.1198  0.6251  0.6677
 4513TIP3    H213497   4.364  -0.023   1.303  0.6657 -0.5012 -0.2721
 4514TIP3   OH213498   0.468   3.183   2.892 -0.0234  0.4666  0.5940
 4514TIP3    H113499   0.391   3.145   2.934 -1.8124  1.2367 -1.8332
 4514TIP3    H213500   0.506   3.111   2.842 -0.0808  0.4710  0.5441
 4515TIP3   OH213501   4.572   3.246   0.262 -0.4006 -0.4292 -0.3105
 4515TIP3    H113502   4.572   3.323   0.206  1.5468  0.7878  1.2206
 4515TIP3    H213503   4.616   3.179   0.211  0.8052  0.4758 -0.4893
 4516TIP3   OH213504   3.002   0.298   1.555  0.1684  0.1981  0.8787
 4516TIP3    H113505   3.082   0.322   1.601 -0.4930  1.0160  1.6415
 4516TIP3    H213506   3.003   0.350   1.475 -0.0275  0.9133  1.3258
 4517TIP3   OH213507   6.903   6.776   4.040  0.2084  0.3542  0.1259
 4517TIP3    H113508   6.969   6.712   4.064 -0.6658 -0.2592  0.9788
 4517TIP3    H213509   6.850   6.733   3.973  0.2321  0.5701 -0.0336
 4518TIP3   OH213510   4.916   1.123   2.782  0.1540  0.0163  0.1695
 4518TIP3    H113511   4.904   1.049   2.721 -0.8275 -1.3666  1.9411
 4518TIP3    H213512   4.849   1.109   2.849  2.3693  0.3707  2.6020
 4519TIP3   OH213513   2.817   0.343   4.836  0.3060  0.1002  0.2498
 4519TIP3    H113514   2.887   0.395   4.875  1.2565 -1.7593  1.1808
 4519TIP3    H213515   2.761   0.406   4.792  1.4568  1.8587  1.2137
 4520TIP3   OH213516   5.463   6.818   5.142  0.2324 -0.7312 -0.0899
 4520TIP3    H113517   5.394   6.878   5.114 -0.1988 -1.4869 -0.6852
 4520TIP3    H213518   5.430   6.779   5.223  0.4326 -0.2992  0.1987
 4521TIP3   OH213519   2.101   4.880   0.916 -0.9339  0.1354 -0.1544
 4521TIP3    H113520   2.110   4.922   1.001 -0.6161  0.9179 -0.5644
 4521TIP3    H213521   2.104   4.786   0.935  1.3900  0.2654  0.4912
 4522TIP3   OH213522   5.262   3.870   5.092 -0.3934  0.1876 -0.6962
 4522TIP3    H113523   5.303   3.785   5.078 -1.7550 -0.5582 -0.3190
 4522TIP3    H213524   5.184   3.869   5.036 -1.2057  0.5996  0.3925
 4523TIP3   OH213525   2.008   0.640   0.636  0.0135  0.1379 -0.7618
 4523TIP3    H113526   2.093   0.659   0.596 -0.0623  1.6204 -0.2709
 4523TIP3    H213527   2.021   0.656   0.729 -0.3557 -1.3495 -0.4223
 4524TIP3   OH213528   0.162   4.939   5.208 -0.0962  0.5795 -0.0589
 4524TIP3    H113529   0.209   4.984   5.138 -1.9432  2.6494 -0.0601
 4524TIP3    H213530   0.160   5.001   5.280 -0.9709 -0.2864  0.6981
 4525TIP3   OH213531   7.798   7.282   5.514  0.0191  0.0611  0.3366
 4525TIP3    H113532   7.882   7.270   5.469  0.0826  0.7084  0.2622
 4525TIP3    H213533   7.810   7.363   5.564 -0.8783  0.6657 -0.4053
 4526TIP3   OH213534   5.251   3.370   4.824 -0.4118 -0.0204 -0.5432
 4526TIP3    H113535   5.275   3.306   4.757  0.1882 -0.3095 -0.0686
 4526TIP3    H213536   5.203   3.318   4.889 -0.4638  0.1352 -0.4577
 4527TIP3   OH213537   6.259   7.387   5.327 -0.5484 -0.1075 -0.2667
 4527TIP3    H113538   6.242   7.355   5.415  0.2942  0.1588 -0.0052
 4527TIP3    H213539   6.205   7.466   5.320  0.6148  0.7956  0.6002
 4528TIP3   OH213540   1.535   7.658   5.470  0.2618 -0.0259  0.4675
 4528TIP3    H113541   1.471   7.587   5.465  0.0095  0.2696 -0.8174
 4528TIP3    H213542   1.614   7.616   5.506 -0.3487 -0.5952  1.1749
 4529TIP3   OH213543   1.190   1.869   4.924  0.2733  0.1058 -0.1172
 4529TIP3    H113544   1.239   1.951   4.915 -1.4064  1.2839  0.7808
 4529TIP3    H213545   1.244   1.803   4.881  1.0166  1.9400 -2.1467
 4530TIP3   OH213546   3.243   7.506   4.371  0.0441  0.2741 -0.6464
 4530TIP3    H113547   3.304   7.432   4.369 -0.7641 -0.5126  1.5761
 4530TIP3    H213548   3.299   7.583   4.370  1.0800 -0.4290  0.6707
 4531TIP3   OH213549   4.466   6.817   6.578 -0.0649  0.1013 -0.2136
 4531TIP3    H113550   4.439   6.902   6.543 -1.6908  0.3354  1.4975
 4531TIP3    H213551   4.396   6.791   6.638  1.0170 -1.8509  0.3140
 4532TIP3   OH213552   7.106   5.573   4.052 -0.5913 -0.2385  0.0459
 4532TIP3    H113553   7.162   5.500   4.075  1.1332  0.2802 -2.2401
 4532TIP3    H213554   7.018   5.535   4.046  0.4482 -2.4912 -2.4792
 4533TIP3   OH213555   8.293   6.390   0.194  0.0453 -0.0277 -0.0742
 4533TIP3    H113556   8.336   6.343   0.123  0.6577 -3.1674  2.2014
 4533TIP3    H213557   8.230   6.328   0.230 -0.6341  1.6370  1.7922
 4534TIP3   OH213558   5.497   3.173   4.867 -0.0622  0.1026  0.0421
 4534TIP3    H113559   5.516   3.154   4.776 -1.1402  0.1932 -0.2199
 4534TIP3    H213560   5.500   3.269   4.873 -1.3185  0.1693 -0.2222
 4535TIP3   OH213561   7.862   6.396   6.141  0.2366  0.1964  0.6382
 4535TIP3    H113562   7.798   6.446   6.089  0.2745 -1.2980 -0.9444
 4535TIP3    H213563   7.839   6.414   6.232 -2.3856 -0.2071  0.1281
 4536TIP3   OH213564   0.969   1.686   4.872  0.3104  0.5823  0.4400
 4536TIP3    H113565   0.998   1.776   4.885 -0.8081  0.8180  1.4122
 4536TIP3    H213566   0.877   1.686   4.899  0.0325 -0.6466 -0.4202
 4537TIP3   OH213567   7.069   4.365   2.690 -0.6372  0.7791  0.3959
 4537TIP3    H113568   7.122   4.325   2.759 -1.2060  1.4624  1.2593
 4537TIP3    H213569   7.116   4.446   2.668 -0.0321  0.1747 -0.6139
 4538TIP3   OH213570   3.207   0.016   5.663 -0.4759  0.4754  0.2368
 4538TIP3    H113571   3.228   0.021   5.756  0.7413  2.8301 -0.0743
 4538TIP3    H213572   3.278   0.064   5.620 -0.8635 -0.7666 -1.9436
 4539TIP3   OH213573   6.073   0.750   2.839 -0.3070  0.2050 -0.0154
 4539TIP3    H113574   6.139   0.798   2.889 -0.2621 -1.2451  1.3877
 4539TIP3    H213575   6.011   0.719   2.905  0.0579 -2.2603 -0.7326
 4540TIP3   OH213576   0.751   0.618   1.138  0.2821 -0.3963  0.4366
 4540TIP3    H113577   0.673   0.568   1.160  0.4211  0.1989  2.4569
 4540TIP3    H213578   0.798   0.562   1.075 -0.9757 -1.4507  0.3861
 4541TIP3   OH213579   7.982   1.840   5.953  0.1958 -0.0623  0.0042
 4541TIP3    H113580   8.006   1.931   5.933 -0.5426  0.0047 -0.6562
 4541TIP3    H213581   7.983   1.796   5.868  1.5088 -0.9322  0.4487
 4542TIP3   OH213582   6.719   5.811   4.027  0.0201 -0.0974  0.1713
 4542TIP3    H113583   6.783   5.743   4.006 -0.2902 -0.6796  1.0704
 4542TIP3    H213584   6.760   5.863   4.096  0.1649  0.5041 -0.3596
 4543TIP3   OH213585   2.182   4.211   1.533 -0.5451 -0.0160  0.1482
 4543TIP3    H113586   2.271   4.243   1.546 -0.1197 -1.5040  1.1119
 4543TIP3    H213587   2.172   4.206   1.438  0.6327 -0.4493  0.0295
 4544TIP3   OH213588   6.544   0.144   3.966 -0.4652  0.2484 -0.2507
 4544TIP3    H113589   6.617   0.098   4.008 -0.5867  1.5828  1.5596
 4544TIP3    H213590   6.562   0.237   3.983 -3.2882  0.5681  1.5539
 4545TIP3   OH213591   5.976   2.182   6.327  0.2711  0.0396  0.6784
 4545TIP3    H113592   5.889   2.199   6.290  0.7470  1.7257  0.2332
 4545TIP3    H213593   6.004   2.102   6.284 -0.1231  0.7372 -1.0076
 4546TIP3   OH213594   5.853   3.753   3.153 -0.2503  0.0382  0.5763
 4546TIP3    H113595   5.895   3.667   3.155  2.2884  1.1710 -0.6692
 4546TIP3    H213596   5.767   3.737   3.113  0.5308 -1.7814 -0.4577
 4547TIP3   OH213597   1.801   6.198   4.234 -0.0044  0.1296  0.3871
 4547TIP3    H113598   1.874   6.242   4.277 -0.7227  1.2470  0.4805
 4547TIP3    H213599   1.844   6.135   4.175  1.0312  0.6555  0.5458
 4548TIP3   OH213600   6.446   6.445   2.419  0.1013  0.1677 -0.3640
 4548TIP3    H113601   6.381   6.503   2.459  2.3786  1.1595  2.2130
 4548TIP3    H213602   6.462   6.483   2.332 -1.8215  0.5834 -0.5727
 4549TIP3   OH213603   4.638   2.878   1.652  0.2866 -0.2728  0.3536
 4549TIP3    H113604   4.614   2.888   1.560  0.4881  0.2854  0.3566
 4549TIP3    H213605   4.732   2.896   1.654 -0.0331  1.5403  0.9318
 4550TIP3   OH213606   0.054   6.809   4.321 -0.3756  0.1764  0.7917
 4550TIP3    H113607   0.007   6.745   4.268  1.4287 -1.3246  0.8983
 4550TIP3    H213608   0.043   6.779   4.411 -0.2082  0.4884  0.9195
 4551TIP3   OH213609   2.902   1.963   0.272 -0.4091 -0.2417  0.2972
 4551TIP3    H113610   2.842   2.036   0.258 -0.8504 -0.1599  2.3458
 4551TIP3    H213611   2.845   1.890   0.296  0.2569 -0.3041  1.7486
 4552TIP3   OH213612   6.649   1.304   1.857 -0.1467 -0.0525 -0.1848
 4552TIP3    H113613   6.685   1.392   1.852 -0.2862  0.0264  0.1535
 4552TIP3    H213614   6.622   1.284   1.768 -1.3837  0.7871 -0.0189
 4553TIP3   OH213615   4.629   5.505   6.352  0.4042  0.4641  0.3647
 4553TIP3    H113616   4.614   5.449   6.276 -0.7005  2.1678 -0.7495
 4553TIP3    H213617   4.589   5.458   6.425  1.0106 -0.9635 -0.1795
 4554TIP3   OH213618   4.609   5.299   3.721  0.0006  0.5056  0.5231
 4554TIP3    H113619   4.611   5.308   3.816  0.0070  1.7627  0.4223
 4554TIP3    H213620   4.659   5.374   3.689 -2.0187  1.4656 -0.5385
 4555TIP3   OH213621   0.501   6.311   4.260  0.0688 -0.3710 -0.2551
 4555TIP3    H113622   0.561   6.361   4.315  2.6486 -2.6987 -0.7053
 4555TIP3    H213623   0.545   6.308   4.175 -0.8899 -1.8148 -0.7297
 4556TIP3   OH213624   7.956   1.953   0.941 -0.3220  0.1992  0.4640
 4556TIP3    H113625   7.884   2.003   0.902 -0.1530  1.0283  1.1904
 4556TIP3    H213626   7.919   1.918   1.022 -0.2549 -0.3642  0.2558
 4557TIP3   OH213627   0.729   4.668   4.540 -0.1437  0.3566  0.0000
 4557TIP3    H113628   0.721   4.694   4.448  1.2356  0.0810 -0.2272
 4557TIP3    H213629   0.797   4.726   4.575  0.2958 -0.4340  0.4825
 4558TIP3   OH213630   0.969   0.343   2.306  0.1214  0.4125  0.1819
 4558TIP3    H113631   1.056   0.359   2.344  0.4869 -0.2884 -0.3473
 4558TIP3    H213632   0.981   0.353   2.212 -0.4733  0.7390  0.1356
 4559TIP3   OH213633   0.247   1.555   3.216 -0.1927 -0.1335 -0.5824
 4559TIP3    H113634   0.158   1.583   3.236  0.1672  1.3704 -0.9917
 4559TIP3    H213635   0.250   1.551   3.120 -0.3247 -1.9875 -0.5567
 4560TIP3   OH213636   4.236   2.386   2.404 -0.2699  0.0994 -0.0255
 4560TIP3    H113637   4.187   2.334   2.340 -0.6757  1.1429 -0.5952
 4560TIP3    H213638   4.183   2.381   2.483  0.0931 -0.9738  0.1716
 4561TIP3   OH213639   0.386   1.475   0.909  0.0744 -0.0553 -0.3919
 4561TIP3    H113640   0.458   1.535   0.889  0.1747  0.5124  1.5443
 4561TIP3    H213641   0.429   1.395   0.940 -0.1053 -0.0655 -0.1677
 4562TIP3   OH213642   6.824   2.056   6.126 -0.3227  0.2739 -0.5407
 4562TIP3    H113643   6.797   2.050   6.035 -0.8799  0.2707 -0.3837
 4562TIP3    H213644   6.863   1.971   6.145 -0.1696  0.2886 -0.7851
 4563TIP3   OH213645   0.243   3.532   6.648 -0.1569  0.0292 -0.5653
 4563TIP3    H113646   0.334   3.555   6.667 -0.9550  2.7721  0.4812
 4563TIP3    H213647   0.229   3.448   6.693  2.0664 -0.9628 -1.6040
 4564TIP3   OH213648   7.375   1.472   1.007 -0.1750  0.9485 -0.1182
 4564TIP3    H113649   7.298   1.418   1.027 -0.1407  0.8934 -0.1336
 4564TIP3    H213650   7.384   1.468   0.912  0.5449 -0.0185 -0.0235
 4565TIP3   OH213651   5.538   6.319   0.281 -0.3119 -0.1721 -0.1795
 4565TIP3    H113652   5.589   6.309   0.361 -1.6447  1.5464  0.9518
 4565TIP3    H213653   5.537   6.413   0.264  1.2892 -0.5835 -3.1781
 4566TIP3   OH213654   6.674   4.145   3.368 -0.7138  0.0764 -0.3318
 4566TIP3    H113655   6.713   4.228   3.396  0.5463  0.0275 -1.8009
 4566TIP3    H213656   6.730   4.115   3.296 -1.2485 -1.9796  0.0474
 4567TIP3   OH213657   0.817   1.732   6.542  0.2474  0.2427 -0.1357
 4567TIP3    H113658   0.756   1.786   6.592 -0.9044 -1.1574  0.0410
 4567TIP3    H213659   0.763   1.690   6.475  1.2653 -0.0273 -0.8113
 4568TIP3   OH213660   2.652   0.051   0.863  0.4498  0.2240  0.1936
 4568TIP3    H113661   2.729   0.107   0.859  0.6160 -0.0560 -1.9215
 4568TIP3    H213662   2.594   0.093   0.925  2.5229  0.1170  2.3364
 4569TIP3   OH213663   1.171   6.452   1.665  0.5103  0.3392  0.4410
 4569TIP3    H113664   1.169   6.375   1.722  0.2821  1.0772  1.4586
 4569TIP3    H213665   1.232   6.428   1.595 -0.0549 -1.0066  0.3790
 4570TIP3   OH213666   7.267   3.915   5.510 -0.4800 -0.1854  0.0230
 4570TIP3    H113667   7.203   3.986   5.512 -0.1189  0.1487 -0.0899
 4570TIP3    H213668   7.217   3.837   5.533 -0.8678  0.1176  0.2295
 4571TIP3   OH213669   2.144   3.332   1.502  0.2793 -0.0345  0.3308
 4571TIP3    H113670   2.238   3.317   1.506  0.0602 -1.2824  2.5705
 4571TIP3    H213671   2.115   3.282   1.426  1.5955  2.0223 -1.6776
 4572TIP3   OH213672   4.723   5.567   5.806 -0.2559  0.2921 -0.4973
 4572TIP3    H113673   4.658   5.628   5.841  1.4767  1.6951  0.4532
 4572TIP3    H213674   4.699   5.482   5.843 -1.9476  0.6180 -0.7731
 4573TIP3   OH213675   4.207   3.536   1.346 -0.0314  0.2119 -0.1643
 4573TIP3    H113676   4.294   3.510   1.315 -0.0269  1.1886 -1.0435
 4573TIP3    H213677   4.225   3.588   1.425  0.1460 -0.0441 -0.0347
 4574TIP3   OH213678   2.189   7.538   2.830 -0.1940  0.3663  0.5041
 4574TIP3    H113679   2.111   7.534   2.885 -0.4404  0.9931  0.2115
 4574TIP3    H213680   2.182   7.621   2.785 -0.1117 -0.2377 -0.6548
 4575TIP3   OH213681   1.829   3.723   5.450 -0.5660 -0.0197  0.1745
 4575TIP3    H113682   1.861   3.813   5.443  0.8891 -0.6043 -1.3389
 4575TIP3    H213683   1.888   3.682   5.513  0.0852 -0.4131 -0.6630
 4576TIP3   OH213684   7.152   3.089   2.192  0.3870  0.5521 -0.1130
 4576TIP3    H113685   7.107   3.168   2.162 -0.6726  0.3991  1.0261
 4576TIP3    H213686   7.100   3.057   2.265  2.4344  0.4558  1.3984
 4577TIP3   OH213687   3.307   1.307   1.912  0.1118  0.5406 -0.1305
 4577TIP3    H113688   3.301   1.369   1.839 -1.0742  1.2403  0.5445
 4577TIP3    H213689   3.222   1.311   1.955 -0.4002 -2.3558 -0.6774
 4578TIP3   OH213690   7.423   5.686   0.100  0.4026  0.5639  0.2607
 4578TIP3    H113691   7.347   5.677   0.043 -0.3087 -1.9377  1.4704
 4578TIP3    H213692   7.400   5.759   0.158 -0.1848  1.1208 -0.6480
 4579TIP3   OH213693   5.551   3.541   3.669 -0.2956 -0.0414 -0.1397
 4579TIP3    H113694   5.484   3.588   3.719 -1.1494 -1.7114  0.3556
 4579TIP3    H213695   5.607   3.610   3.634 -2.1089  1.4056 -0.3435
 4580TIP3   OH213696   2.247   6.128   0.772  0.3549  0.1568 -0.0084
 4580TIP3    H113697   2.187   6.184   0.723 -1.9753 -3.0675 -1.2059
 4580TIP3    H213698   2.206   6.116   0.857  1.3997  1.0358  0.6512
 4581TIP3   OH213699   6.925   1.049   3.139 -0.2395  0.0205 -0.1155
 4581TIP3    H113700   6.845   1.052   3.087 -0.0124  2.1525 -0.4248
 4581TIP3    H213701   6.929   1.134   3.182  0.4152 -1.0776  2.1736
 4582TIP3   OH213702   0.086   2.009   6.064 -0.4754 -0.1074  0.7069
 4582TIP3    H113703   0.005   2.052   6.035 -1.0543 -0.7872  1.2906
 4582TIP3    H213704   0.129   1.982   5.982 -0.0805  1.5637  0.3241
 4583TIP3   OH213705   1.236   4.647   4.986 -0.5693  0.3580 -0.7749
 4583TIP3    H113706   1.291   4.689   5.051 -0.3628 -1.2852  0.1830
 4583TIP3    H213707   1.281   4.661   4.903 -0.0531  1.2023 -0.3657
 4584TIP3   OH213708   7.006   1.185   6.602 -0.0497  0.5538 -0.2965
 4584TIP3    H113709   7.041   1.096   6.596  0.3776  0.7232 -0.3867
 4584TIP3    H213710   6.945   1.192   6.530 -0.3853  0.2017 -0.0478
 4585TIP3   OH213711  -0.008   3.381   6.572 -0.0401 -0.7041 -0.4804
 4585TIP3    H113712   0.072   3.374   6.519  0.9226 -1.0945  0.9762
 4585TIP3    H213713  -0.025   3.475   6.576 -0.5734 -0.6891 -2.0643
 4586TIP3   OH213714   7.935   4.062   4.977 -0.4316  0.1827  0.1058
 4586TIP3    H113715   7.977   4.032   5.057  0.1450 -0.3551 -0.3844
 4586TIP3    H213716   7.971   4.005   4.908 -0.0761  1.3419 -0.7020
 4587TIP3   OH213717   3.470   0.599   5.557 -0.4530  0.1224  0.4658
 4587TIP3    H113718   3.467   0.580   5.463  0.2072 -1.6906  0.7610
 4587TIP3    H213719   3.379   0.592   5.586 -0.4942 -0.6176  0.1793
 4588TIP3   OH213720   6.065   5.272   0.122  0.3756  0.0642 -0.2440
 4588TIP3    H113721   6.149   5.232   0.100  0.2620  0.0488 -0.6571
 4588TIP3    H213722   6.078   5.309   0.210  1.4630  1.8973 -1.1285
 4589TIP3   OH213723   4.736   5.210   2.731  0.5471 -0.7704 -0.0337
 4589TIP3    H113724   4.768   5.167   2.652  0.0660 -0.3047 -0.4867
 4589TIP3    H213725   4.648   5.175   2.744  0.6505 -0.9000  0.3413
 4590TIP3   OH213726   5.520   6.447   4.947  0.5612 -0.1257 -0.3848
 4590TIP3    H113727   5.455   6.386   4.912  1.3117  0.5383 -3.2537
 4590TIP3    H213728   5.542   6.413   5.033 -2.3380 -1.2937  0.0070
 4591TIP3   OH213729   4.540   5.002   2.507 -0.3338 -0.2387  0.7230
 4591TIP3    H113730   4.500   5.061   2.443  0.5751  0.3982  0.7163
 4591TIP3    H213731   4.631   5.032   2.514 -0.2979 -0.5601  1.9841
 4592TIP3   OH213732   5.959   3.660   5.506  0.1461  0.0343 -0.1083
 4592TIP3    H113733   5.921   3.738   5.465  1.2327  2.0934  2.5608
 4592TIP3    H213734   5.912   3.651   5.589  2.0079 -0.3820  0.9539
 4593TIP3   OH213735   8.007   6.122   6.430  0.2629  0.5550  0.0236
 4593TIP3    H113736   8.005   6.070   6.350  1.1554 -1.9283  1.4963
 4593TIP3    H213737   7.916   6.149   6.443 -0.4547 -1.5173 -0.3267
 4594TIP3   OH213738   5.142   6.179   2.168  0.5824  0.5294  0.4059
 4594TIP3    H113739   5.214   6.170   2.230 -0.3114  1.4256  1.6238
 4594TIP3    H213740   5.144   6.270   2.141  0.6220  0.2744 -0.4909
 4595TIP3   OH213741   7.658   5.966   4.531 -0.0043  0.1746  0.7870
 4595TIP3    H113742   7.743   6.004   4.554  0.8311 -0.4520 -1.0840
 4595TIP3    H213743   7.595   6.021   4.577  1.3191  1.8790  0.6964
 4596TIP3   OH213744   4.728   5.559   1.275 -0.7220  0.1625  0.0745
 4596TIP3    H113745   4.637   5.533   1.259 -1.9487  3.2442  1.1857
 4596TIP3    H213746   4.751   5.515   1.357 -1.5854  0.1269  0.3100
 4597TIP3   OH213747   1.261   5.123   3.183 -0.6040 -0.0578  0.3748
 4597TIP3    H113748   1.310   5.051   3.223 -2.0006 -0.9187  0.6070
 4597TIP3    H213749   1.270   5.109   3.089 -0.3402 -0.1505  0.4125
 4598TIP3   OH213750   2.027   2.539   2.625 -0.3477 -0.3331 -0.3182
 4598TIP3    H113751   2.103   2.482   2.637 -0.7566 -1.1847 -1.6044
 4598TIP3    H213752   2.063   2.620   2.588 -0.2149 -1.3676 -2.5830
 4599TIP3   OH213753   2.758   7.129   5.818  0.3138 -0.1457 -0.4099
 4599TIP3    H113754   2.734   7.205   5.766 -0.4522  0.6375  1.0189
 4599TIP3    H213755   2.821   7.162   5.882  0.4418 -0.8418 -0.1667
 4600TIP3   OH213756   5.356   1.687   5.013 -0.0427  0.1860 -0.0963
 4600TIP3    H113757   5.263   1.697   4.992 -0.0264  2.9298  0.7583
 4600TIP3    H213758   5.395   1.771   4.989  1.9812 -0.4413  0.7903
 4601TIP3   OH213759   1.291   3.279   4.352  0.0964 -0.2721  0.1677
 4601TIP3    H113760   1.211   3.237   4.384 -1.2697  0.8428 -1.5585
 4601TIP3    H213761   1.332   3.315   4.430 -0.6811 -1.5000  1.1894
 4602TIP3   OH213762   7.295   6.121   4.020 -0.2127  0.2432 -0.0645
 4602TIP3    H113763   7.279   6.027   4.014 -1.6835  0.5177 -0.7929
 4602TIP3    H213764   7.339   6.143   3.937 -0.1596  0.2615 -0.0321
 4603TIP3   OH213765   4.409   2.709   2.631 -0.9036 -0.1571  0.0871
 4603TIP3    H113766   4.377   2.672   2.714  0.4314  0.9324  1.1295
 4603TIP3    H213767   4.503   2.718   2.644 -0.7148  0.3124 -1.4639
 4604TIP3   OH213768   5.403   7.090   2.751  0.8862  0.4455 -0.4504
 4604TIP3    H113769   5.491   7.096   2.788  0.9103  1.5984 -0.6770
 4604TIP3    H213770   5.349   7.145   2.807 -0.2543 -2.1992  1.2257
 4605TIP3   OH213771   6.225   5.889   5.097  0.2343 -1.2515  0.4828
 4605TIP3    H113772   6.174   5.848   5.167 -1.4042 -0.9008 -0.4608
 4605TIP3    H213773   6.186   5.857   5.016  1.6910 -1.1601 -0.2892
 4606TIP3   OH213774   5.371   6.204   2.315  0.1340 -0.4864 -0.0500
 4606TIP3    H113775   5.427   6.204   2.393 -1.4771 -0.6796  1.1624
 4606TIP3    H213776   5.420   6.154   2.250  0.7648 -1.8939  1.4375
 4607TIP3   OH213777   6.545   3.649   1.008  0.1239  0.3774  0.0186
 4607TIP3    H113778   6.541   3.591   0.932  1.2232  0.1781  0.0995
 4607TIP3    H213779   6.587   3.596   1.076 -0.1068  0.8227  0.5152
 4608TIP3   OH213780   5.690   2.248   2.451  0.1850 -0.1754  0.3525
 4608TIP3    H113781   5.673   2.342   2.443 -0.4210 -0.3559 -0.6726
 4608TIP3    H213782   5.699   2.217   2.361  0.7899 -1.0343  0.6941
 4609TIP3   OH213783   4.780   3.920   4.554 -0.2858  0.5339  0.1871
 4609TIP3    H113784   4.796   3.932   4.460  0.3762 -0.4490  0.1583
 4609TIP3    H213785   4.866   3.932   4.595 -0.3888  0.0041  0.5660
 4610TIP3   OH213786   3.884   4.813   5.052  0.0238 -0.1518 -0.1933
 4610TIP3    H113787   3.891   4.811   5.147 -1.2347  2.5935  0.0477
 4610TIP3    H213788   3.975   4.818   5.021  0.4344 -0.8417  0.8437
 4611TIP3   OH213789   1.782   5.484   6.143  0.5359  0.2560  0.4018
 4611TIP3    H113790   1.797   5.521   6.230  0.6666  0.2431  0.3847
 4611TIP3    H213791   1.791   5.558   6.083 -0.3257  0.4256  0.4620
 4612TIP3   OH213792   0.311   5.948   5.615  0.0012  0.4911 -0.5562
 4612TIP3    H113793   0.279   6.038   5.615 -3.2041 -0.5483 -0.5018
 4612TIP3    H213794   0.280   5.912   5.698  1.0176 -0.7679 -0.6932
 4613TIP3   OH213795   3.469   0.322   6.324  0.0215  0.0130 -0.1988
 4613TIP3    H113796   3.492   0.291   6.412  2.5298  0.3645 -0.6505
 4613TIP3    H213797   3.403   0.389   6.338 -1.5256 -1.6878  1.1858
 4614TIP3   OH213798   8.151   0.230   4.376  0.3401 -0.8728  0.0132
 4614TIP3    H113799   8.104   0.296   4.325  1.3284  1.2256  1.6575
 4614TIP3    H213800   8.168   0.159   4.314 -0.0418  0.7612 -2.0754
 4615TIP3   OH213801   6.352   5.824   3.470  0.1898  0.0297 -0.3404
 4615TIP3    H113802   6.423   5.847   3.409  0.6683 -1.1914 -0.2636
 4615TIP3    H213803   6.308   5.750   3.430 -0.1646 -0.1128  0.2942
 4616TIP3   OH213804   2.279   7.085   0.768  0.1550 -0.4983  0.4791
 4616TIP3    H113805   2.239   7.001   0.791 -0.4471 -0.6425 -0.9757
 4616TIP3    H213806   2.366   7.083   0.809  0.8083 -2.5428 -0.8892
 4617TIP3   OH213807   6.374   3.536   6.014  0.1191  0.6973 -0.1604
 4617TIP3    H113808   6.370   3.613   5.958 -0.6762 -0.2686 -1.4821
 4617TIP3    H213809   6.458   3.495   5.994  0.3375  0.9681  0.1991
 4618TIP3   OH213810   1.705   5.654   1.788 -0.8830  0.1546 -0.1796
 4618TIP3    H113811   1.661   5.571   1.807  2.1302 -1.6244 -0.4752
 4618TIP3    H213812   1.684   5.671   1.696 -1.8847  0.0007  0.0033
 4619TIP3   OH213813   3.745   6.356   4.029  0.0682  0.4245 -0.1546
 4619TIP3    H113814   3.684   6.429   4.041  0.0653  0.6010 -1.1766
 4619TIP3    H213815   3.696   6.291   3.980  0.2126 -0.1008  0.3811
 4620TIP3   OH213816   0.068   4.149   5.226  0.4130 -0.5528 -0.0483
 4620TIP3    H113817   0.038   4.084   5.162  0.3996 -0.0661 -0.5359
 4620TIP3    H213818  -0.011   4.198   5.248  0.6087 -0.0719 -0.4104
 4621TIP3   OH213819   1.549   6.498   1.724 -0.0364  0.8514  0.4891
 4621TIP3    H113820   1.626   6.480   1.778  0.9405  2.2231 -0.3849
 4621TIP3    H213821   1.513   6.579   1.760 -1.5854 -0.1789  1.3899
 4622TIP3   OH213822   3.149   0.512   4.325  0.1175  0.4368 -0.3073
 4622TIP3    H113823   3.061   0.520   4.289 -0.0396 -1.0371 -0.3038
 4622TIP3    H213824   3.190   0.442   4.273  1.1490  0.8206 -0.0413
 4623TIP3   OH213825   4.121   1.050   5.804  0.4000  0.8052  0.7400
 4623TIP3    H113826   4.137   0.983   5.737  1.1044  1.5810  0.1215
 4623TIP3    H213827   4.029   1.075   5.791  0.3333  0.4632  0.5324
 4624TIP3   OH213828   7.655   0.942   4.515  0.4821  0.1946 -0.2022
 4624TIP3    H113829   7.574   0.978   4.550  0.0976 -0.8270 -0.0237
 4624TIP3    H213830   7.714   1.018   4.508 -0.0776  0.7401  0.8066
 4625TIP3   OH213831   1.723   6.375   2.524  0.5483 -0.9076 -0.2174
 4625TIP3    H113832   1.747   6.366   2.616  0.0972 -2.3029 -0.2142
 4625TIP3    H213833   1.715   6.469   2.510  2.9391 -0.5373  0.5507
 4626TIP3   OH213834   1.826   0.725   0.985 -0.2561  0.3087  0.0637
 4626TIP3    H113835   1.842   0.630   0.985  1.0478  0.5224  0.2878
 4626TIP3    H213836   1.872   0.758   1.062 -2.1875  0.9142  1.0269
 4627TIP3   OH213837   5.460   6.744   6.534 -0.4810  0.1883  0.1585
 4627TIP3    H113838   5.439   6.710   6.622 -0.3928 -1.2671 -0.3479
 4627TIP3    H213839   5.478   6.665   6.483 -0.8755  1.0025 -1.2625
 4628TIP3   OH213840   5.427   0.277   3.762 -0.4417 -0.4088 -0.1954
 4628TIP3    H113841   5.492   0.340   3.732 -2.3966  1.1486 -1.3639
 4628TIP3    H213842   5.396   0.311   3.846 -1.2805  0.0282 -0.6779
 4629TIP3   OH213843   7.712   6.999   2.894  0.0977 -0.7827 -0.1999
 4629TIP3    H113844   7.757   6.924   2.854  0.4669 -0.3191 -0.6626
 4629TIP3    H213845   7.632   7.008   2.842  0.5567 -0.2078 -0.8231
 4630TIP3   OH213846   4.510   0.507   0.724 -0.4801  0.5358  0.4611
 4630TIP3    H113847   4.418   0.502   0.699 -0.7779 -0.6866  1.6689
 4630TIP3    H213848   4.559   0.497   0.642 -1.4038 -2.1726  0.1609
 4631TIP3   OH213849   6.507   5.317   2.331 -0.6351 -0.3471 -0.1003
 4631TIP3    H113850   6.454   5.271   2.266 -1.0092 -0.1289  0.0439
 4631TIP3    H213851   6.585   5.263   2.340 -0.7080 -0.5338 -0.5168
 4632TIP3   OH213852   0.382   5.196   3.206  0.5065  0.0474  0.0664
 4632TIP3    H113853   0.323   5.199   3.130 -0.3004  0.4139  0.6982
 4632TIP3    H213854   0.455   5.253   3.181  0.7869 -0.6966 -0.8689
 4633TIP3   OH213855   1.310   4.418   1.254 -1.0118  0.2094 -0.0381
 4633TIP3    H113856   1.275   4.502   1.224 -1.1750 -0.1180 -0.7655
 4633TIP3    H213857   1.328   4.432   1.347 -1.1103  1.0285 -0.1354
 4634TIP3   OH213858   3.033   2.338   3.061  0.7666 -0.6594  0.1018
 4634TIP3    H113859   2.995   2.251   3.056  0.8076 -0.6691 -0.0470
 4634TIP3    H213860   3.051   2.362   2.970  1.8397 -0.9779  0.2186
 4635TIP3   OH213861   4.725   0.360   3.151 -0.1630 -0.6588  0.4052
 4635TIP3    H113862   4.728   0.445   3.107  1.0326 -0.7235  0.3237
 4635TIP3    H213863   4.707   0.381   3.243 -0.5078 -0.3619  0.2677
 4636TIP3   OH213864   6.452   5.582   2.954 -0.2882  0.2227  0.4373
 4636TIP3    H113865   6.507   5.567   3.030  1.6377  0.0929 -0.9111
 4636TIP3    H213866   6.446   5.497   2.910 -0.2447  0.5686 -0.2596
 4637TIP3   OH213867   6.945   0.445   4.952 -0.1187 -0.5913  0.0118
 4637TIP3    H113868   7.008   0.382   4.987  0.2114 -1.2488 -1.6512
 4637TIP3    H213869   6.999   0.507   4.903 -0.7148 -0.9187 -1.0819
 4638TIP3   OH213870   5.157   4.618   0.108 -0.1943 -0.6990 -0.2127
 4638TIP3    H113871   5.229   4.556   0.112 -0.8848 -1.6104 -1.5422
 4638TIP3    H213872   5.131   4.630   0.200  0.3707 -1.8535  0.1145
 4639TIP3   OH213873   3.273   3.001   4.490  0.3208 -0.1640  0.1449
 4639TIP3    H113874   3.225   2.934   4.539  0.7711  0.0219  0.8411
 4639TIP3    H213875   3.312   3.057   4.556 -0.7396  1.3091 -0.4255
 4640TIP3   OH213876   2.081   2.856   3.383  0.5355  0.2104  0.0118
 4640TIP3    H113877   2.069   2.764   3.363 -0.8022  0.6873 -1.6413
 4640TIP3    H213878   2.135   2.890   3.311 -0.1763  0.9863 -0.1738
 4641TIP3   OH213879   7.811   7.840   3.861  0.2226 -0.3925 -0.7012
 4641TIP3    H113880   7.737   7.791   3.826 -0.0720 -0.1094 -0.4782
 4641TIP3    H213881   7.857   7.778   3.917 -1.3429  0.1511  1.2843
 4642TIP3   OH213882   4.478   1.249   4.755 -0.2945  0.2272 -0.1315
 4642TIP3    H113883   4.445   1.160   4.757 -1.2507  0.5627 -0.1915
 4642TIP3    H213884   4.419   1.298   4.813 -1.5076  1.3414 -2.1648
 4643TIP3   OH213885   3.299   0.738   0.542 -0.1597  0.0054  0.3450
 4643TIP3    H113886   3.388   0.774   0.538  0.3395 -1.2732 -1.9991
 4643TIP3    H213887   3.250   0.788   0.477 -0.8356 -0.1861  0.6964
 4644TIP3   OH213888   7.487   3.299   1.176  0.1641 -0.0431  0.8643
 4644TIP3    H113889   7.512   3.253   1.095 -1.1056 -2.1481  1.5828
 4644TIP3    H213890   7.463   3.387   1.147 -0.3487 -0.7665 -1.0717
 4645TIP3   OH213891   4.189   1.258   5.459 -0.7829  1.2695 -0.5780
 4645TIP3    H113892   4.243   1.180   5.467  1.4273  2.6554 -1.1470
 4645TIP3    H213893   4.101   1.224   5.441 -0.3863 -1.0962  1.4438
 4646TIP3   OH213894   2.775   0.439   3.282  0.1713 -0.2129  0.2018
 4646TIP3    H113895   2.815   0.520   3.315  0.0609 -0.3228  0.6227
 4646TIP3    H213896   2.793   0.439   3.188 -1.2679  1.1309 -0.1077
 4647TIP3   OH213897   0.409   3.865   0.822  0.0458 -0.4298  0.0539
 4647TIP3    H113898   0.372   3.780   0.845  0.0777 -0.5594 -0.3502
 4647TIP3    H213899   0.334   3.924   0.823  0.1257 -0.3307  0.9391
 4648TIP3   OH213900   8.066   7.138   0.142 -0.0147  0.4088 -0.0731
 4648TIP3    H113901   8.145   7.098   0.178 -0.6431  0.8684  1.9387
 4648TIP3    H213902   7.995   7.108   0.200 -1.2948  0.2427 -1.6459
 4649TIP3   OH213903   6.205   2.794   5.696  0.3231  0.5821 -0.2366
 4649TIP3    H113904   6.209   2.834   5.609  2.4759  1.5360  0.2248
 4649TIP3    H213905   6.211   2.700   5.679  1.6399  0.7936 -1.1242
 4650TIP3   OH213906   5.805   4.714   6.554  0.2954 -0.0767  0.5616
 4650TIP3    H113907   5.805   4.738   6.647  0.1178 -0.2334  0.6027
 4650TIP3    H213908   5.723   4.665   6.542 -0.1098  0.7037  0.1223
 4651TIP3   OH213909   7.713   5.069   2.778 -0.5743 -0.3694 -0.1935
 4651TIP3    H113910   7.803   5.072   2.744 -1.2276  1.1666 -1.9281
 4651TIP3    H213911   7.704   5.149   2.828 -1.4860  0.4040 -1.5248
 4652TIP3   OH213912   2.019   5.854   1.194  0.0466  0.1287 -0.5540
 4652TIP3    H113913   2.070   5.779   1.164  1.5291  0.7395  0.3229
 4652TIP3    H213914   1.943   5.816   1.237  1.5343 -0.9847  1.2848
 4653TIP3   OH213915   4.533   1.703   3.053 -0.0768 -0.1775 -0.0640
 4653TIP3    H113916   4.629   1.707   3.043  0.0465 -0.1434  0.9559
 4653TIP3    H213917   4.520   1.690   3.147 -1.1190  1.8910  0.1314
 4654TIP3   OH213918   8.182   1.414   4.408 -0.6861 -0.0085 -0.5846
 4654TIP3    H113919   8.096   1.374   4.423 -0.7073  0.1035 -0.4102
 4654TIP3    H213920   8.213   1.373   4.328 -0.1243 -1.3700  0.3046
 4655TIP3   OH213921   0.789   7.025   6.032  0.1667  0.1023  0.0312
 4655TIP3    H113922   0.744   7.031   5.947  0.0562  1.2914  0.1556
 4655TIP3    H213923   0.857   6.959   6.018  0.9599  1.1661 -1.3741
 4656TIP3   OH213924   5.165   4.348   0.285 -0.0087 -0.1286  0.3235
 4656TIP3    H113925   5.168   4.295   0.365  0.6612  0.3178  0.6053
 4656TIP3    H213926   5.250   4.332   0.242  0.3211  0.9113  0.5525
 4657TIP3   OH213927   4.892   2.991   0.879  0.0002  0.7847  0.7671
 4657TIP3    H113928   4.890   2.895   0.873  2.7031  0.6717  0.3549
 4657TIP3    H213929   4.835   3.021   0.809 -2.5670 -0.4464  2.1819
 4658TIP3   OH213930   3.987   7.771   4.098  0.5016  0.9843 -0.2672
 4658TIP3    H113931   3.998   7.796   4.190  1.1030  1.9969 -0.5907
 4658TIP3    H213932   4.033   7.840   4.049 -0.1620  0.6834 -1.3450
 4659TIP3   OH213933   6.860   6.782   0.437  0.4022 -0.0856  0.1459
 4659TIP3    H113934   6.823   6.741   0.359 -0.4806 -2.1198  1.5529
 4659TIP3    H213935   6.815   6.741   0.510  0.5002  2.4510  1.7616
 4660TIP3   OH213936   1.931   1.500   6.060  0.3225 -0.1785  0.2883
 4660TIP3    H113937   1.848   1.463   6.033 -1.3356  2.6902  1.0015
 4660TIP3    H213938   1.943   1.577   6.004  1.3853  0.6820  1.6046
 4661TIP3   OH213939   3.104   6.328   5.486 -0.0079 -0.0467 -0.5783
 4661TIP3    H113940   3.092   6.233   5.482 -0.6485  0.0309 -0.5675
 4661TIP3    H213941   3.098   6.349   5.579 -3.3549  0.4191 -0.7893
 4662TIP3   OH213942   0.437   6.911   1.060 -0.6815  0.1164 -0.2052
 4662TIP3    H113943   0.408   6.865   1.139 -0.6261  0.8184  0.2391
 4662TIP3    H213944   0.378   6.880   0.991 -1.1281 -0.0567  0.2450
 4663TIP3   OH213945   1.322   0.169   6.368  0.2912 -0.2633 -0.3534
 4663TIP3    H113946   1.320   0.176   6.273  0.9299  3.0257 -0.2481
 4663TIP3    H213947   1.250   0.225   6.398  0.8301 -0.2956  1.0870
 4664TIP3   OH213948   5.691   5.644   2.795 -0.1771 -0.0558 -0.3012
 4664TIP3    H113949   5.666   5.687   2.713 -0.8356 -0.9435 -0.5833
 4664TIP3    H213950   5.616   5.656   2.852  0.3018  0.6057  0.2081
 4665TIP3   OH213951   7.857   0.376   6.109 -0.0181 -0.3250 -0.0196
 4665TIP3    H113952   7.941   0.336   6.087 -0.4948 -0.5249 -1.5777
 4665TIP3    H213953   7.800   0.303   6.132 -0.2539 -0.3417 -0.6574
 4666TIP3   OH213954   5.431   4.244   1.866 -0.1749  0.3141  0.5053
 4666TIP3    H113955   5.373   4.299   1.919  0.9897  2.3902 -0.2378
 4666TIP3    H213956   5.518   4.259   1.903  0.1044 -1.6206  0.7013
 4667TIP3   OH213957   0.665   3.528   2.006  0.0299 -0.1577 -0.2307
 4667TIP3    H113958   0.597   3.588   2.037 -0.6691  0.2978 -2.4220
 4667TIP3    H213959   0.651   3.448   2.057  1.1524  1.4943  2.9594
 4668TIP3   OH213960   7.591   5.773   0.466  0.1079  0.0560  0.1314
 4668TIP3    H113961   7.574   5.844   0.404 -2.3163  1.1959  1.9592
 4668TIP3    H213962   7.637   5.815   0.539 -1.7770 -0.0697  1.4511
 4669TIP3   OH213963   3.077   7.324   2.466 -0.3707 -0.0356 -0.1810
 4669TIP3    H113964   3.170   7.333   2.488 -0.3801 -1.5219  0.5996
 4669TIP3    H213965   3.031   7.346   2.547 -0.6605 -0.0767 -0.3319
 4670TIP3   OH213966   4.622   3.115   5.138 -0.1999  0.3013  0.1695
 4670TIP3    H113967   4.615   3.186   5.073 -0.8815 -0.6997 -0.8903
 4670TIP3    H213968   4.547   3.129   5.196  1.3045  2.1551  1.7921
 4671TIP3   OH213969   0.814   0.512   0.496 -0.3025  0.4208  0.3100
 4671TIP3    H113970   0.887   0.451   0.500 -0.8879 -0.2918  0.4134
 4671TIP3    H213971   0.766   0.498   0.578 -0.5004  0.9440  0.2895
 4672TIP3   OH213972   8.193   4.928   5.581  0.1293 -0.4271 -0.3872
 4672TIP3    H113973   8.237   5.012   5.596 -0.1922 -0.1162 -1.1253
 4672TIP3    H213974   8.222   4.872   5.653  2.6521 -0.6114 -1.4464
 4673TIP3   OH213975   5.066   7.171   6.356  0.3097 -0.0447 -0.4762
 4673TIP3    H113976   5.052   7.079   6.379  1.4405 -0.0132  0.4442
 4673TIP3    H213977   5.012   7.185   6.278 -0.3049 -1.3350 -0.3065
 4674TIP3   OH213978   3.044   4.003   3.231  0.1280  0.0513 -0.0293
 4674TIP3    H113979   3.032   3.944   3.157 -0.8590  2.1612 -1.6371
 4674TIP3    H213980   3.132   4.040   3.218  1.1868 -1.7119  1.5517
 4675TIP3   OH213981   3.843   5.701   1.356 -0.2404  0.2818 -0.5383
 4675TIP3    H113982   3.768   5.751   1.387 -1.1571 -1.0035 -0.5711
 4675TIP3    H213983   3.853   5.631   1.420 -1.4604 -1.7681 -2.4118
 4676TIP3   OH213984   6.769   6.072   5.548 -0.1628  0.2186  0.0317
 4676TIP3    H113985   6.778   6.092   5.641  0.5892 -0.9260  0.2225
 4676TIP3    H213986   6.685   6.025   5.541  0.5619 -1.1866  0.4213
 4677TIP3   OH213987   6.652   6.594   4.419  0.4198  0.3651 -0.0383
 4677TIP3    H113988   6.721   6.569   4.481 -0.1871 -2.1352 -0.2504
 4677TIP3    H213989   6.680   6.556   4.336  0.5805  2.5601 -1.0416
 4678TIP3   OH213990   5.802   7.253   0.473  0.1582  0.3198 -0.0344
 4678TIP3    H113991   5.835   7.172   0.436 -1.8460 -0.1828 -0.8679
 4678TIP3    H213992   5.842   7.259   0.560  0.6656 -1.3342 -0.1356
 4679TIP3   OH213993   6.985   1.264   1.630 -0.2851 -0.4706 -0.0430
 4679TIP3    H113994   6.967   1.194   1.693 -1.3277 -0.2478 -0.0683
 4679TIP3    H213995   6.951   1.343   1.672 -0.0188 -0.1442 -0.4354
 4680TIP3   OH213996   6.888   0.743   0.428  0.1643  0.3174 -0.3882
 4680TIP3    H113997   6.925   0.703   0.507 -1.4448 -1.2493 -0.3800
 4680TIP3    H213998   6.858   0.830   0.457  2.1914  0.9366 -0.0074
 4681TIP3   OH213999   2.454   5.348   5.900 -0.0862 -0.3560  0.3373
 4681TIP3    H114000   2.482   5.289   5.971 -1.1774 -2.1019 -0.6078
 4681TIP3    H214001   2.496   5.313   5.822 -1.2294 -0.2689 -0.3459
 4682TIP3   OH214002   0.598   0.940   0.285 -0.4981  0.2207 -0.0023
 4682TIP3    H114003   0.630   0.854   0.310  0.7890  1.0559  1.3754
 4682TIP3    H214004   0.520   0.953   0.339 -0.2927  0.2038  0.2985
 4683TIP3   OH214005   3.141   1.914   3.948  0.7810  0.2031 -0.3254
 4683TIP3    H114006   3.140   1.948   3.858 -1.3728 -0.3445 -0.5718
 4683TIP3    H214007   3.177   1.826   3.940 -0.4939 -0.2900 -0.8719
 4684TIP3   OH214008   8.064   3.741   2.105  0.0884 -0.2165 -0.4126
 4684TIP3    H114009   8.149   3.786   2.100 -0.8372  2.0175  1.6633
 4684TIP3    H214010   8.057   3.714   2.197 -0.8042 -1.7966 -0.9120
 4685TIP3   OH214011   0.623   3.638   0.326 -0.1317 -0.1551  0.0713
 4685TIP3    H114012   0.646   3.558   0.374 -2.0930  0.1400  1.6692
 4685TIP3    H214013   0.702   3.661   0.278  1.3202 -1.6532  1.5880
 4686TIP3   OH214014   7.958   3.032   4.721 -1.0158 -0.0919  0.1139
 4686TIP3    H114015   7.927   3.075   4.801 -2.9551  0.4227 -0.8274
 4686TIP3    H214016   7.942   3.097   4.652 -0.9598 -1.1310 -0.9088
 4687TIP3   OH214017   6.262   6.015   1.939  0.1134 -0.5095  0.2564
 4687TIP3    H114018   6.287   5.930   1.975 -0.7015 -0.8352  0.0799
 4687TIP3    H214019   6.343   6.051   1.903  0.1492 -2.0669 -1.3837
 4688TIP3   OH214020   2.401   2.404   3.580  0.2136  0.3101 -0.1883
 4688TIP3    H114021   2.339   2.334   3.560 -0.6871  0.7554  0.9459
 4688TIP3    H214022   2.394   2.416   3.674  2.4371  0.0191  0.0790
 4689TIP3   OH214023   6.510   6.217   4.496 -0.2889 -0.4044  0.1940
 4689TIP3    H114024   6.505   6.283   4.566 -1.0707 -1.8853  1.5911
 4689TIP3    H214025   6.600   6.185   4.500 -0.0196  0.2704 -0.2274
 4690TIP3   OH214026   5.494   2.215   2.794 -0.0789  0.0087 -0.2043
 4690TIP3    H114027   5.578   2.256   2.811  0.2711 -1.3579  1.7459
 4690TIP3    H214028   5.429   2.283   2.812  0.5610  0.6888 -0.4358
 4691TIP3   OH214029   1.471   6.552   3.171  0.2036 -0.1806 -0.5074
 4691TIP3    H114030   1.394   6.554   3.228  0.7916 -1.9064  0.4512
 4691TIP3    H214031   1.484   6.642   3.144 -0.4528  0.6334  1.6558
 4692TIP3   OH214032   3.617   5.578   1.049 -0.2706 -0.0985  0.0307
 4692TIP3    H114033   3.569   5.498   1.028 -0.8743  0.5137 -1.0220
 4692TIP3    H214034   3.549   5.644   1.064  0.1998  0.6365 -0.9039
 4693TIP3   OH214035   5.120   0.962   5.059 -0.0552  0.1850  0.8465
 4693TIP3    H114036   5.056   0.893   5.078 -0.4625  0.2992 -0.0871
 4693TIP3    H214037   5.155   0.985   5.145 -0.6054 -0.5166  1.2769
 4694TIP3   OH214038   4.371   0.776   1.972 -0.4591  0.0173  0.7700
 4694TIP3    H114039   4.333   0.825   2.045 -1.1060  1.2362 -0.3395
 4694TIP3    H214040   4.445   0.830   1.943  0.7317 -1.1955  1.4386
 4695TIP3   OH214041   3.908   2.056   4.851  0.3624  0.7871  0.2747
 4695TIP3    H114042   3.828   2.079   4.805 -0.4778 -1.0124  0.7468
 4695TIP3    H214043   3.891   2.078   4.942  0.8749  1.5174  0.2019
 4696TIP3   OH214044   4.966   7.046   2.479 -0.0678  0.2496  0.0819
 4696TIP3    H114045   5.004   6.978   2.534  0.3534  1.3401  1.1807
 4696TIP3    H214046   4.995   7.128   2.519 -0.5980  1.0781 -1.1867
 4697TIP3   OH214047   6.470   7.554   6.556 -0.2904  0.1374 -0.4012
 4697TIP3    H114048   6.491   7.555   6.649  0.0590  2.7416 -0.4389
 4697TIP3    H214049   6.503   7.469   6.525 -0.0812 -0.6188  1.7492
 4698TIP3   OH214050   2.642   6.186   2.532 -0.4279  0.6751 -0.0506
 4698TIP3    H114051   2.698   6.188   2.454 -0.4018  0.2563 -0.0425
 4698TIP3    H214052   2.554   6.171   2.497 -0.0815 -2.4822  0.1510
 4699TIP3   OH214053   5.894   2.797   0.748  0.3366  0.4370 -0.8143
 4699TIP3    H114054   5.969   2.783   0.805 -0.5843  1.3427  0.6830
 4699TIP3    H214055   5.823   2.748   0.788 -0.7722  2.4711 -0.1348
 4700TIP3   OH214056   2.936   4.553   4.748  0.2040 -0.1506  0.1610
 4700TIP3    H114057   2.914   4.576   4.658 -0.2424 -0.0933  0.2786
 4700TIP3    H214058   2.944   4.458   4.748 -1.8831 -0.3868  0.4705
 4701TIP3   OH214059   4.407   5.692   0.266 -0.0053 -0.3612 -0.1032
 4701TIP3    H114060   4.341   5.647   0.319  0.5116  0.1976  1.0667
 4701TIP3    H214061   4.382   5.675   0.175 -1.2219 -0.9222  0.3234
 4702TIP3   OH214062   4.348   7.460   2.691  0.3909 -0.1305  0.2287
 4702TIP3    H114063   4.261   7.456   2.652  0.7756  2.9190 -1.2673
 4702TIP3    H214064   4.405   7.415   2.629  0.3357  0.9299 -0.6367
 4703TIP3   OH214065   5.203   2.782   5.433  0.1201  0.1923 -0.0690
 4703TIP3    H114066   5.211   2.821   5.346  1.6492 -1.9813 -0.9801
 4703TIP3    H214067   5.271   2.826   5.485 -0.8386  1.5395  0.1026
 4704TIP3   OH214068   2.101   0.711   3.147 -0.5951  0.0161 -0.3435
 4704TIP3    H114069   2.035   0.644   3.163 -1.0934  0.5535 -0.1283
 4704TIP3    H214070   2.145   0.722   3.231  0.1673 -0.7535 -0.6289
 4705TIP3   OH214071   1.936   2.519   1.845 -0.2766  0.2574 -0.4029
 4705TIP3    H114072   1.889   2.597   1.814 -1.0559 -0.8102 -2.0611
 4705TIP3    H214073   1.878   2.482   1.911 -1.7673 -0.8725 -2.2063
 4706TIP3   OH214074   6.192   1.303   2.742  0.6709 -0.0615  0.2803
 4706TIP3    H114075   6.099   1.329   2.746  0.6384  0.0143 -0.7422
 4706TIP3    H214076   6.239   1.386   2.748  0.6255  0.0445 -0.7029
 4707TIP3   OH214077   2.394   4.265   1.172 -0.3439 -0.5433  0.2248
 4707TIP3    H114078   2.415   4.331   1.107  0.5014  0.5921  1.5883
 4707TIP3    H214079   2.445   4.188   1.146 -0.6461 -0.3773 -0.8813
 4708TIP3   OH214080   4.722   0.608   1.994 -1.0982 -0.1229 -0.2001
 4708TIP3    H114081   4.695   0.665   2.065 -1.4378  1.0268 -1.2089
 4708TIP3    H214082   4.788   0.659   1.947 -0.2892 -1.1871 -0.2396
 4709TIP3   OH214083   6.304   5.805   2.095 -0.0541 -0.3068 -0.0038
 4709TIP3    H114084   6.276   5.714   2.085  1.5075 -0.7789 -0.3612
 4709TIP3    H214085   6.400   5.800   2.101  0.1439  1.3910 -1.0954
 4710TIP3   OH214086   4.300   1.145   0.748 -0.4064 -0.2683 -0.5417
 4710TIP3    H114087   4.349   1.079   0.700  0.3452  0.2283 -0.4781
 4710TIP3    H214088   4.287   1.216   0.685 -0.4971 -0.1317 -0.3717
 4711TIP3   OH214089   1.712   1.118   5.355  0.2701  0.0882 -0.5398
 4711TIP3    H114090   1.625   1.158   5.366 -0.0356 -0.5126 -0.7509
 4711TIP3    H214091   1.748   1.161   5.277 -0.2124 -0.3131 -0.9901
 4712TIP3   OH214092   7.525   6.876   5.508 -0.7060 -0.0721 -0.2117
 4712TIP3    H114093   7.606   6.829   5.526 -0.2160  0.8164 -0.0513
 4712TIP3    H214094   7.535   6.960   5.553 -0.7103  1.0018 -2.0815
 4713TIP3   OH214095   4.214   0.224   5.669 -0.4118  0.4109 -0.5249
 4713TIP3    H114096   4.207   0.202   5.762 -1.3714  0.7636 -0.5126
 4713TIP3    H214097   4.125   0.222   5.636 -0.0185 -0.4192 -1.6150
 4714TIP3   OH214098   1.259   3.414   3.408  0.6966  0.2090 -0.0456
 4714TIP3    H114099   1.339   3.402   3.358  0.0113  0.5601 -1.2584
 4714TIP3    H214100   1.261   3.345   3.474  1.2844 -0.6985 -1.0004
 4715TIP3   OH214101   3.331   2.908   2.807  0.0152  0.2609 -0.1147
 4715TIP3    H114102   3.366   2.920   2.895  1.4890 -0.3063 -0.5941
 4715TIP3    H214103   3.262   2.975   2.799  0.1361  0.5808  1.3077
 4716TIP3   OH214104   6.656   3.174   3.352 -0.2140 -0.6290 -0.4133
 4716TIP3    H114105   6.566   3.201   3.371 -0.4927 -1.8340  0.0745
 4716TIP3    H214106   6.667   3.189   3.258 -0.7937 -0.1266 -0.4030
 4717TIP3   OH214107   3.074   7.546   6.506 -0.5798 -0.3569  0.7329
 4717TIP3    H114108   3.003   7.550   6.442 -0.3670 -0.0275  0.5153
 4717TIP3    H214109   3.125   7.625   6.490  0.1033 -0.8254  0.5691
 4718TIP3   OH214110   5.524   6.610   0.279 -0.2860 -0.0957 -0.2405
 4718TIP3    H114111   5.492   6.609   0.369 -1.6731 -1.5857 -0.6928
 4718TIP3    H214112   5.448   6.635   0.227  1.0342  2.9541 -0.8979
 4719TIP3   OH214113   2.617   3.497   6.592 -0.0492  0.3352  0.4234
 4719TIP3    H114114   2.693   3.542   6.628  0.1063  0.1489  0.3271
 4719TIP3    H214115   2.556   3.568   6.570  0.2085  0.5013  0.2414
 4720TIP3   OH214116   0.739   7.466   3.128 -0.5686 -0.2486 -0.0760
 4720TIP3    H114117   0.654   7.423   3.114 -0.2961 -0.5842 -0.7197
 4720TIP3    H214118   0.747   7.528   3.056 -0.8566  0.7421  0.7297
 4721TIP3   OH214119   7.343   1.012   4.113 -0.0017 -0.3140  0.1562
 4721TIP3    H114120   7.284   1.084   4.094 -1.4094 -1.1935  1.0367
 4721TIP3    H214121   7.359   0.971   4.028 -0.6784 -0.0787 -0.0904
 4722TIP3   OH214122   8.287   3.390   3.482  0.7464 -0.2632  0.5809
 4722TIP3    H114123   8.202   3.362   3.448  0.1159  0.8247  1.2270
 4722TIP3    H214124   8.319   3.315   3.531 -0.2846 -0.3488  1.1394
 4723TIP3   OH214125   7.726   5.372   4.793  0.6033  0.0801  0.5300
 4723TIP3    H114126   7.643   5.347   4.753  0.6340  0.3086  0.3184
 4723TIP3    H214127   7.792   5.330   4.737  0.6221 -0.6288  1.0618
 4724TIP3   OH214128   6.466   2.349   2.586  0.1606  0.0236  0.0094
 4724TIP3    H114129   6.426   2.427   2.550  0.0526 -0.2307 -0.4328
 4724TIP3    H214130   6.550   2.342   2.540 -0.1722 -0.5483 -0.5209
 4725TIP3   OH214131   0.747   0.216   0.924  0.0101  0.0615  0.3358
 4725TIP3    H114132   0.684   0.191   0.992  0.2991 -1.1170  0.1865
 4725TIP3    H214133   0.702   0.199   0.842  0.4149 -0.5187  0.2302
 4726TIP3   OH214134   1.876   5.037   3.719  0.7559 -0.1602 -0.3395
 4726TIP3    H114135   1.822   4.957   3.714  0.5914 -0.0793  0.0795
 4726TIP3    H214136   1.815   5.105   3.748  0.7209  0.2908 -1.4225
 4727TIP3   OH214137   3.912   1.993   0.130  0.4935  0.1958  0.2642
 4727TIP3    H114138   3.958   1.963   0.209 -0.5467 -2.5150 -0.0491
 4727TIP3    H214139   3.825   2.019   0.161  0.9378  1.6871  0.3301
 4728TIP3   OH214140   1.204   5.361   4.223 -0.0597  0.5857  0.2985
 4728TIP3    H114141   1.169   5.444   4.192  0.1388  0.8413  0.7369
 4728TIP3    H214142   1.277   5.386   4.281 -1.0590  0.1861  1.7989
 4729TIP3   OH214143   7.115   4.766   3.882 -0.0623  0.4397  0.0795
 4729TIP3    H114144   7.063   4.834   3.841 -0.0873  0.0871 -0.4886
 4729TIP3    H214145   7.080   4.758   3.970 -1.0625  0.1089 -0.3378
 4730TIP3   OH214146   7.463   0.811   2.191  0.3914 -0.3965 -0.2047
 4730TIP3    H114147   7.449   0.812   2.097  0.0985 -1.0906 -0.1751
 4730TIP3    H214148   7.507   0.894   2.210 -0.8733  0.4245 -0.7465
 4731TIP3   OH214149   1.632   6.719   5.263 -0.6835  0.2268 -0.2337
 4731TIP3    H114150   1.552   6.760   5.297 -0.3655  0.4901  0.2048
 4731TIP3    H214151   1.702   6.778   5.289 -0.3448  0.0109 -0.6460
 4732TIP3   OH214152   5.757   7.682   5.289  0.0597 -0.0171  0.3168
 4732TIP3    H114153   5.791   7.771   5.275 -0.4015  0.3126  1.2295
 4732TIP3    H214154   5.829   7.625   5.261 -0.6327  0.5477 -3.0005
 4733TIP3   OH214155   7.481   6.048   1.101  0.6135 -0.4214 -0.2696
 4733TIP3    H114156   7.457   6.039   1.193 -0.8696  0.7360 -0.5061
 4733TIP3    H214157   7.487   6.143   1.087 -0.6419 -0.5141 -1.7006
 4734TIP3   OH214158   7.312   3.526   3.556  0.4646  0.7541 -0.2687
 4734TIP3    H114159   7.227   3.564   3.533 -0.4426 -0.5167  0.8413
 4734TIP3    H214160   7.294   3.470   3.632  2.5116  1.3291  0.7058
 4735TIP3   OH214161   4.618   4.819   2.235 -0.0960 -0.4338  0.9726
 4735TIP3    H114162   4.604   4.914   2.235 -0.0832 -0.4320  1.0013
 4735TIP3    H214163   4.547   4.784   2.288  0.0456 -0.4199  1.1727
 4736TIP3   OH214164   0.353   2.355   6.052  0.4312  0.0518 -0.8333
 4736TIP3    H114165   0.428   2.326   6.104 -0.8835 -0.0106  1.1398
 4736TIP3    H214166   0.320   2.432   6.099 -1.0340 -0.2277 -1.3405
 4737TIP3   OH214167   2.405   4.920   3.124 -0.7448  0.5729 -0.3277
 4737TIP3    H114168   2.378   4.976   3.197 -1.7344  0.5748 -0.6776
 4737TIP3    H214169   2.415   4.980   3.050  0.9356  0.6738 -0.0554
 4738TIP3   OH214170   8.142   4.960   0.518  0.2884  0.1850  0.3376
 4738TIP3    H114171   8.119   5.031   0.577 -0.6672  0.4172 -0.2866
 4738TIP3    H214172   8.108   4.881   0.561  0.9199  0.1604  0.8000
 4739TIP3   OH214173   4.047   3.007   3.041 -0.5479 -0.6058 -0.6994
 4739TIP3    H114174   4.073   2.938   3.102  2.8049  0.5619 -0.6213
 4739TIP3    H214175   4.063   2.970   2.955  1.4949  0.0547 -0.6538
 4740TIP3   OH214176   7.218   4.561   4.327  0.1277 -0.8099 -0.9324
 4740TIP3    H114177   7.208   4.650   4.293  0.4713  0.4572  1.9545
 4740TIP3    H214178   7.253   4.510   4.254  2.0723  1.9392 -2.0647
 4741TIP3   OH214179   5.451   5.638   1.381 -0.2419  0.2149 -0.1296
 4741TIP3    H114180   5.531   5.650   1.432  1.3654  2.1950 -2.8393
 4741TIP3    H214181   5.396   5.713   1.405 -1.0287 -0.7249  1.1475
 4742TIP3   OH214182   1.090   1.852   3.354 -0.4525 -0.3085 -0.7730
 4742TIP3    H114183   1.127   1.777   3.308  0.0195 -0.2321 -0.5263
 4742TIP3    H214184   1.051   1.815   3.433 -1.0430 -0.4087 -1.1105
 4743TIP3   OH214185   8.209   6.138   6.630 -0.2692 -0.4950 -0.1982
 4743TIP3    H114186   8.133   6.112   6.578  0.6786 -1.8287 -0.9858
 4743TIP3    H214187   8.251   6.055   6.654  0.7714  0.2024  0.4920
 4744TIP3   OH214188   5.405   3.722   2.563  0.0262  0.5278  0.8661
 4744TIP3    H114189   5.350   3.692   2.491  1.1879 -1.6446  0.7951
 4744TIP3    H214190   5.343   3.751   2.630 -1.1475  0.0636  0.0211
 4745TIP3   OH214191   8.186   6.504   4.629 -0.4190 -0.0584 -0.2040
 4745TIP3    H114192   8.210   6.594   4.649  1.0957  0.2949 -3.1875
 4745TIP3    H214193   8.256   6.451   4.666 -1.3658 -0.1143  1.6489
 4746TIP3   OH214194   6.094   3.896   3.875  0.1540 -0.5212  0.4619
 4746TIP3    H114195   6.035   3.847   3.817  1.5246 -0.4810 -0.9972
 4746TIP3    H214196   6.103   3.839   3.952 -1.2262 -0.8397  0.4165
 4747TIP3   OH214197   3.697   7.231   6.770  0.2693  0.1394 -0.0867
 4747TIP3    H114198   3.676   7.153   6.719 -0.7467  0.1800  0.2478
 4747TIP3    H214199   3.792   7.236   6.767  0.4391 -1.6999  0.7331
 4748TIP3   OH214200   3.587   0.274   6.081 -0.2038  0.2362  0.1724
 4748TIP3    H114201   3.602   0.179   6.075  1.7965  0.5327 -0.0347
 4748TIP3    H214202   3.533   0.284   6.159 -1.6043 -1.1571 -0.5313
 4749TIP3   OH214203   0.715   6.647   4.742 -0.2233  0.2359 -0.0731
 4749TIP3    H114204   0.696   6.656   4.649  1.3075  1.5845 -0.3048
 4749TIP3    H214205   0.642   6.690   4.786 -1.3641 -1.1149 -0.5907
 4750TIP3   OH214206   2.519   3.818   5.725  0.8721  0.1572  0.6420
 4750TIP3    H114207   2.480   3.803   5.811  0.8515  1.4826  0.8762
 4750TIP3    H214208   2.567   3.900   5.734 -1.0382  1.5809 -1.2351
 4751TIP3   OH214209   7.682   2.912   4.004 -0.3304  0.1386 -0.6470
 4751TIP3    H114210   7.670   2.956   3.920 -0.3134  0.3777 -0.5242
 4751TIP3    H214211   7.699   2.983   4.066 -2.2348  0.1387 -0.0724
 4752TIP3   OH214212   6.104   7.023   2.660  0.2149 -0.1583  0.1280
 4752TIP3    H114213   6.124   6.930   2.649 -1.7129 -0.8225  1.7337
 4752TIP3    H214214   6.034   7.040   2.597 -0.0662 -0.0314  0.4733
 4753TIP3   OH214215   6.306   2.693   1.249 -0.0968 -0.1386  0.1815
 4753TIP3    H114216   6.387   2.715   1.295  0.0337 -0.6791  0.2191
 4753TIP3    H214217   6.276   2.776   1.211 -0.2924  0.3510  1.3745
 4754TIP3   OH214218   6.275   2.800   2.031  0.0473  0.8248 -0.6360
 4754TIP3    H114219   6.201   2.818   2.088 -0.1445 -0.0983 -0.5790
 4754TIP3    H214220   6.344   2.859   2.061  0.7306 -1.1428  2.0756
 4755TIP3   OH214221   1.672   0.896   1.253  0.4011 -0.0345  0.2203
 4755TIP3    H114222   1.645   0.903   1.161 -0.1181  0.0365  0.3767
 4755TIP3    H214223   1.671   0.985   1.286  0.7312 -0.0429  0.2588
 4756TIP3   OH214224   5.553   5.910   0.042 -0.1016  0.4742  0.4118
 4756TIP3    H114225   5.521   5.997   0.065 -2.3660 -0.4326  0.9843
 4756TIP3    H214226   5.575   5.869   0.126 -2.0587 -0.5469  0.4788
 4757TIP3   OH214227   6.514   2.535   6.043 -0.1392  0.1922  0.2150
 4757TIP3    H114228   6.580   2.537   6.113  2.8377 -0.9562 -2.2872
 4757TIP3    H214229   6.486   2.626   6.034  1.3068  0.7819  1.2456
 4758TIP3   OH214230   7.284   0.245   0.660  0.5024 -0.3596 -0.0881
 4758TIP3    H114231   7.325   0.178   0.606 -0.1098 -0.6803 -0.1605
 4758TIP3    H214232   7.278   0.322   0.604 -0.5550 -0.8282 -0.6393
 4759TIP3   OH214233   7.829   3.576   6.289  0.2494 -0.3134  0.0891
 4759TIP3    H114234   7.903   3.541   6.339 -1.1932 -0.6002  2.1929
 4759TIP3    H214235   7.782   3.498   6.259 -0.1560 -0.1488  0.2956
 4760TIP3   OH214236   6.146   4.737   2.402  0.3263 -0.3017  0.6112
 4760TIP3    H114237   6.097   4.752   2.483 -0.3633  3.0391 -0.2669
 4760TIP3    H214238   6.233   4.772   2.420  0.9179 -1.6988  0.5886
 4761TIP3   OH214239   6.226   4.175   5.973  0.2867 -0.5660  0.0176
 4761TIP3    H114240   6.148   4.169   6.028 -3.4762  0.1579 -4.5761
 4761TIP3    H214241   6.241   4.269   5.964  0.3954 -0.6471 -0.6800
 4762TIP3   OH214242   0.175   0.078   4.982  0.4839 -0.6129  0.3348
 4762TIP3    H114243   0.243   0.055   5.046  0.7555  0.8695  0.6048
 4762TIP3    H214244   0.131   0.153   5.021 -2.0637 -2.1694  0.6951
 4763TIP3   OH214245   6.083   1.441   0.472  0.4224  0.5872  0.0065
 4763TIP3    H114246   6.160   1.446   0.415 -0.3415  0.6944 -1.0413
 4763TIP3    H214247   6.010   1.469   0.417 -0.5405 -0.5265  0.6558
 4764TIP3   OH214248   2.037   3.835   5.702  0.0316 -0.2757  0.1756
 4764TIP3    H114249   2.079   3.905   5.753  0.2264  1.4443 -2.1920
 4764TIP3    H214250   1.991   3.783   5.767  0.6601  1.5016  2.1683
 4765TIP3   OH214251   0.952   1.628   3.042 -0.0384 -0.1170 -0.5446
 4765TIP3    H114252   0.935   1.716   3.007 -1.5909 -1.2715 -2.9637
 4765TIP3    H214253   1.048   1.622   3.046  0.1043  1.5620 -0.6131
 4766TIP3   OH214254   0.729   4.322   2.469 -0.1923 -0.8431  0.2543
 4766TIP3    H114255   0.703   4.414   2.466  2.8539  0.1308 -0.4873
 4766TIP3    H214256   0.734   4.300   2.562 -0.0059  0.0804  0.4676
 4767TIP3   OH214257   1.243   7.720   5.179 -0.2810 -0.2051 -0.0446
 4767TIP3    H114258   1.200   7.756   5.101 -0.3923 -1.0657 -0.3988
 4767TIP3    H214259   1.171   7.682   5.230 -0.4743  1.9865  1.4422
 4768TIP3   OH214260   4.332   5.523   5.265 -0.0097 -0.0392  0.7848
 4768TIP3    H114261   4.403   5.563   5.216  0.7100  0.3738  2.1035
 4768TIP3    H214262   4.364   5.436   5.288 -1.1970 -1.0926 -1.2527
 4769TIP3   OH214263   0.616   4.398   3.182 -0.5737  0.1605 -0.6555
 4769TIP3    H114264   0.578   4.345   3.111 -0.0701  1.3622 -1.8662
 4769TIP3    H214265   0.672   4.337   3.230  0.9700 -0.1661 -2.7531
 4770TIP3   OH214266   1.248   0.272   2.400 -0.3555  0.2482 -0.0441
 4770TIP3    H114267   1.256   0.327   2.322 -1.1726  0.4798  0.0262
 4770TIP3    H214268   1.335   0.275   2.441  0.5651 -1.0962 -1.7356
 4771TIP3   OH214269   2.223   5.199   1.219 -0.1128  0.0302 -0.1017
 4771TIP3    H114270   2.207   5.255   1.143  2.2730  0.8855 -0.0356
 4771TIP3    H214271   2.158   5.228   1.283 -0.0460  1.5556 -0.6776
 4772TIP3   OH214272   2.010   7.753   4.387  0.0620 -0.0316  0.7534
 4772TIP3    H114273   1.949   7.727   4.457  0.7456 -1.6041  0.8132
 4772TIP3    H214274   2.096   7.749   4.428  0.2616  1.9781  0.6130
 4773TIP3   OH214275   1.136   5.021   1.182 -0.1070 -0.0135  0.3370
 4773TIP3    H114276   1.196   5.009   1.109 -2.5237  1.6899 -2.1264
 4773TIP3    H214277   1.193   5.026   1.259  2.6815 -0.5860 -1.5248
 4774TIP3   OH214278   2.115   5.577   2.191 -0.6012  0.1645 -0.0271
 4774TIP3    H114279   2.128   5.526   2.271 -0.2648  0.1737 -0.0728
 4774TIP3    H214280   2.021   5.592   2.186 -0.5021  1.2789  1.0579
 4775TIP3   OH214281   8.112   2.075   0.644  0.1297 -0.1128 -0.3148
 4775TIP3    H114282   8.150   2.073   0.732  1.9748 -0.5601 -1.0925
 4775TIP3    H214283   8.122   2.166   0.616  0.4112 -0.1850 -0.4421
 4776TIP3   OH214284   3.241   3.950   5.116  0.4360 -0.0528 -0.3933
 4776TIP3    H114285   3.291   3.915   5.190 -0.3585 -1.0426 -0.2966
 4776TIP3    H214286   3.267   4.042   5.110 -0.2923  0.3520  1.8355
 4777TIP3   OH214287   5.759   0.393   3.444  0.0271  0.3514 -0.1567
 4777TIP3    H114288   5.685   0.370   3.500  1.0539  3.5156  2.8936
 4777TIP3    H214289   5.820   0.319   3.453 -0.7245 -0.1248  1.2763
 4778TIP3   OH214290   0.422   7.514   2.767 -0.3067  0.0906 -0.1343
 4778TIP3    H114291   0.402   7.470   2.850  0.9155  1.8953  1.1901
 4778TIP3    H214292   0.387   7.602   2.777  1.5653  0.9572 -0.6951
 4779TIP3   OH214293   5.300   5.463   0.384 -0.0629 -0.0191 -0.2756
 4779TIP3    H114294   5.329   5.437   0.296  0.1941 -1.0951  0.1010
 4779TIP3    H214295   5.353   5.539   0.405 -0.6594  0.7235 -1.3422
 4780TIP3   OH214296   2.884   2.320   6.361 -0.2966  0.2162  0.0329
 4780TIP3    H114297   2.901   2.414   6.356 -0.5270  0.2521 -0.0961
 4780TIP3    H214298   2.944   2.281   6.298 -1.1395  0.4024 -0.9081
 4781TIP3   OH214299   3.802   5.598   2.033 -0.0469  0.1372  0.2422
 4781TIP3    H114300   3.760   5.550   2.105 -0.6993  0.8916  0.3794
 4781TIP3    H214301   3.895   5.583   2.045 -0.2427 -1.2285  0.1886
 4782TIP3   OH214302   2.821   3.492   6.312 -0.0065  0.3356 -0.4240
 4782TIP3    H114303   2.763   3.449   6.249 -1.3146  1.1626  0.1739
 4782TIP3    H214304   2.772   3.570   6.340  0.6135  0.0872  1.4683
 4783TIP3   OH214305   7.509   6.475   4.761 -0.4955 -0.1918  0.6423
 4783TIP3    H114306   7.575   6.455   4.695 -1.1558 -2.1671  0.5044
 4783TIP3    H214307   7.552   6.456   4.845 -0.4070  0.0059  0.6416
 4784TIP3   OH214308   0.272   3.653   0.289  0.2064 -0.2428 -0.2031
 4784TIP3    H114309   0.250   3.620   0.202  0.6676  1.2898 -0.9270
 4784TIP3    H214310   0.357   3.696   0.277  1.3954 -1.9289  1.5021
 4785TIP3   OH214311   1.241   0.238   0.882  0.2731 -0.4955 -0.0563
 4785TIP3    H114312   1.167   0.298   0.880 -0.1910 -1.0716 -0.5786
 4785TIP3    H214313   1.207   0.158   0.922  0.7702 -0.5594  0.2521
 4786TIP3   OH214314   4.866   2.678   3.247 -0.0635  0.4263  0.4486
 4786TIP3    H114315   4.893   2.733   3.320 -1.1504  1.2659  0.2620
 4786TIP3    H214316   4.937   2.616   3.235  2.1825  2.9574 -0.5463
 4787TIP3   OH214317   5.202   0.791   4.569  0.3424 -0.1985 -0.0008
 4787TIP3    H114318   5.167   0.879   4.560 -0.4037 -0.3373  1.3004
 4787TIP3    H214319   5.126   0.736   4.587  0.8863 -0.9860 -0.0384
 4788TIP3   OH214320   6.573   5.813   2.068 -0.5846 -0.0140 -0.5293
 4788TIP3    H114321   6.640   5.745   2.056  0.4539  0.6791  1.0227
 4788TIP3    H214322   6.621   5.895   2.057 -1.6021  0.4929 -1.3063
 4789TIP3   OH214323   3.156   4.597   5.293  0.2095  0.1368  0.2023
 4789TIP3    H114324   3.250   4.577   5.286 -0.0134 -0.4810 -1.3496
 4789TIP3    H214325   3.115   4.512   5.312 -0.1780  0.1368 -0.6190
 4790TIP3   OH214326   2.819   5.001   0.445 -0.1906 -0.1354 -0.4725
 4790TIP3    H114327   2.846   5.090   0.421 -0.0315 -0.1463 -0.3425
 4790TIP3    H214328   2.817   5.003   0.541 -0.9543 -0.0521 -0.4863
 4791TIP3   OH214329   7.180   6.613   1.566  0.7445 -0.1873  0.0607
 4791TIP3    H114330   7.245   6.549   1.596 -0.1331 -0.7912  0.7368
 4791TIP3    H214331   7.137   6.643   1.646 -0.0847 -0.1031 -0.4008
 4792TIP3   OH214332   5.873   3.929   6.271 -0.4576 -0.4805 -0.3624
 4792TIP3    H114333   5.815   3.906   6.198 -1.1958  0.0411  0.0370
 4792TIP3    H214334   5.854   3.863   6.338  2.1923 -2.6462 -1.5706
 4793TIP3   OH214335   6.262   3.137   1.915  0.2390  0.1991  0.0026
 4793TIP3    H114336   6.255   3.109   1.824 -1.8908 -3.1814  1.0064
 4793TIP3    H214337   6.355   3.131   1.936  0.3804 -2.2411 -1.1054
 4794TIP3   OH214338   4.086   0.580   6.796  0.4021  0.2600 -0.4074
 4794TIP3    H114339   3.998   0.589   6.761  0.0314 -1.1602  0.0980
 4794TIP3    H214340   4.124   0.507   6.748  1.2773  0.8025 -0.5591
 4795TIP3   OH214341   2.346   3.910   1.308 -0.0941 -0.2695  0.1253
 4795TIP3    H114342   2.414   3.932   1.372  0.9832 -0.1363 -1.0207
 4795TIP3    H214343   2.364   3.967   1.233 -0.8849 -0.9054 -0.5658
 4796TIP3   OH214344   2.734   4.731   4.005 -0.1911 -0.3068  0.1809
 4796TIP3    H114345   2.679   4.668   3.958 -1.0727  0.9739 -0.5435
 4796TIP3    H214346   2.723   4.813   3.957  0.7843  0.4593  1.2295
 4797TIP3   OH214347   6.305   3.990   2.020  0.2162  0.3758  0.0858
 4797TIP3    H114348   6.216   4.021   2.035 -0.2151  0.2114 -1.8152
 4797TIP3    H214349   6.342   3.980   2.108 -1.8240 -0.1185  0.9655
 4798TIP3   OH214350   1.475   7.703   0.587  0.3986  0.3569 -0.1639
 4798TIP3    H114351   1.470   7.785   0.637  0.2095  1.1956 -1.4999
 4798TIP3    H214352   1.518   7.642   0.647  0.4071  1.3789  0.9326
 4799TIP3   OH214353   7.604   7.361   0.291 -0.0743 -0.0543  1.2236
 4799TIP3    H114354   7.559   7.443   0.270 -0.4132 -0.5363 -0.0111
 4799TIP3    H214355   7.697   7.383   0.282 -0.1666 -0.5629 -2.5160
 4800TIP3   OH214356   0.575   0.838   1.974 -0.9926 -0.3609  0.0048
 4800TIP3    H114357   0.627   0.880   1.905 -0.8395 -1.6089 -0.6665
 4800TIP3    H214358   0.485   0.867   1.957 -0.6461  1.3074  0.7921
 4801TIP3   OH214359   4.514   5.836   0.549  0.1127  0.3857 -0.4760
 4801TIP3    H114360   4.506   5.801   0.638  3.4289 -0.4102 -0.3710
 4801TIP3    H214361   4.498   5.761   0.492  1.3178  0.0694 -0.4191
 4802TIP3   OH214362   4.743   3.528   1.904  0.3135 -0.5341 -0.2832
 4802TIP3    H114363   4.801   3.601   1.884 -1.5721  0.9020 -0.7777
 4802TIP3    H214364   4.745   3.522   2.000 -0.2093  0.7882 -0.1721
 4803TIP3   OH214365   5.881   6.387   2.414  0.1729  0.3926  0.2763
 4803TIP3    H114366   5.828   6.353   2.342  0.0950 -0.8962  0.9191
 4803TIP3    H214367   5.826   6.378   2.491  1.0193 -0.2046  0.8255
 4804TIP3   OH214368   4.565   2.894   0.839 -0.5663 -0.6886  0.2970
 4804TIP3    H114369   4.483   2.925   0.801  1.0117  0.2970 -2.6767
 4804TIP3    H214370   4.598   2.969   0.889 -0.2255 -0.1036 -0.7768
 4805TIP3   OH214371   6.755   4.269   6.398  0.1000  0.2595 -0.0821
 4805TIP3    H114372   6.851   4.261   6.398  0.0508 -1.0107 -1.4811
 4805TIP3    H214373   6.732   4.274   6.305 -1.1908  0.7163  0.2397
 4806TIP3   OH214374   2.089   4.264   4.612  0.1529 -0.2961  0.0819
 4806TIP3    H114375   2.079   4.169   4.617  0.2896 -0.3551 -0.6394
 4806TIP3    H214376   2.164   4.277   4.554  0.9193  0.2356  1.1758
 4807TIP3   OH214377   2.154   1.983   6.771 -0.0682 -0.4438 -0.4463
 4807TIP3    H114378   2.223   1.934   6.726 -0.6071  0.0025 -1.7746
 4807TIP3    H214379   2.076   1.969   6.719  0.2684  3.9946 -2.5914
 4808TIP3   OH214380   5.153   5.619   4.666  0.1903  0.0127 -0.4494
 4808TIP3    H114381   5.137   5.525   4.654 -0.8957  0.0321  0.5618
 4808TIP3    H214382   5.140   5.633   4.760  1.4163  0.9930 -0.4092
 4809TIP3   OH214383   4.192   5.137   4.949  0.0824 -0.5478  0.1024
 4809TIP3    H114384   4.163   5.052   4.917  0.3216 -0.1402 -1.2700
 4809TIP3    H214385   4.245   5.173   4.878  0.0726  0.7045  0.6986
 4810TIP3   OH214386   0.413   3.938   4.898 -0.0424  0.3513 -0.0464
 4810TIP3    H114387   0.333   3.895   4.868 -0.1084  0.0485  0.5451
 4810TIP3    H214388   0.464   3.954   4.819  0.3037 -1.4490 -0.2241
 4811TIP3   OH214389   2.173   2.599   3.275 -0.2441  0.3302  0.2725
 4811TIP3    H114390   2.261   2.565   3.291 -0.2346 -0.3348 -1.0713
 4811TIP3    H214391   2.117   2.549   3.334  0.3461  1.2970  1.7039
 4812TIP3   OH214392   3.490   3.422   2.211 -0.1244  0.5126  0.3604
 4812TIP3    H114393   3.582   3.434   2.235 -0.1375  2.1792 -0.2976
 4812TIP3    H214394   3.487   3.440   2.117 -1.0224 -0.1372  0.2546
 4813TIP3   OH214395   2.221   1.076   4.403  0.2967 -0.6381  0.8319
 4813TIP3    H114396   2.187   1.071   4.492 -0.1582 -0.3456  0.6768
 4813TIP3    H214397   2.176   1.006   4.356  0.7300 -0.9608  0.8929
 4814TIP3   OH214398   0.222   4.001   6.138 -0.3151  0.1463  0.2511
 4814TIP3    H114399   0.285   3.964   6.076  0.4787  1.1864  0.3858
 4814TIP3    H214400   0.266   3.995   6.223 -1.1754 -0.7872  0.6419
 4815TIP3   OH214401   7.342   2.459   0.515 -0.3274  0.1601  0.0463
 4815TIP3    H114402   7.332   2.413   0.598  1.6442 -0.7294 -0.1526
 4815TIP3    H214403   7.253   2.486   0.492 -1.2038 -1.3252  1.4367
 4816TIP3   OH214404   2.025   5.703   2.781  0.2607  0.0063 -0.9570
 4816TIP3    H114405   2.024   5.795   2.809 -0.2403 -0.6049  1.2087
 4816TIP3    H214406   1.937   5.686   2.749  0.3577  0.2685 -1.3720
 4817TIP3   OH214407   2.189   4.161   0.674  0.1476  0.0591 -0.2119
 4817TIP3    H114408   2.254   4.126   0.613  1.4926  0.2052  1.0790
 4817TIP3    H214409   2.117   4.098   0.671 -0.0442  0.3138 -2.2746
 4818TIP3   OH214410   0.395   1.117   1.725  0.7149  0.1170 -0.4229
 4818TIP3    H114411   0.321   1.097   1.666 -0.7491  2.6346  0.4000
 4818TIP3    H214412   0.369   1.079   1.809  0.9033  0.0397 -0.4000
 4819TIP3   OH214413   3.657   5.489   4.605  0.2433 -0.0374 -0.1730
 4819TIP3    H114414   3.693   5.542   4.676 -1.3612  0.2853  0.4312
 4819TIP3    H214415   3.687   5.400   4.624 -0.8629 -0.1075  1.4136
 4820TIP3   OH214416   4.835   7.398   1.396 -0.3586  0.1576 -0.0522
 4820TIP3    H114417   4.918   7.370   1.358 -0.9217 -0.1645 -1.0698
 4820TIP3    H214418   4.850   7.394   1.491  0.1437 -1.9095 -0.1693
 4821TIP3   OH214419   0.860   5.951   3.841 -0.0096 -0.6183 -0.1104
 4821TIP3    H114420   0.831   6.043   3.836  0.7143 -0.4498 -1.9684
 4821TIP3    H214421   0.954   5.955   3.824 -0.3440 -1.8891 -2.5935
 4822TIP3   OH214422   0.910   5.862   3.513 -0.1153 -0.0813  0.1911
 4822TIP3    H114423   0.911   5.958   3.513  0.3302 -0.0828 -0.1759
 4822TIP3    H214424   0.970   5.838   3.443 -1.3807 -0.6281 -0.7409
 4823TIP3   OH214425   7.491   5.153   6.155 -0.4546 -1.3793  0.6050
 4823TIP3    H114426   7.523   5.236   6.119 -0.3129 -2.7983 -2.9679
 4823TIP3    H214427   7.398   5.151   6.130 -0.6172 -2.0211  1.2456
 4824TIP3   OH214428   7.324   0.955   2.818  0.5945  0.5222 -0.0558
 4824TIP3    H114429   7.253   0.960   2.882 -0.8455 -0.5720 -1.4646
 4824TIP3    H214430   7.318   0.866   2.783  0.6756  1.3468 -2.3616
 4825TIP3   OH214431   4.595   4.901   1.316 -0.3616  0.2363  0.3619
 4825TIP3    H114432   4.573   4.831   1.255  1.8949 -2.9029  2.8379
 4825TIP3    H214433   4.514   4.952   1.323 -1.9178 -1.6242 -2.1369
 4826TIP3   OH214434   2.891   0.728   4.880  0.0620  0.5437  0.0646
 4826TIP3    H114435   2.980   0.762   4.877 -0.0380  0.7379 -1.0395
 4826TIP3    H214436   2.890   0.671   4.956  1.0224  0.8354  0.3116
 4827TIP3   OH214437   7.025   1.544   5.981 -0.2674  0.2489 -0.5109
 4827TIP3    H114438   7.115   1.562   6.006 -0.9046  1.2697  1.2838
 4827TIP3    H214439   7.003   1.462   6.026 -0.5623  0.6145  0.0304
 4828TIP3   OH214440   3.234   1.265   0.816  0.0145  0.5517  0.0703
 4828TIP3    H114441   3.206   1.197   0.877  2.3675  1.3063  2.2332
 4828TIP3    H214442   3.304   1.224   0.765  0.8352  1.0173  0.7759
 4829TIP3   OH214443   2.043   5.647   4.197 -0.6822  0.2016 -0.1873
 4829TIP3    H114444   2.099   5.576   4.165 -2.2188 -1.5978  0.9342
 4829TIP3    H214445   1.954   5.619   4.175 -1.3113  2.0902 -0.2377
 4830TIP3   OH214446   1.083   1.484   5.002  0.3743 -0.5975 -0.1656
 4830TIP3    H114447   1.040   1.562   4.968  1.3834  0.9546  1.9235
 4830TIP3    H214448   1.176   1.498   4.984  0.3998 -2.4681 -1.8492
 4831TIP3   OH214449   7.301   2.290   4.313  0.1266  0.0568 -0.3670
 4831TIP3    H114450   7.299   2.375   4.269 -1.1497  1.0632  1.4705
 4831TIP3    H214451   7.208   2.269   4.328  0.4344  0.6232  3.2217
 4832TIP3   OH214452   4.664   3.604   6.679 -0.4182  0.1028  0.1669
 4832TIP3    H114453   4.671   3.675   6.615 -1.0388  0.2828  0.2895
 4832TIP3    H214454   4.661   3.524   6.627  1.3212  0.0668  0.0563
 4833TIP3   OH214455   0.267   7.298   1.023  0.1126  0.0258 -0.4648
 4833TIP3    H114456   0.290   7.302   1.116  2.9432 -1.2415 -0.9933
 4833TIP3    H214457   0.184   7.251   1.022  1.1254 -2.0647  1.3974
 4834TIP3   OH214458   3.898   7.494   2.036  0.3928  0.2825  0.0715
 4834TIP3    H114459   3.990   7.478   2.016  0.6676 -0.4046  1.7597
 4834TIP3    H214460   3.883   7.452   2.120 -1.2009  1.2956  0.3472
 4835TIP3   OH214461   1.265   7.370   3.108  0.0220 -0.1346 -0.4859
 4835TIP3    H114462   1.316   7.415   3.176 -2.7368  0.2214  1.5224
 4835TIP3    H214463   1.258   7.280   3.140 -0.4452 -0.2256 -0.8450
 4836TIP3   OH214464   5.503   5.652   4.242  0.6636  0.2573 -0.2458
 4836TIP3    H114465   5.418   5.688   4.269  1.4021  0.9472  1.2546
 4836TIP3    H214466   5.497   5.647   4.146 -0.9651  0.5327 -0.1958
 4837TIP3   OH214467   1.004   7.376   2.982  0.2379  0.4950  0.8612
 4837TIP3    H114468   0.933   7.399   3.043 -0.0654 -1.2887  1.2344
 4837TIP3    H214469   1.083   7.374   3.037  0.6002  2.3333  0.4742
 4838TIP3   OH214470   0.780   6.291   1.725 -0.1581 -0.2329  0.2743
 4838TIP3    H114471   0.817   6.318   1.641  0.0828 -3.4701 -0.8083
 4838TIP3    H214472   0.851   6.304   1.788  0.1008  0.9931 -0.2369
 4839TIP3   OH214473   3.061   2.213   6.179  0.0681  0.5488 -0.0816
 4839TIP3    H114474   3.057   2.258   6.094  0.3061 -2.3969 -1.7833
 4839TIP3    H214475   3.154   2.199   6.194 -0.0606 -2.2394 -1.3269
 4840TIP3   OH214476   5.990   2.578   3.322  0.1339 -0.4888  0.5150
 4840TIP3    H114477   6.048   2.652   3.304 -1.5524  0.2615 -2.3393
 4840TIP3    H214478   5.936   2.570   3.244 -1.2365 -3.4004  1.6259
 4841TIP3   OH214479   4.347   5.043   1.349 -0.5300  0.0404  0.5368
 4841TIP3    H114480   4.352   5.092   1.432  0.3927  0.5287  0.2124
 4841TIP3    H214481   4.342   5.111   1.282  0.7790 -0.2867  0.0754
 4842TIP3   OH214482   7.500   0.145   0.139  0.8326 -0.2038 -0.4022
 4842TIP3    H114483   7.517   0.118   0.229  1.7183 -1.4103 -0.8981
 4842TIP3    H214484   7.465   0.234   0.146 -1.0370 -0.9924  1.2483
 4843TIP3   OH214485   8.094   1.617   0.468 -0.6253 -0.2276 -0.0227
 4843TIP3    H114486   8.089   1.544   0.406  0.9244  1.2716 -2.0713
 4843TIP3    H214487   8.178   1.660   0.448  0.0733  0.2512  3.3063
 4844TIP3   OH214488   5.961   3.259   1.167  0.5162 -0.3279 -0.4306
 4844TIP3    H114489   5.950   3.255   1.262 -2.4568  0.8894 -0.5996
 4844TIP3    H214490   6.032   3.321   1.153 -0.2430  0.9330  1.0094
 4845TIP3   OH214491   5.012   6.306   3.607 -0.0286  0.2947  0.2534
 4845TIP3    H114492   5.100   6.294   3.571  0.2198 -0.4711  1.0750
 4845TIP3    H214493   4.978   6.217   3.618 -0.9781  0.5809 -0.2053
 4846TIP3   OH214494   3.075   2.201   3.539 -0.1940  0.8757 -0.1865
 4846TIP3    H114495   3.009   2.195   3.608  0.9164  0.5200  0.8858
 4846TIP3    H214496   3.128   2.122   3.551  0.1957  0.9542 -1.2880
 4847TIP3   OH214497   5.168   7.502   3.328 -0.4696 -0.2542 -0.0033
 4847TIP3    H114498   5.235   7.531   3.266 -0.1053  1.4338  1.1332
 4847TIP3    H214499   5.087   7.542   3.296 -1.6347 -4.1805 -2.7850
 4848TIP3   OH214500   3.673   5.419   2.228 -0.3071 -0.5194 -0.2455
 4848TIP3    H114501   3.684   5.474   2.305 -1.4998  0.1331 -0.5149
 4848TIP3    H214502   3.725   5.340   2.246  0.3344  0.1149  0.7195
 4849TIP3   OH214503   0.169   7.784   1.487 -0.8274  0.4677 -0.2223
 4849TIP3    H114504   0.082   7.774   1.527 -0.4341  0.6004  0.6749
 4849TIP3    H214505   0.190   7.876   1.499  0.3147  0.0239  1.4092
 4850TIP3   OH214506   6.100   1.300   4.369 -0.0875  0.3528  0.4272
 4850TIP3    H114507   6.089   1.220   4.419 -0.6797 -0.1867 -0.5380
 4850TIP3    H214508   6.035   1.361   4.406  0.1997  0.3163  1.0003
 4851TIP3   OH214509   6.259   2.712   0.691  0.1994 -0.0461  0.1696
 4851TIP3    H114510   6.336   2.678   0.736  0.8281  0.1434 -0.7162
 4851TIP3    H214511   6.286   2.798   0.659 -0.5088  0.1835  0.1676
 4852TIP3   OH214512   6.569   0.564   6.006 -0.0018  0.2443 -0.9237
 4852TIP3    H114513   6.588   0.636   6.066  0.7780 -0.1207 -0.7261
 4852TIP3    H214514   6.611   0.488   6.045 -1.9923 -0.6435 -0.3947
 4853TIP3   OH214515   6.917   3.835   3.476 -0.2492  0.3588  0.0481
 4853TIP3    H114516   6.959   3.919   3.457  0.8651  0.0441  0.9382
 4853TIP3    H214517   6.881   3.806   3.393 -1.4244  2.1093 -0.1052
 4854TIP3   OH214518   7.326   5.343   2.027  0.0391  0.0335 -0.2227
 4854TIP3    H114519   7.313   5.287   2.103 -0.9886  0.0178 -0.3937
 4854TIP3    H214520   7.286   5.427   2.052  2.7765  1.2080  0.5668
 4855TIP3   OH214521   6.570   7.530   6.048  0.0303 -0.1112 -0.1415
 4855TIP3    H114522   6.586   7.602   5.986 -1.1574 -0.4034 -0.8259
 4855TIP3    H214523   6.488   7.554   6.091  1.1725  0.4221  1.8605
 4856TIP3   OH214524   4.247   1.925   2.850  0.2144 -0.7528 -0.3525
 4856TIP3    H114525   4.258   1.979   2.928  0.3943  3.0070 -2.7062
 4856TIP3    H214526   4.154   1.905   2.847  0.2407 -1.1085  0.9165
 4857TIP3   OH214527   0.485   4.873   0.781  0.1987 -0.2556  0.0988
 4857TIP3    H114528   0.535   4.955   0.788 -0.9377  0.6460 -1.6186
 4857TIP3    H214529   0.414   4.882   0.845  0.1493  0.0477  0.0013
 4858TIP3   OH214530   1.840   6.416   3.337 -0.5386  0.3322  0.2366
 4858TIP3    H114531   1.874   6.331   3.366  0.4527  0.6165 -0.0572
 4858TIP3    H214532   1.758   6.426   3.385  0.2034  0.0015  1.6257
 4859TIP3   OH214533   2.065   3.561   2.125  0.0878 -0.1464  0.1424
 4859TIP3    H114534   2.148   3.516   2.142  1.6831  2.4221 -0.2038
 4859TIP3    H214535   2.071   3.588   2.033 -1.3450 -0.2692 -0.0027
 4860TIP3   OH214536   6.074   7.444   4.244 -0.0005 -0.0807 -0.8806
 4860TIP3    H114537   5.997   7.395   4.215  0.1390  0.0329 -1.4435
 4860TIP3    H214538   6.100   7.495   4.168  1.5917 -1.3124 -1.2070
 4861TIP3   OH214539   7.176   2.521   4.683  0.0142  0.3286 -0.2298
 4861TIP3    H114540   7.091   2.512   4.640  0.4576  0.5006 -1.1707
 4861TIP3    H214541   7.231   2.456   4.640  0.8858  1.5633 -1.0303
 4862TIP3   OH214542   0.267   4.351   1.636  0.2322  0.4744  0.1681
 4862TIP3    H114543   0.277   4.266   1.593 -2.9482 -0.8735  1.7548
 4862TIP3    H214544   0.184   4.385   1.602  1.5832  3.2317 -0.6984
 4863TIP3   OH214545   0.156   0.180   3.359 -0.3728 -0.3078  0.0687
 4863TIP3    H114546   0.174   0.273   3.346 -0.5842 -0.1602  0.7999
 4863TIP3    H214547   0.121   0.150   3.275  3.1820 -0.6270 -1.4639
 4864TIP3   OH214548   0.080   7.372   5.277 -0.0957  0.1673 -0.3667
 4864TIP3    H114549   0.149   7.370   5.210  0.8880  1.2040  0.5680
 4864TIP3    H214550   0.027   7.449   5.255  0.2901  0.5691  0.0885
 4865TIP3   OH214551   7.515   6.034   6.555  0.7154 -0.0597 -0.2196
 4865TIP3    H114552   7.445   6.054   6.617  0.5046 -2.2357  0.3060
 4865TIP3    H214553   7.560   5.958   6.592  1.9200 -0.1207 -1.6995
 4866TIP3   OH214554   6.703   3.326   0.588 -0.2516  0.0926 -0.2464
 4866TIP3    H114555   6.734   3.389   0.523 -0.0864  0.0329 -0.2269
 4866TIP3    H214556   6.780   3.272   0.606  0.0678  0.9171  0.9540
 4867TIP3   OH214557   3.821   0.311   5.782 -0.2309 -0.1496  0.0071
 4867TIP3    H114558   3.731   0.281   5.770 -0.0755  0.2020 -2.6886
 4867TIP3    H214559   3.854   0.260   5.856 -1.8990 -2.0814 -0.5020
 4868TIP3   OH214560   5.390   0.508   1.988 -0.3076 -0.4881 -0.2064
 4868TIP3    H114561   5.408   0.602   1.987  1.7874 -0.8545 -0.8960
 4868TIP3    H214562   5.457   0.470   2.045  0.3282 -1.7840 -1.7307
 4869TIP3   OH214563   6.599   4.331   0.227 -0.2645  0.1801 -0.9356
 4869TIP3    H114564   6.514   4.367   0.250 -0.8705 -0.9152 -1.4265
 4869TIP3    H214565   6.609   4.351   0.134  0.3172  0.8747 -0.7370
 4870TIP3   OH214566   6.026   4.933   4.498 -0.0577  0.3824  0.1193
 4870TIP3    H114567   6.001   4.844   4.473  0.5543  0.8464 -2.4063
 4870TIP3    H214568   5.956   4.988   4.465  0.6576  1.0144 -0.3809
 4871TIP3   OH214569   5.807   4.102   1.455  0.0722  0.1879 -0.0720
 4871TIP3    H114570   5.743   4.031   1.449 -0.1354  0.4244 -0.8418
 4871TIP3    H214571   5.821   4.129   1.364  0.5346  0.7906  0.1697
 4872TIP3   OH214572   5.614   4.415   3.203 -0.8083 -0.0096 -0.1382
 4872TIP3    H114573   5.591   4.333   3.161  0.5029  0.1435 -1.2298
 4872TIP3    H214574   5.688   4.394   3.259  0.5235  0.6597 -1.5679
 4873TIP3   OH214575   3.881   3.647   6.689  0.0552 -0.0584 -0.5587
 4873TIP3    H114576   3.899   3.739   6.670  0.0112 -0.2363 -1.4936
 4873TIP3    H214577   3.807   3.625   6.633  0.7159 -0.9408 -1.1127
 4874TIP3   OH214578   3.849   6.879   1.447  0.6764  0.5104 -0.1682
 4874TIP3    H114579   3.904   6.955   1.432  1.9933 -0.6473 -1.4448
 4874TIP3    H214580   3.777   6.888   1.384  0.4474  1.0200  0.1571
 4875TIP3   OH214581   1.449   4.369   4.419 -0.3582 -0.0617  0.7662
 4875TIP3    H114582   1.495   4.366   4.335 -0.3253 -1.6893  0.8135
 4875TIP3    H214583   1.492   4.439   4.467  0.5127  0.0076 -0.0826
 4876TIP3   OH214584   7.840   5.877   3.093 -0.0777 -0.4554  0.2082
 4876TIP3    H114585   7.925   5.919   3.107  0.6011 -1.8122  0.3063
 4876TIP3    H214586   7.789   5.943   3.047  0.1861  1.2951  2.2677
 4877TIP3   OH214587   4.181   1.493   4.008 -0.2485 -0.1893  0.3077
 4877TIP3    H114588   4.219   1.461   4.090  0.2904 -1.0330 -0.2454
 4877TIP3    H214589   4.228   1.574   3.990  1.6756 -1.4265 -0.5758
 4878TIP3   OH214590   8.245   6.713   6.682 -0.3608 -0.8569 -0.0032
 4878TIP3    H114591   8.231   6.644   6.747 -0.0401  0.7936  1.9153
 4878TIP3    H214592   8.190   6.687   6.608 -2.5354 -1.7307  1.7838
 4879TIP3   OH214593   0.385   2.631   2.043  0.5397 -0.1138  0.2960
 4879TIP3    H114594   0.469   2.589   2.063  0.6459 -0.3467 -0.5788
 4879TIP3    H214595   0.329   2.608   2.117  0.8274 -1.1649  0.2136
 4880TIP3   OH214596   1.711   5.007   5.927 -0.3894 -0.0271 -0.3322
 4880TIP3    H114597   1.699   5.080   5.867  0.8645  0.4541 -0.0397
 4880TIP3    H214598   1.687   5.041   6.013 -1.3934 -0.4722 -0.4176
 4881TIP3   OH214599   1.611   3.039   6.168  0.3751 -0.4171 -0.0765
 4881TIP3    H114600   1.660   3.102   6.219  1.1854 -2.1285  1.3760
 4881TIP3    H214601   1.667   3.019   6.093  0.0778  0.6083 -0.5834
 4882TIP3   OH214602   7.047   6.018   0.204 -0.0677  0.4278  0.0878
 4882TIP3    H114603   7.073   5.931   0.235 -0.5575  0.5116  0.7425
 4882TIP3    H214604   6.958   6.030   0.235 -0.0031  1.1741  0.0093
 4883TIP3   OH214605   3.452   6.632   4.533 -0.3147  0.6094 -0.0457
 4883TIP3    H114606   3.426   6.680   4.611 -0.8220 -0.0558  0.2061
 4883TIP3    H214607   3.544   6.655   4.521  0.2518 -0.4650  1.6898
 4884TIP3   OH214608   6.888   5.164   2.643  0.4633  0.0226  0.0562
 4884TIP3    H114609   6.960   5.102   2.655  0.4197 -0.0578 -0.0928
 4884TIP3    H214610   6.921   5.246   2.680  0.7492  0.0659 -0.2882
 4885TIP3   OH214611   4.461   6.293   6.044  0.4433  0.0867  0.0063
 4885TIP3    H114612   4.491   6.359   5.981  0.2245 -0.8578 -1.1277
 4885TIP3    H214613   4.374   6.268   6.013 -0.0010  0.1692  1.1575
 4886TIP3   OH214614   2.405   6.486   1.671 -0.0644 -0.3631 -0.0877
 4886TIP3    H114615   2.373   6.454   1.586 -1.6441  1.7426 -0.3651
 4886TIP3    H214616   2.379   6.419   1.734 -1.5165 -0.5929 -0.8913
 4887TIP3   OH214617   4.455   3.410   3.415  0.1238 -0.2816  0.3270
 4887TIP3    H114618   4.381   3.468   3.398  1.7748  1.9623  0.3625
 4887TIP3    H214619   4.470   3.418   3.509  1.5704  0.8527  0.0356
 4888TIP3   OH214620   7.259   1.381   4.468  0.3580 -0.1334  0.2336
 4888TIP3    H114621   7.349   1.371   4.437  0.5235  0.5042  0.4907
 4888TIP3    H214622   7.213   1.305   4.433  1.5075 -1.7428  2.0114
 4889TIP3   OH214623   6.867   2.865   3.980  0.1981 -0.4309  0.1442
 4889TIP3    H114624   6.797   2.818   4.024 -0.0496  1.7657  2.2670
 4889TIP3    H214625   6.839   2.956   3.980  2.0603  0.2014 -1.0173
 4890TIP3   OH214626   1.621   7.302   4.623 -0.0687  0.5331 -0.0638
 4890TIP3    H114627   1.530   7.277   4.641 -0.2989  2.3193  1.6575
 4890TIP3    H214628   1.620   7.329   4.531 -1.2945  0.5239 -0.0748
 4891TIP3   OH214629   6.598   0.928   5.174 -0.1918 -0.1636  0.1624
 4891TIP3    H114630   6.662   0.874   5.127  0.4115  1.6382 -1.2328
 4891TIP3    H214631   6.513   0.901   5.138  0.0476 -0.5141 -0.1495
 4892TIP3   OH214632   4.978   5.978   2.268 -0.7803 -0.1619 -0.0910
 4892TIP3    H114633   5.027   5.905   2.231 -2.6205 -1.2683 -0.4590
 4892TIP3    H214634   5.029   6.055   2.245  1.6981 -1.3532  1.0866
 4893TIP3   OH214635   2.989   5.210   6.189 -0.0541  0.1509  0.2016
 4893TIP3    H114636   3.034   5.143   6.139 -0.4691 -0.1401  0.2091
 4893TIP3    H214637   2.896   5.191   6.177 -0.1649  0.0095  1.1537
 4894TIP3   OH214638   2.162   1.139   6.664 -0.0319 -0.1975 -0.0552
 4894TIP3    H114639   2.210   1.078   6.608 -2.4898 -0.8044 -1.6814
 4894TIP3    H214640   2.157   1.220   6.613 -0.7779 -0.1830  0.0292
 4895TIP3   OH214641   0.570   0.532   5.162 -0.8265  0.0861  0.1886
 4895TIP3    H114642   0.585   0.546   5.255  0.4190 -1.1013  0.1891
 4895TIP3    H214643   0.491   0.478   5.158  0.3630 -1.7954  0.7137
 4896TIP3   OH214644   6.934   4.939   6.185  0.2864  0.2951  0.1983
 4896TIP3    H114645   7.012   4.897   6.149 -0.0189 -1.0434  1.0126
 4896TIP3    H214646   6.945   5.032   6.166  2.9964  0.4132  1.9436
 4897TIP3   OH214647   7.679   5.637   1.122 -1.1027  0.1416  0.5240
 4897TIP3    H114648   7.686   5.629   1.217  0.1222  2.2916  0.6812
 4897TIP3    H214649   7.636   5.722   1.108 -1.9139 -0.4572 -0.8526
 4898TIP3   OH214650   0.769   7.421   3.392  0.3265  0.4519 -0.1557
 4898TIP3    H114651   0.713   7.495   3.416  1.3341  1.4223 -0.6730
 4898TIP3    H214652   0.772   7.424   3.296  1.4938  0.6288 -0.1297
 4899TIP3   OH214653   0.029   5.268   2.797 -0.2594  0.0293  0.2411
 4899TIP3    H114654   0.045   5.355   2.833  2.1659 -0.4063  0.3750
 4899TIP3    H214655   0.031   5.280   2.702 -2.0864  0.4261  0.2197
 4900TIP3   OH214656   1.021   2.906   1.067  0.0678  0.3203  0.3183
 4900TIP3    H114657   0.987   2.987   1.028 -1.0179 -0.0827  0.3920
 4900TIP3    H214658   0.978   2.900   1.152 -0.5750 -0.7821 -0.0553
 4901TIP3   OH214659   3.394   0.186   5.568 -0.3979  0.1291  0.1591
 4901TIP3    H114660   3.363   0.273   5.593  0.5223  0.5013  0.0862
 4901TIP3    H214661   3.489   0.198   5.555 -0.5069 -0.5060 -1.4464
 4902TIP3   OH214662   7.774   7.568   0.622 -0.1676  0.2026 -0.3813
 4902TIP3    H114663   7.826   7.642   0.654 -1.5691  0.4983  1.3733
 4902TIP3    H214664   7.702   7.608   0.574  0.4701 -0.1506 -1.6590
 4903TIP3   OH214665   4.303   2.542   2.016 -1.1871 -0.1429  0.1801
 4903TIP3    H114666   4.368   2.495   2.069 -1.1296 -1.3525 -0.9255
 4903TIP3    H214667   4.219   2.519   2.055 -1.1061 -0.5519  0.1180
 4904TIP3   OH214668   5.964   1.688   0.788 -0.1420  0.3279 -0.8938
 4904TIP3    H114669   6.055   1.665   0.768  0.7747  2.7584 -0.0006
 4904TIP3    H214670   5.946   1.765   0.734 -1.1020  0.8341  0.1047
 4905TIP3   OH214671   6.240   5.547   2.037  0.2815  0.7072  0.0409
 4905TIP3    H114672   6.180   5.472   2.032 -0.5627  1.4759 -2.3313
 4905TIP3    H214673   6.312   5.524   1.979  0.8513  1.0672  0.5870
 4906TIP3   OH214674   3.602   1.884   4.927 -0.0150  0.1664 -0.3937
 4906TIP3    H114675   3.630   1.957   4.871 -0.5100  0.0236 -0.8420
 4906TIP3    H214676   3.574   1.926   5.009 -4.6670  1.1364 -2.1428
 4907TIP3   OH214677   0.724   0.560   6.596 -0.0825 -0.0209 -0.0116
 4907TIP3    H114678   0.782   0.553   6.520 -0.0780  1.3144 -0.1592
 4907TIP3    H214679   0.779   0.539   6.671  0.8211  1.8234 -0.0815
 4908TIP3   OH214680   4.959   2.035   6.240  0.6373 -0.0794  0.4632
 4908TIP3    H114681   4.913   2.082   6.170 -0.1592 -1.9282 -0.3120
 4908TIP3    H214682   4.962   1.944   6.210  1.2076 -0.7355  2.3695
 4909TIP3   OH214683   7.881   1.637   6.651  0.1249 -0.3205  0.4596
 4909TIP3    H114684   7.951   1.591   6.697  1.5408  1.0420 -0.2331
 4909TIP3    H214685   7.873   1.592   6.567 -2.2506 -2.6151  1.7596
 4910TIP3   OH214686   3.244   3.733   3.717  0.2356 -0.1663 -0.4786
 4910TIP3    H114687   3.220   3.656   3.770 -3.0134  0.1927 -1.1759
 4910TIP3    H214688   3.244   3.805   3.779 -0.0321 -0.2636 -0.3619
 4911TIP3   OH214689   3.775   3.605   2.804  0.5035 -0.1594  0.1552
 4911TIP3    H114690   3.753   3.693   2.771  0.6605  0.7003  2.1876
 4911TIP3    H214691   3.692   3.566   2.828  0.6362  0.7111  2.1852
 4912TIP3   OH214692   2.560   6.787   2.971 -0.3262  0.5920  0.0761
 4912TIP3    H114693   2.624   6.800   3.041 -0.3735 -1.3765  0.5198
 4912TIP3    H214694   2.512   6.870   2.967  1.1841  1.5441  0.8019
 4913TIP3   OH214695   1.906   2.095   6.649  0.4112  0.0403 -0.1158
 4913TIP3    H114696   1.910   2.184   6.684 -0.4803 -0.4649  1.3346
 4913TIP3    H214697   1.813   2.074   6.647  0.5286 -0.4397 -1.6120
 4914TIP3   OH214698   7.447   0.201   4.799  0.3209  0.6462  0.0537
 4914TIP3    H114699   7.473   0.291   4.820 -0.5009  1.5224 -2.3107
 4914TIP3    H214700   7.362   0.210   4.755 -1.0774 -1.5583  2.0705
 4915TIP3   OH214701   5.147   0.333   3.045  0.0545 -0.1727  0.1404
 4915TIP3    H114702   5.105   0.309   2.962 -0.9995  1.0666  0.2833
 4915TIP3    H214703   5.172   0.425   3.033  1.9994 -0.6329  0.3865
 4916TIP3   OH214704   4.050   6.508   2.930 -0.2740 -0.1871  0.2083
 4916TIP3    H114705   4.041   6.449   2.854 -0.6809  0.6201 -0.3850
 4916TIP3    H214706   3.972   6.564   2.925  0.1279  0.4179  0.7471
 4917TIP3   OH214707   7.903   1.121   6.545 -0.1871 -0.1761  0.4722
 4917TIP3    H114708   7.966   1.052   6.567  0.8752  0.7053  0.2870
 4917TIP3    H214709   7.875   1.157   6.629 -0.4266 -0.5572  0.5553
 4918TIP3   OH214710   2.178   0.584   5.677 -0.0176  0.7928  0.1692
 4918TIP3    H114711   2.172   0.649   5.748 -2.8181  0.7609  0.0758
 4918TIP3    H214712   2.223   0.631   5.607  0.8335  1.5537  1.1691
 4919TIP3   OH214713   2.920   5.627   2.184 -0.3614 -0.0220  0.3725
 4919TIP3    H114714   2.875   5.552   2.223 -0.7399 -1.7380 -2.9161
 4919TIP3    H214715   3.013   5.605   2.189 -0.3790 -0.0256  0.6826
 4920TIP3   OH214716   2.975   6.948   5.700  0.0044 -0.2104  0.5171
 4920TIP3    H114717   2.910   7.013   5.726 -2.0640  0.0032 -4.1719
 4920TIP3    H214718   3.055   6.998   5.684 -0.7067  0.7283 -0.2106
 4921TIP3   OH214719   0.415   5.283   0.909 -0.7013 -0.1160 -0.8358
 4921TIP3    H114720   0.390   5.365   0.867 -1.5407 -0.3478 -0.8026
 4921TIP3    H214721   0.385   5.215   0.849  1.5971 -0.4058 -1.7579
 4922TIP3   OH214722   5.827   3.631   2.233 -0.2259  0.0057  0.0277
 4922TIP3    H114723   5.887   3.616   2.307  0.6498  0.9750 -0.4576
 4922TIP3    H214724   5.885   3.655   2.160 -1.2258  1.2588 -0.3785
 4923TIP3   OH214725   4.820   1.714   6.178 -0.2881 -0.1036 -0.1584
 4923TIP3    H114726   4.812   1.643   6.115 -0.3005 -1.5110  1.3623
 4923TIP3    H214727   4.739   1.764   6.169 -0.1933 -0.1550 -1.3759
 4924TIP3   OH214728   8.298   5.516   2.931 -1.1069 -0.2154 -0.4161
 4924TIP3    H114729   8.333   5.461   3.002  0.8665 -0.1538 -1.2649
 4924TIP3    H214730   8.220   5.557   2.969 -1.1451 -1.5738  1.1023
 4925TIP3   OH214731   5.959   6.516   3.572 -0.1265  0.1779 -0.2869
 4925TIP3    H114732   6.054   6.514   3.586  0.0657 -1.2499 -1.4963
 4925TIP3    H214733   5.947   6.575   3.497 -0.3439  1.3212  0.6182
 4926TIP3   OH214734   2.939   5.318   0.677  0.3939 -0.4527 -0.3697
 4926TIP3    H114735   2.959   5.292   0.767  0.7471 -1.3173 -0.6796
 4926TIP3    H214736   2.853   5.360   0.682  0.8207  0.3447  0.5035
 4927TIP3   OH214737   7.221   5.156   4.623 -0.0408  0.0646 -0.0258
 4927TIP3    H114738   7.213   5.237   4.573  1.0231 -0.4323 -1.0630
 4927TIP3    H214739   7.197   5.087   4.560  1.4224 -0.5831  0.0739
 4928TIP3   OH214740   4.111   6.947   6.216  0.2448  0.2508  0.0220
 4928TIP3    H114741   4.194   6.995   6.220  0.6788 -0.1981 -2.2041
 4928TIP3    H214742   4.084   6.938   6.307  3.7824 -1.5917  1.0452
 4929TIP3   OH214743   7.408   1.988   0.835 -0.5655  0.0747 -0.6593
 4929TIP3    H114744   7.462   1.916   0.869 -0.7383  1.2482  2.4228
 4929TIP3    H214745   7.324   1.947   0.815  0.2832 -1.1072 -1.9426
 4930TIP3   OH214746   2.293   5.230   4.284 -0.2757 -0.1576  0.2068
 4930TIP3    H114747   2.278   5.230   4.190 -0.0034 -0.8330  0.1560
 4930TIP3    H214748   2.272   5.141   4.312  0.3440 -0.1720  0.6599
 4931TIP3   OH214749   6.741   0.198   3.322  0.1653  0.2028 -0.1404
 4931TIP3    H114750   6.787   0.219   3.240 -0.8252 -0.2686 -0.8337
 4931TIP3    H214751   6.775   0.262   3.385  1.3018  0.2694 -0.7816
 4932TIP3   OH214752   4.694   5.934   2.084 -0.0465  0.1699 -0.1994
 4932TIP3    H114753   4.678   5.982   2.165 -1.7782 -1.3475  0.4224
 4932TIP3    H214754   4.692   5.841   2.110 -0.2211 -0.3356 -1.8936
 4933TIP3   OH214755   4.416   5.891   2.630  0.0806 -0.0322 -0.0397
 4933TIP3    H114756   4.438   5.954   2.562  3.3252 -0.8572  0.0674
 4933TIP3    H214757   4.388   5.944   2.704 -0.5149  1.0510 -1.0031
 4934TIP3   OH214758   0.938   7.623   4.772 -0.5269  0.0799 -0.7038
 4934TIP3    H114759   0.865   7.633   4.710  0.8787  1.3360 -2.2633
 4934TIP3    H214760   0.984   7.545   4.741 -0.5533 -0.0497 -0.4191
 4935TIP3   OH214761   1.700   3.032   5.544 -0.4376 -0.0885  0.5006
 4935TIP3    H114762   1.638   3.001   5.610  0.6299  0.0296  1.5883
 4935TIP3    H214763   1.722   3.121   5.571 -1.5620  0.7701 -1.2035
 4936TIP3   OH214764   8.238   2.286   4.002 -0.0892 -0.2605 -0.4109
 4936TIP3    H114765   8.176   2.266   4.073 -0.5448 -1.0065 -1.0001
 4936TIP3    H214766   8.295   2.209   3.998  1.1204  0.5615  0.3463
 4937TIP3   OH214767   8.150   4.430   0.318 -0.3706 -0.5017  0.3088
 4937TIP3    H114768   8.213   4.489   0.360  1.7788 -1.0423 -1.9632
 4937TIP3    H214769   8.120   4.479   0.241  2.3163 -2.5501 -2.2813
 4938TIP3   OH214770   7.793   0.493   4.531 -0.3603  0.5612 -0.3096
 4938TIP3    H114771   7.784   0.499   4.626 -0.1575 -0.4922 -0.2117
 4938TIP3    H214772   7.746   0.569   4.497 -0.2327  1.0757  0.6429
 4939TIP3   OH214773   2.992   3.583   2.242 -0.0234 -0.4077 -0.7636
 4939TIP3    H114774   2.909   3.550   2.276  0.2175 -0.3788 -0.1412
 4939TIP3    H214775   3.036   3.505   2.208  0.4905 -0.7393  0.5905
 4940TIP3   OH214776   6.578   6.815   0.928  0.2437  0.0054  0.2214
 4940TIP3    H114777   6.628   6.882   0.881  1.2059 -0.5788  0.3926
 4940TIP3    H214778   6.577   6.846   1.019  2.2906 -1.0934  0.6697
 4941TIP3   OH214779   8.021   4.522   5.356  0.0782 -0.2139  0.7986
 4941TIP3    H114780   8.041   4.592   5.294 -1.1007  0.4676  1.1693
 4941TIP3    H214781   7.961   4.561   5.418  1.0036 -0.9848  2.2255
 4942TIP3   OH214782   8.155   7.032   4.229 -0.1240  0.0077  0.0615
 4942TIP3    H114783   8.145   7.088   4.307 -0.5556 -0.5351  0.4032
 4942TIP3    H214784   8.250   7.025   4.217  0.1326 -2.8031  2.6980
 4943TIP3   OH214785   4.890   2.521   2.948 -0.6782  1.4235 -0.0190
 4943TIP3    H114786   4.971   2.470   2.959 -1.6538 -0.3207 -0.3882
 4943TIP3    H214787   4.916   2.612   2.959  1.4977  0.9710 -0.9564
 4944TIP3   OH214788   0.845   1.968   6.384  0.7284  0.3539 -0.1023
 4944TIP3    H114789   0.836   1.988   6.290  1.3837 -0.2345 -0.2922
 4944TIP3    H214790   0.866   1.875   6.387 -1.8915 -0.2987  0.7624
 4945TIP3   OH214791   0.364   6.450   5.309 -0.3629 -0.2354 -0.1176
 4945TIP3    H114792   0.387   6.358   5.302 -0.6616 -0.2887 -0.4526
 4945TIP3    H214793   0.295   6.463   5.243  0.3849  0.4538 -0.7971
 4946TIP3   OH214794   6.497   7.732   1.322  0.0419  0.5482  0.0390
 4946TIP3    H114795   6.489   7.649   1.275  1.9682 -0.4926  1.3962
 4946TIP3    H214796   6.518   7.796   1.255 -1.8139  0.0457 -1.0901
 4947TIP3   OH214797   5.311   6.500   0.464 -0.8420  0.1302 -0.8009
 4947TIP3    H114798   5.366   6.429   0.431 -0.9547  0.0941 -0.9125
 4947TIP3    H214799   5.225   6.483   0.426 -1.2567 -0.5413  0.4010
 4948TIP3   OH214800   7.129   0.237   0.147 -0.8864  0.0818  0.3391
 4948TIP3    H114801   7.206   0.291   0.164 -0.1272 -0.5921 -0.7882
 4948TIP3    H214802   7.094   0.270   0.065 -2.3198  0.9235  1.2564
 4949TIP3   OH214803   0.266   7.636   5.597 -0.6715 -0.3894  0.1204
 4949TIP3    H114804   0.341   7.692   5.618 -0.7780  0.1892 -0.9798
 4949TIP3    H214805   0.304   7.548   5.590  0.0034 -0.0422 -0.8339
 4950TIP3   OH214806   4.747   4.659   4.361  0.7039  0.1304  0.2818
 4950TIP3    H114807   4.713   4.663   4.450  0.5793  0.5854  0.2180
 4950TIP3    H214808   4.749   4.750   4.332  1.4893  0.0588  0.0971
 4951TIP3   OH214809   6.202   4.208   1.385 -0.6623  0.5654 -0.0336
 4951TIP3    H114810   6.279   4.236   1.434  0.1899 -0.3427 -0.8126
 4951TIP3    H214811   6.210   4.252   1.300  0.1530 -1.1786 -0.8967
 4952TIP3   OH214812   1.941   7.247   4.690  0.6049 -0.9193 -0.5771
 4952TIP3    H114813   1.929   7.260   4.596 -0.8174  1.4087 -0.1527
 4952TIP3    H214814   1.856   7.268   4.728  0.8854 -2.7079  1.1870
 4953TIP3   OH214815   2.284   4.228   3.868  0.0339 -0.7216 -0.0039
 4953TIP3    H114816   2.329   4.196   3.789 -1.0298 -0.5972 -0.6844
 4953TIP3    H214817   2.238   4.306   3.838 -0.4415 -0.7170  0.7307
 4954TIP3   OH214818   5.534   1.019   3.278 -0.8418 -0.7696  0.2261
 4954TIP3    H114819   5.568   1.048   3.363  0.6538 -1.1178 -0.2283
 4954TIP3    H214820   5.452   1.067   3.267  0.6089  1.8938  0.3532
 4955TIP3   OH214821   4.605   0.778   1.360  0.8645  0.2070 -0.0004
 4955TIP3    H114822   4.579   0.774   1.452 -1.4961 -0.6481 -0.6207
 4955TIP3    H214823   4.671   0.709   1.350  1.2014  0.3659  1.0464
 4956TIP3   OH214824   6.593   1.536   4.310  0.2846  0.4770  0.4475
 4956TIP3    H114825   6.656   1.560   4.377 -1.0456 -2.0174  2.8191
 4956TIP3    H214826   6.508   1.546   4.352 -0.7054  0.2814 -1.4021
 4957TIP3   OH214827   2.970   3.132   4.316  0.4427  0.1613  0.0763
 4957TIP3    H114828   2.975   3.064   4.384 -0.8949 -1.5288 -1.4244
 4957TIP3    H214829   2.963   3.214   4.365  1.8047 -0.7746  1.9599
 4958TIP3   OH214830   5.585   4.281   0.411 -0.9407 -0.4843  0.5023
 4958TIP3    H114831   5.502   4.274   0.365 -0.5187 -0.6362 -0.2590
 4958TIP3    H214832   5.583   4.368   0.451 -0.8597  0.1134 -0.7503
 4959TIP3   OH214833   1.556   1.987   1.099  0.8285 -0.1981  0.1648
 4959TIP3    H114834   1.511   1.905   1.119  1.7092 -0.8080 -0.3056
 4959TIP3    H214835   1.529   2.046   1.169 -0.9731 -0.4182 -0.2892
 4960TIP3   OH214836   0.916   2.020   5.961 -0.4783 -0.3915  0.1305
 4960TIP3    H114837   0.827   2.046   5.937 -0.3535 -0.4494 -0.4204
 4960TIP3    H214838   0.962   2.013   5.877  0.3079  0.5907  0.4693
 4961TIP3   OH214839   6.889   7.441   6.007 -0.0339 -0.3058  0.2451
 4961TIP3    H114840   6.846   7.456   6.091  1.4800  1.3979  0.7828
 4961TIP3    H214841   6.901   7.529   5.970 -0.8169 -1.0120 -1.8677
 4962TIP3   OH214842   2.475   3.721   6.578 -0.0901  0.1128  0.0255
 4962TIP3    H114843   2.498   3.812   6.599  1.8143 -0.2173 -0.4405
 4962TIP3    H214844   2.380   3.723   6.564 -0.6282  1.4097  3.0900
 4963TIP3   OH214845   6.033   4.497   0.918  0.5246 -0.6660  0.1083
 4963TIP3    H114846   5.942   4.492   0.887  0.7274 -1.3001 -0.4139
 4963TIP3    H214847   6.084   4.519   0.840  0.5912  2.0387  0.8286
 4964TIP3   OH214848   6.032   6.609   0.920  0.2909  0.1817  0.1406
 4964TIP3    H114849   6.017   6.650   1.005  1.0474 -0.9639  0.8650
 4964TIP3    H214850   5.969   6.537   0.917  0.7782 -0.2511  0.0775
 4965TIP3   OH214851   7.368   7.226   2.038 -0.5682  0.3048  0.6984
 4965TIP3    H114852   7.309   7.298   2.015 -0.8105 -0.0994  0.0110
 4965TIP3    H214853   7.423   7.215   1.961  0.7847  1.0128  1.5197
 4966TIP3   OH214854   3.762   7.654   4.872 -0.2994  0.7385  0.3041
 4966TIP3    H114855   3.817   7.663   4.951 -0.4552  2.6268  0.2492
 4966TIP3    H214856   3.676   7.684   4.900 -0.2487  1.8747 -0.6675
 4967TIP3   OH214857   0.530   2.862   3.993 -0.2782  0.8504 -0.1440
 4967TIP3    H114858   0.562   2.858   3.903  1.4006 -1.2231  0.4518
 4967TIP3    H214859   0.609   2.858   4.046 -1.2790  1.4661  1.4440
 4968TIP3   OH214860   2.006   6.470   1.213  0.8050  0.7611 -0.2664
 4968TIP3    H114861   1.913   6.473   1.238  1.0961 -0.0069  1.0040
 4968TIP3    H214862   2.024   6.376   1.203  1.5237  0.8888 -0.1719
 4969TIP3   OH214863   2.855   4.445   4.216 -0.2994  0.4705 -0.1344
 4969TIP3    H114864   2.865   4.531   4.177 -0.1729  0.9723  0.9587
 4969TIP3    H214865   2.944   4.409   4.218 -0.0586  1.0693  1.0267
 4970TIP3   OH214866   2.219   0.246   5.298  0.3557  0.1317  0.0999
 4970TIP3    H114867   2.270   0.275   5.223 -0.1435  0.0101 -0.2900
 4970TIP3    H214868   2.148   0.310   5.306  0.4546  0.1925  0.5200
 4971TIP3   OH214869   2.412   5.436   5.247  0.1864  0.2866 -0.6095
 4971TIP3    H114870   2.438   5.346   5.225  0.1676 -0.3235  1.5653
 4971TIP3    H214871   2.467   5.491   5.192  0.1225 -1.0460 -2.0745
 4972TIP3   OH214872   0.452   5.698   1.879 -0.1373 -0.0153 -0.0515
 4972TIP3    H114873   0.494   5.697   1.965 -0.2071  0.5037 -0.0083
 4972TIP3    H214874   0.459   5.608   1.848  1.2807  0.1125 -0.1785
 4973TIP3   OH214875   0.171   1.944   5.504 -0.0765 -0.4093 -0.8742
 4973TIP3    H114876   0.182   2.012   5.438  0.3066  1.0583  0.6186
 4973TIP3    H214877   0.245   1.885   5.490  2.0530  1.7891  0.3581
 4974TIP3   OH214878   1.295   2.197   3.148  0.0182  0.0920  0.0827
 4974TIP3    H114879   1.264   2.142   3.220 -1.0507  0.0191 -0.4186
 4974TIP3    H214880   1.218   2.245   3.119 -0.1033 -1.4060 -2.3666
 4975TIP3   OH214881   7.017   2.725   3.002 -0.1656  0.3954 -0.3840
 4975TIP3    H114882   7.033   2.710   3.096 -3.1366  0.2730  0.1851
 4975TIP3    H214883   7.045   2.816   2.987  2.0450 -0.1346  0.1194
 4976TIP3   OH214884   5.977   7.343   2.936  0.1376 -0.2668  0.4908
 4976TIP3    H114885   5.950   7.433   2.916 -0.3026 -0.9692 -2.6145
 4976TIP3    H214886   6.071   7.341   2.917  0.0443 -0.5591  0.0346
 4977TIP3   OH214887   4.238   7.084   2.593 -0.6466  0.4330  0.0239
 4977TIP3    H114888   4.305   7.036   2.543 -0.5159 -0.9265  1.4102
 4977TIP3    H214889   4.155   7.053   2.558 -0.6210 -2.4154  2.1523
 4978TIP3   OH214890   1.145   3.645   6.493 -0.4863  0.1894 -0.0230
 4978TIP3    H114891   1.221   3.612   6.540 -0.6123  1.4939  1.1602
 4978TIP3    H214892   1.181   3.711   6.433 -0.7030  1.0921  0.8191
 4979TIP3   OH214893   1.290   4.501   2.500  0.3876 -0.5543 -0.5715
 4979TIP3    H114894   1.382   4.474   2.495  0.7297  0.4782 -0.0907
 4979TIP3    H214895   1.282   4.568   2.431 -0.1614 -1.0622 -1.0071
 4980TIP3   OH214896   5.820   5.083   5.342  0.1016 -0.0223 -0.0551
 4980TIP3    H114897   5.899   5.060   5.391 -0.5802 -0.2317  0.9951
 4980TIP3    H214898   5.831   5.041   5.257  0.8238 -0.6107  0.3197
 4981TIP3   OH214899   1.271   3.859   0.619 -0.2008 -0.1368  0.3712
 4981TIP3    H114900   1.279   3.792   0.687 -1.5989  0.0641  0.7497
 4981TIP3    H214901   1.205   3.920   0.653 -0.1062  0.5658 -0.6801
 4982TIP3   OH214902   4.883   3.731   0.856 -0.4389 -0.2604  0.1698
 4982TIP3    H114903   4.840   3.773   0.930 -1.0657  0.1809 -0.4228
 4982TIP3    H214904   4.854   3.781   0.780  3.3271  1.8709 -0.0789
 4983TIP3   OH214905   2.193   6.287   5.065 -0.1215 -0.0790  0.4542
 4983TIP3    H114906   2.135   6.355   5.099 -0.7324 -0.0224 -0.6466
 4983TIP3    H214907   2.277   6.303   5.108  0.1295  2.1908 -0.7169
 4984TIP3   OH214908   7.879   2.904   6.173  0.3468  0.2514 -0.2761
 4984TIP3    H114909   7.948   2.904   6.239 -1.1963  1.0110  1.4256
 4984TIP3    H214910   7.810   2.848   6.210  0.6948 -2.0408 -2.7461
 4985TIP3   OH214911   6.343   0.324   5.746  0.4667  0.0896  0.2156
 4985TIP3    H114912   6.435   0.331   5.772  0.8579 -2.3008 -0.2927
 4985TIP3    H214913   6.334   0.236   5.710 -1.6477  0.8519 -1.3868
 4986TIP3   OH214914   0.494   3.721   2.123  0.3894  0.0102  0.4731
 4986TIP3    H114915   0.444   3.796   2.153 -1.4466  0.0201 -2.2414
 4986TIP3    H214916   0.459   3.646   2.172 -1.1970  0.2763 -0.1875
 4987TIP3   OH214917   2.021   5.708   0.734  0.2496  0.1536 -1.0513
 4987TIP3    H114918   2.100   5.680   0.780  0.9714  1.5093 -1.4038
 4987TIP3    H214919   2.012   5.648   0.661  0.8157 -0.1563 -0.8647
 4988TIP3   OH214920   8.112   2.220   2.489 -0.2879 -0.5009  0.1366
 4988TIP3    H114921   8.069   2.247   2.408 -0.5037 -2.5822 -0.4976
 4988TIP3    H214922   8.145   2.302   2.527 -2.2945  0.8134 -0.7908
 4989TIP3   OH214923   2.893   7.128   4.956 -0.4117 -0.0791 -0.1463
 4989TIP3    H114924   2.984   7.142   4.931 -0.3698  1.3938  0.7312
 4989TIP3    H214925   2.843   7.147   4.876 -0.0135  0.3227 -0.3034
 4990TIP3   OH214926   0.124   3.073   1.599 -0.5065  0.6596 -0.0021
 4990TIP3    H114927   0.148   3.008   1.665 -1.0682  1.4076  0.9673
 4990TIP3    H214928   0.163   3.040   1.518 -0.4035 -0.6560  0.5453
 4991TIP3   OH214929   4.027   1.336   0.096 -0.1607 -0.3597 -0.3355
 4991TIP3    H114930   3.972   1.289   0.033 -0.1146 -0.0173 -0.6372
 4991TIP3    H214931   3.966   1.387   0.148 -0.3233 -1.6446  0.7809
 4992TIP3   OH214932   7.416   7.476   6.041  1.1043 -0.1704  0.4483
 4992TIP3    H114933   7.363   7.402   6.069  1.6848 -1.2816 -1.2304
 4992TIP3    H214934   7.458   7.446   5.960  1.2471  2.0541 -0.3624
 4993TIP3   OH214935   6.132   0.024   6.651  0.0655 -0.1867 -0.2164
 4993TIP3    H114936   6.152  -0.054   6.702  0.0976  0.5696  0.9513
 4993TIP3    H214937   6.200   0.087   6.675  0.0881  0.1963 -1.2006
 4994TIP3   OH214938   2.799   4.018   5.986 -0.1807 -0.3015 -0.0054
 4994TIP3    H114939   2.719   4.020   6.039 -0.3447 -0.2845 -0.2523
 4994TIP3    H214940   2.795   3.934   5.941  0.2636 -0.5869  0.4742
 4995TIP3   OH214941   2.151   3.368   5.159  0.1673 -0.1596  0.0908
 4995TIP3    H114942   2.162   3.455   5.198  0.8934 -0.0399 -0.3508
 4995TIP3    H214943   2.072   3.376   5.105  0.2840  0.2558 -0.0252
 4996TIP3   OH214944   4.451   2.322   5.912  0.4638 -0.3910 -0.1621
 4996TIP3    H114945   4.512   2.394   5.927 -0.6993  0.6052 -0.0012
 4996TIP3    H214946   4.501   2.243   5.930  2.5046  0.1911 -2.7373
 4997TIP3   OH214947   1.516   0.762   0.621  1.3175  0.1725  0.2931
 4997TIP3    H114948   1.491   0.814   0.544  1.0194 -0.9139 -0.3757
 4997TIP3    H214949   1.539   0.676   0.585  3.0580  0.1952  1.2193
 4998TIP3   OH214950   2.769   3.605   4.162 -0.2435  0.0342 -0.5809
 4998TIP3    H114951   2.707   3.547   4.206 -0.8611  0.4011 -0.9547
 4998TIP3    H214952   2.759   3.584   4.069 -0.1815  0.4484 -0.6832
 4999TIP3   OH214953   4.219   4.978   1.612 -0.2232  0.1913  0.1219
 4999TIP3    H114954   4.210   4.909   1.678  0.2967 -0.3524 -0.3667
 4999TIP3    H214955   4.237   5.057   1.663  0.4049 -0.2649  0.6201
 5000TIP3   OH214956   4.492   6.722   5.165 -0.2797  0.2641  0.7832
 5000TIP3    H114957   4.494   6.701   5.071  1.8439  0.2463  0.7912
 5000TIP3    H214958   4.557   6.791   5.176 -0.4962  0.2614  2.2433
 5001TIP3   OH214959   5.087   7.157   5.254 -0.4652  0.1432 -0.1921
 5001TIP3    H114960   5.136   7.207   5.188 -2.5246  1.9787 -0.4515
 5001TIP3    H214961   5.085   7.214   5.331 -0.2766 -0.8823  0.5968
 5002TIP3   OH214962   2.240   2.297   6.602  0.1498  0.2406 -0.1971
 5002TIP3    H114963   2.244   2.325   6.693 -1.8915  0.9948 -0.2969
 5002TIP3    H214964   2.307   2.228   6.596 -0.4895 -0.6943  2.1663
 5003TIP3   OH214965   3.312   1.609   2.739  0.5116 -0.2441 -0.1125
 5003TIP3    H114966   3.233   1.585   2.691  0.6435 -1.0650  0.0542
 5003TIP3    H214967   3.353   1.525   2.760  0.0577  0.0567  2.1180
 5004TIP3   OH214968   2.240   6.183   3.449  0.3390  0.0294  0.2614
 5004TIP3    H114969   2.274   6.163   3.362  0.0480 -0.4369  0.2515
 5004TIP3    H214970   2.270   6.272   3.467  1.7962 -0.4626  0.3643
 5005TIP3   OH214971   2.410   6.048   0.084  0.2556  0.0347 -0.4021
 5005TIP3    H114972   2.481   5.993   0.118 -0.6016 -1.2821 -0.6605
 5005TIP3    H214973   2.440   6.137   0.099  1.2183 -0.4913  1.0720
 5006TIP3   OH214974   0.737   5.159   0.372 -0.4924 -0.0595  0.0049
 5006TIP3    H114975   0.757   5.082   0.319 -0.3896  0.1238 -0.2258
 5006TIP3    H214976   0.779   5.142   0.456  0.0329  0.0084 -0.2400
 5007TIP3   OH214977   3.493   1.500   2.977 -0.4420 -0.7209  0.1440
 5007TIP3    H114978   3.452   1.575   3.021 -2.3464 -2.6686  1.9010
 5007TIP3    H214979   3.563   1.473   3.036  2.7036  1.6463 -2.1322
 5008TIP3   OH214980   1.520   6.650   3.619  0.3766 -0.3342  0.0160
 5008TIP3    H114981   1.534   6.719   3.684  1.7070  0.0378 -0.6357
 5008TIP3    H214982   1.432   6.617   3.638 -0.1643  1.3243  0.5402
 5009TIP3   OH214983   4.944   2.937   3.653  0.2065 -0.7349  0.3545
 5009TIP3    H114984   5.006   2.965   3.586  0.5685 -0.0650  0.9524
 5009TIP3    H214985   4.877   3.005   3.654  1.3096  0.4251  2.1092
 5010TIP3   OH214986   0.043   0.895   4.952  0.1427  0.2928  0.6160
 5010TIP3    H114987   0.132   0.899   4.985  1.2958 -3.2397 -1.4570
 5010TIP3    H214988  -0.010   0.877   5.030  1.6470 -0.3253  1.5504
 5011TIP3   OH214989   4.501   4.478   3.423 -0.0932 -0.2713  0.5144
 5011TIP3    H114990   4.418   4.525   3.434  0.0861  0.1508  0.1210
 5011TIP3    H214991   4.520   4.485   3.329 -0.2198 -1.4098  0.3993
 5012TIP3   OH214992   6.911   6.867   2.919  0.1735  0.2933  0.3502
 5012TIP3    H114993   6.825   6.909   2.918  1.0486  2.2081  0.2106
 5012TIP3    H214994   6.956   6.902   2.842  0.7888 -1.3560 -0.0716
 5013TIP3   OH214995   1.663   1.070   3.894  0.2138  0.2707  0.2585
 5013TIP3    H114996   1.583   1.097   3.848  0.2393  0.0616  0.0918
 5013TIP3    H214997   1.642   1.083   3.987  0.2254  0.8645  0.1802
 5014TIP3   OH214998   8.255   0.283   4.832 -0.1003 -1.0461 -0.8391
 5014TIP3    H114999   8.323   0.323   4.778 -0.1863 -1.2143 -1.0710
 5014TIP3    H215000   8.233   0.201   4.788 -1.0293 -0.6146 -1.2231
 5015TIP3   OH215001   1.283   2.318   4.153  0.1295  0.1721  0.0216
 5015TIP3    H115002   1.247   2.292   4.237  3.5723 -1.1923  1.2564
 5015TIP3    H215003   1.251   2.253   4.091 -1.2301  0.3239  0.5263
 5016TIP3   OH215004   8.215   7.427   4.895 -0.0896  0.0200  0.7891
 5016TIP3    H115005   8.309   7.443   4.898 -0.3680  1.7069  3.3661
 5016TIP3    H215006   8.201   7.351   4.951 -0.2866 -0.3177  0.2969
 5017TIP3   OH215007   1.651   7.225   0.254  0.5006 -0.0824 -0.5084
 5017TIP3    H115008   1.664   7.256   0.164 -1.2354  2.0393 -0.1292
 5017TIP3    H215009   1.601   7.144   0.243 -4.6199  2.7486 -1.6540
 5018TIP3   OH215010   0.258   1.717   4.811  0.0766 -0.2946 -0.3370
 5018TIP3    H115011   0.289   1.718   4.720 -1.5841 -0.2759 -0.9400
 5018TIP3    H215012   0.222   1.805   4.824 -1.9289 -1.0339 -0.5207
 5019TIP3   OH215013   1.335   3.555   6.657 -0.1529  0.5093 -0.3603
 5019TIP3    H115014   1.384   3.493   6.603  0.3026 -0.2393  0.8751
 5019TIP3    H215015   1.271   3.501   6.703  0.0679  1.0021  0.5277
 5020TIP3   OH215016   6.069   2.902   3.401 -0.5184  0.1156 -1.2332
 5020TIP3    H115017   5.976   2.887   3.385 -0.5456  0.0458 -1.0102
 5020TIP3    H215018   6.072   2.984   3.451 -0.4882 -0.1257 -0.8427
 5021TIP3   OH215019   3.338   1.432   0.270 -0.2229  0.0912  0.2379
 5021TIP3    H115020   3.325   1.525   0.254  0.1483  0.2402  0.7791
 5021TIP3    H215021   3.324   1.422   0.364 -3.2106 -0.8909 -0.2011
 5022TIP3   OH215022   5.426   2.317   0.525 -0.0284 -0.5974  0.4026
 5022TIP3    H115023   5.366   2.312   0.451  0.0405 -2.0443  0.4203
 5022TIP3    H215024   5.478   2.237   0.519  1.6280  0.4072  0.6264
 5023TIP3   OH215025   5.028   2.799   2.993 -0.1179  0.3248 -0.4640
 5023TIP3    H115026   5.104   2.855   2.979 -0.0551  0.3309 -0.1180
 5023TIP3    H215027   4.997   2.822   3.081  0.8846 -1.3187  0.3678
 5024TIP3   OH215028   2.429   1.449   4.235  0.0698  0.0007 -0.7823
 5024TIP3    H115029   2.519   1.474   4.217 -0.3817 -0.3425 -4.0058
 5024TIP3    H215030   2.429   1.353   4.231  0.1547 -0.3219  2.9929
 5025TIP3   OH215031   2.957   4.852   1.961  0.0822  0.2304  0.4914
 5025TIP3    H115032   2.922   4.821   2.044  0.1302  0.8244  0.7394
 5025TIP3    H215033   2.887   4.906   1.923 -0.6698 -1.5136 -0.7492
 5026TIP3   OH215034   6.463   4.251   1.840  0.0561 -0.6917  0.1987
 5026TIP3    H115035   6.448   4.168   1.884 -0.5470 -0.5465  0.2658
 5026TIP3    H215036   6.470   4.315   1.910 -0.0639 -0.5920  0.1198
 5027TIP3   OH215037   1.573   5.817   3.264 -0.7613  0.2246  0.0629
 5027TIP3    H115038   1.627   5.743   3.292  0.5198  0.8223 -0.6973
 5027TIP3    H215039   1.634   5.874   3.217 -1.7202  1.7399  0.5768
 5028TIP3   OH215040   3.964   5.290   4.456 -0.5934 -0.2120 -0.1678
 5028TIP3    H115041   4.035   5.258   4.512 -1.2402 -0.1072  0.7276
 5028TIP3    H215042   3.884   5.272   4.504 -1.0416  1.9798  0.0355
 5029TIP3   OH215043   7.449   4.988   5.378  0.1687  0.0983 -0.6305
 5029TIP3    H115044   7.355   4.977   5.361 -0.1980  0.6864  0.8346
 5029TIP3    H215045   7.489   4.988   5.292 -1.1341 -0.5586 -1.2743
 5030TIP3   OH215046   3.042   1.127   5.454  0.3166 -0.1038 -0.7161
 5030TIP3    H115047   2.991   1.051   5.485  2.6985 -1.2176  0.7662
 5030TIP3    H215048   3.045   1.116   5.359  1.2719 -2.4087 -0.5002
 5031TIP3   OH215049   3.371   0.994   4.653 -0.3221  0.3490  0.0788
 5031TIP3    H115050   3.408   0.995   4.564 -1.5778  0.7677 -0.4562
 5031TIP3    H215051   3.448   0.993   4.710  0.5139 -0.1001 -1.0052
 5032TIP3   OH215052   2.711   2.129   3.034 -0.3723 -0.0486 -0.7073
 5032TIP3    H115053   2.739   2.125   2.943  1.8727  1.0358 -0.1171
 5032TIP3    H215054   2.675   2.042   3.052 -0.6123 -0.3569 -2.5278
 5033TIP3   OH215055   5.332   0.498   6.676  0.2133  0.3643  0.0625
 5033TIP3    H115056   5.335   0.544   6.759  0.2378  1.6536 -0.6309
 5033TIP3    H215057   5.268   0.545   6.624  1.2262  0.4723 -1.1499
 5034TIP3   OH215058   6.208   2.841   2.338  0.3973  0.4554  0.0428
 5034TIP3    H115059   6.133   2.827   2.281  2.5686 -1.3852 -2.6054
 5034TIP3    H215060   6.270   2.891   2.286  1.7592  0.3499  1.4722
 5035TIP3   OH215061   8.162   2.789   6.194 -0.1414  0.3356 -0.3072
 5035TIP3    H115062   8.148   2.865   6.250 -0.0482  0.6975 -0.7611
 5035TIP3    H215063   8.255   2.795   6.169 -0.3320  0.5409 -1.0035
 5036TIP3   OH215064   7.779   4.518   6.707  0.1472  0.4930  0.1980
 5036TIP3    H115065   7.852   4.578   6.695  1.1403 -0.5375  0.8591
 5036TIP3    H215066   7.803   4.466   6.783  0.9384 -2.9314 -2.1265
 5037TIP3   OH215067   0.030   2.306   6.395  0.0580 -0.2337  0.2246
 5037TIP3    H115068   0.079   2.336   6.472  0.4002  1.1795 -0.5112
 5037TIP3    H215069   0.075   2.227   6.367  0.7449 -0.0202  0.6977
 5038TIP3   OH215070   2.779   1.462   3.371  0.2358 -0.0163  0.2366
 5038TIP3    H115071   2.709   1.478   3.434  0.5844  0.2023  0.5737
 5038TIP3    H215072   2.734   1.457   3.287 -0.1203  0.7384  0.3673
 5039TIP3   OH215073   3.154   6.754   5.455 -0.4271  0.2894 -0.1324
 5039TIP3    H115074   3.207   6.791   5.384  1.6917 -2.0877  0.0495
 5039TIP3    H215075   3.163   6.817   5.526 -0.8684  1.6980 -1.2777
 5040TIP3   OH215076   2.931   7.268   4.368 -0.2079 -0.0211 -0.0391
 5040TIP3    H115077   2.999   7.235   4.309 -1.4894 -0.8728 -1.1048
 5040TIP3    H215078   2.942   7.216   4.448 -0.1010 -0.7020 -0.4892
 5041TIP3   OH215079   0.083   1.879   2.782  0.1562 -0.7019 -0.0143
 5041TIP3    H115080   0.164   1.931   2.778  0.3272 -0.9338  0.4046
 5041TIP3    H215081   0.074   1.855   2.874 -0.4243 -0.6302 -0.0492
 5042TIP3   OH215082   2.670   7.517   3.723 -0.3725  0.6233 -0.2219
 5042TIP3    H115083   2.711   7.579   3.661 -0.0170  0.4920 -0.1197
 5042TIP3    H215084   2.744   7.471   3.763 -0.5803  0.9336  0.5415
 5043TIP3   OH215085   2.531   6.411   1.061 -0.4456 -0.6263  0.0689
 5043TIP3    H115086   2.541   6.469   1.136  2.1768 -1.4065  0.4318
 5043TIP3    H215087   2.498   6.329   1.097 -3.6465  0.3227 -0.3742
 5044TIP3   OH215088  -0.005   5.152   0.807 -0.0870 -0.1644 -0.1289
 5044TIP3    H115089   0.085   5.134   0.779 -0.1249 -0.1502 -0.2585
 5044TIP3    H215090  -0.013   5.247   0.801 -0.3398 -0.2260 -0.8041
 5045TIP3   OH215091   5.047   6.695   1.250 -0.3793 -0.4666  0.1460
 5045TIP3    H115092   5.108   6.756   1.209 -1.3855  0.6485  0.2381
 5045TIP3    H215093   5.056   6.614   1.199  0.9406 -0.2454 -0.0080
 5046TIP3   OH215094   4.487   3.426   0.060 -0.5550 -0.6997  0.0970
 5046TIP3    H115095   4.543   3.464  -0.008 -0.8439 -1.4295 -0.5685
 5046TIP3    H215096   4.398   3.443   0.028 -0.7648  0.9211  1.3992
 5047TIP3   OH215097   6.507   4.661   1.933 -0.7042 -0.4968 -0.1777
 5047TIP3    H115098   6.492   4.748   1.897 -0.8782 -0.7160 -0.6445
 5047TIP3    H215099   6.419   4.627   1.953 -0.5812 -0.1393  1.0394
 5048TIP3   OH215100   1.533   0.225   1.712  0.3260  0.0589 -0.1912
 5048TIP3    H115101   1.562   0.188   1.629 -1.0088  0.5253 -0.8930
 5048TIP3    H215102   1.543   0.320   1.700  0.0380  0.1325  0.1484
 5049TIP3   OH215103   1.932   3.910   2.587  0.7808 -0.0368 -0.3005
 5049TIP3    H115104   1.929   3.902   2.682  0.7858  0.5539 -0.2463
 5049TIP3    H215105   2.011   3.960   2.570 -0.4002  1.8764 -0.4528
 5050TIP3   OH215106   7.395   4.517   4.836 -0.1643 -0.3341 -0.1224
 5050TIP3    H115107   7.432   4.430   4.825  1.0499  0.1679 -0.1812
 5050TIP3    H215108   7.386   4.551   4.747 -2.0694 -0.9347 -0.2118
 5051TIP3   OH215109   3.341   4.843   2.377 -0.8660 -0.2905 -0.0207
 5051TIP3    H115110   3.248   4.867   2.377 -0.6736  0.6722  1.7952
 5051TIP3    H215111   3.357   4.812   2.467  0.5346 -0.6326 -0.3678
 5052TIP3   OH215112   0.644   2.706   1.667  0.4087 -0.0392 -0.2346
 5052TIP3    H115113   0.636   2.619   1.627  2.1257 -0.3461  0.0031
 5052TIP3    H215114   0.605   2.766   1.604 -0.0266 -0.8987 -0.7946
 5053TIP3   OH215115   3.994   0.557   2.122 -0.1147  0.4987 -0.6425
 5053TIP3    H115116   4.079   0.520   2.098  0.0745 -0.9809  1.9857
 5053TIP3    H215117   4.016   0.643   2.159  0.1246  0.5820 -0.9761
 5054TIP3   OH215118   1.444   0.931   3.007 -0.1516  0.0533 -0.0765
 5054TIP3    H115119   1.398   0.981   2.939 -1.1896 -0.4106  0.2679
 5054TIP3    H215120   1.395   0.849   3.015  0.1102 -0.0173  1.0327
 5055TIP3   OH215121   4.722   0.893   0.277 -0.3386  0.0453  1.0399
 5055TIP3    H115122   4.723   0.967   0.337 -0.2402  0.7508  0.1925
 5055TIP3    H215123   4.806   0.898   0.231 -1.0034  0.3953 -0.1805
 5056TIP3   OH215124   0.262   3.050   2.004  0.1355 -0.6168 -0.1069
 5056TIP3    H115125   0.214   3.004   2.074  2.0947 -0.9811  1.0678
 5056TIP3    H215126   0.351   3.058   2.037  0.5736  1.4008 -1.5669
 5057TIP3   OH215127   0.713   6.425   0.796 -0.0668  0.1358  0.0020
 5057TIP3    H115128   0.807   6.443   0.795 -0.1486  1.2686  2.8373
 5057TIP3    H215129   0.705   6.336   0.763  2.0059 -0.0113 -0.2179
 5058TIP3   OH215130   5.280   4.652   4.042  0.0346 -0.3234 -0.3865
 5058TIP3    H115131   5.339   4.672   4.114  0.8142 -2.0449 -0.4998
 5058TIP3    H215132   5.315   4.700   3.967 -0.2769  0.7749  0.1567
 5059TIP3   OH215133   5.121   2.995   6.556  0.3081  0.1569  0.1365
 5059TIP3    H115134   5.081   3.040   6.631  2.5689  0.6286  1.1622
 5059TIP3    H215135   5.084   3.038   6.479  0.0214  1.6000  1.0457
 5060TIP3   OH215136   0.737   4.523   3.659  0.2868  0.2224 -0.2786
 5060TIP3    H115137   0.742   4.455   3.726 -1.0588 -0.8577 -1.2344
 5060TIP3    H215138   0.808   4.503   3.599  0.6255  0.3786  0.0620
 5061TIP3   OH215139   1.752   1.594   3.923 -0.0017  0.3390  0.4259
 5061TIP3    H115140   1.753   1.505   3.889 -0.5583 -0.0789  1.4601
 5061TIP3    H215141   1.673   1.633   3.885  0.2246  0.3771 -0.0026
 5062TIP3   OH215142   1.769   2.767   2.717 -0.0410 -0.8212 -0.0892
 5062TIP3    H115143   1.858   2.796   2.700 -0.7901  1.2423 -0.7923
 5062TIP3    H215144   1.753   2.698   2.653 -0.0911  1.2782 -2.5074
 5063TIP3   OH215145   4.487   1.402   2.556  0.0158  0.7583  0.4805
 5063TIP3    H115146   4.423   1.419   2.626 -0.5570 -0.6616  0.3379
 5063TIP3    H215147   4.536   1.326   2.586  0.1928  0.5229 -0.3783
 5064TIP3   OH215148   0.464   5.956   1.396  0.3925 -0.4337  0.0184
 5064TIP3    H115149   0.504   5.950   1.310  0.9881  0.3299  0.2342
 5064TIP3    H215150   0.446   6.049   1.409  1.4409 -0.3666  1.2092
 5065TIP3   OH215151   5.401   5.073   0.912 -0.0516  0.8824 -0.0908
 5065TIP3    H115152   5.383   5.163   0.940 -0.1147  0.2465  2.1422
 5065TIP3    H215153   5.492   5.057   0.939 -0.3527 -0.0086  0.4681
 5066TIP3   OH215154   0.403   5.488   3.531  0.3959 -0.6842 -0.2160
 5066TIP3    H115155   0.499   5.492   3.523  0.2935  1.0236 -0.9705
 5066TIP3    H215156   0.383   5.543   3.606 -0.1614  1.4790 -1.8807
 5067TIP3   OH215157   2.149   2.233   6.016  0.6064 -0.0069  0.1042
 5067TIP3    H115158   2.175   2.141   6.007  0.3130 -0.0571 -0.2478
 5067TIP3    H215159   2.194   2.263   6.095 -0.0428 -0.7157  0.7558
 5068TIP3   OH215160   2.362   0.759   3.694  0.3803  0.1235  0.2272
 5068TIP3    H115161   2.271   0.785   3.706  0.1957 -1.0062  1.4089
 5068TIP3    H215162   2.358   0.667   3.670  1.2715 -0.5842  2.5477
 5069TIP3   OH215163   2.985   5.372   3.182  0.0062 -0.4726 -0.2381
 5069TIP3    H115164   2.944   5.356   3.267  0.1387 -2.2646 -0.4706
 5069TIP3    H215165   2.959   5.297   3.129  3.0887 -1.4157 -0.5831
 5070TIP3   OH215166   4.753   7.220   5.754  0.3065 -0.1043  0.7515
 5070TIP3    H115167   4.846   7.200   5.750  0.1283 -0.8027 -1.0169
 5070TIP3    H215168   4.714   7.146   5.800  0.3401 -1.1972 -0.8738
 5071TIP3   OH215169   1.127   5.606   5.304  0.2267 -0.9346  0.2952
 5071TIP3    H115170   1.072   5.583   5.230 -2.3363 -0.7895  2.0499
 5071TIP3    H215171   1.177   5.526   5.322  0.5922 -1.0879 -1.2861
 5072TIP3   OH215172   4.519   4.711   1.020  0.7481 -0.0543 -0.1893
 5072TIP3    H115173   4.606   4.692   0.983  0.0598  0.4184 -2.1659
 5072TIP3    H215174   4.479   4.770   0.957 -0.5569  0.7543  1.3465
 5073TIP3   OH215175   6.269   5.392   6.369 -0.6333  0.1887  0.3096
 5073TIP3    H115176   6.365   5.388   6.372 -0.5772  1.1425 -0.0946
 5073TIP3    H215177   6.241   5.302   6.391  0.2434  0.6363  4.0016
 5074TIP3   OH215178   3.807   5.821   1.026  0.5391 -0.3682  0.5241
 5074TIP3    H115179   3.783   5.729   1.036  2.4075 -0.9770 -0.1134
 5074TIP3    H215180   3.851   5.844   1.108  2.4576 -0.9060 -0.2739
 5075TIP3   OH215181   3.436   5.021   1.249 -0.0101  0.4536  0.6476
 5075TIP3    H115182   3.454   5.109   1.281 -1.5631  0.1267  2.6298
 5075TIP3    H215183   3.504   4.966   1.288  0.2367  0.5892  0.4098
 5076TIP3   OH215184   2.172   5.403   5.882  0.4047  0.6270  0.2657
 5076TIP3    H115185   2.176   5.498   5.890 -0.4662  0.8111 -1.1273
 5076TIP3    H215186   2.264   5.375   5.879  0.6623  1.4388  0.4624
 5077TIP3   OH215187   0.725   1.640   5.022 -0.2263 -0.0557  0.3035
 5077TIP3    H115188   0.655   1.578   5.002 -1.0265  0.8522  0.1876
 5077TIP3    H215189   0.711   1.712   4.960  1.4644 -0.3147 -0.4584
 5078TIP3   OH215190   4.938   0.424   2.691 -0.0556  0.3046 -0.3243
 5078TIP3    H115191   4.971   0.338   2.717 -0.0520  0.7343  1.2218
 5078TIP3    H215192   5.002   0.457   2.628  1.3908  0.2482  1.0465
 5079TIP3   OH215193   2.367   3.622   5.579  0.3061 -0.3541  0.2975
 5079TIP3    H115194   2.383   3.709   5.617  1.3396  0.1546 -1.1795
 5079TIP3    H215195   2.455   3.590   5.556 -0.2295 -0.8076 -1.2242
 5080TIP3   OH215196   7.246   0.474   5.859 -0.3222  0.8215  0.6409
 5080TIP3    H115197   7.253   0.495   5.765  0.4419 -1.4490  0.1105
 5080TIP3    H215198   7.337   0.465   5.888 -0.5583 -0.4003  1.0774
 5081TIP3   OH215199   6.774   4.024   3.965  0.2674 -0.1622  0.6436
 5081TIP3    H115200   6.745   4.004   3.876  0.0088  0.0828  0.6700
 5081TIP3    H215201   6.840   4.092   3.955 -1.1086  1.2400  0.7477
 5082TIP3   OH215202   6.508   1.804   4.161 -0.3029 -0.0417 -0.4299
 5082TIP3    H115203   6.573   1.874   4.166 -1.1824  0.7393  0.1729
 5082TIP3    H215204   6.544   1.735   4.218  0.4806 -0.0347 -0.8958
 5083TIP3   OH215205   6.325   1.595   6.706  0.2398  0.2505 -0.7976
 5083TIP3    H115206   6.271   1.666   6.672  1.7615  1.7091 -0.2846
 5083TIP3    H215207   6.383   1.572   6.634  1.0502  0.8830 -0.3639
 5084TIP3   OH215208   6.192   2.926   2.630 -0.1537  0.9369 -0.0342
 5084TIP3    H115209   6.185   2.932   2.534  0.7254  2.2947 -0.0351
 5084TIP3    H215210   6.259   2.989   2.653 -1.1651  1.4624  1.6124
 5085TIP3   OH215211   0.321   5.501   1.252  0.0504  0.1185  0.6140
 5085TIP3    H115212   0.273   5.582   1.235  0.6904  0.4141  0.1901
 5085TIP3    H215213   0.364   5.515   1.336 -0.0311  0.1226  0.6551
 5086TIP3   OH215214   1.824   4.779   3.021 -0.1070 -0.4762 -0.2039
 5086TIP3    H115215   1.823   4.693   2.979  1.5544 -0.5994 -0.0817
 5086TIP3    H215216   1.847   4.839   2.950 -0.3238 -0.2627 -0.0939
 5087TIP3   OH215217   4.007   1.939   0.389 -0.3645 -0.2148  0.2628
 5087TIP3    H115218   4.098   1.931   0.417 -0.4480 -0.7878  0.3837
 5087TIP3    H215219   3.966   1.995   0.455  0.3070  1.5470 -0.7546
 5088TIP3   OH215220   3.508   0.646   1.794 -0.0386 -0.2080 -1.0598
 5088TIP3    H115221   3.580   0.623   1.735  1.5327  0.3374  0.5427
 5088TIP3    H215222   3.483   0.564   1.835 -0.3282 -0.3983 -1.6129
 5089TIP3   OH215223   7.672   6.817   3.706  0.1685 -0.1236 -0.0197
 5089TIP3    H115224   7.647   6.750   3.770  1.6415  0.2751  1.0340
 5089TIP3    H215225   7.759   6.791   3.677 -1.2066 -1.4791 -3.5772
 5090TIP3   OH215226   5.403   2.648   0.125  0.0038  0.1425  0.0947
 5090TIP3    H115227   5.329   2.625   0.068 -0.8526  1.5704  0.5653
 5090TIP3    H215228   5.370   2.632   0.213  0.6057 -0.1159  0.2726
 5091TIP3   OH215229   7.705   1.833   4.045  0.5618  0.4245 -0.2240
 5091TIP3    H115230   7.732   1.912   3.999  0.5945  0.9357  0.6596
 5091TIP3    H215231   7.708   1.764   3.978 -0.3182  1.3202 -1.2114
 5092TIP3   OH215232   4.131   2.838   6.053  0.3216 -0.2512  0.7754
 5092TIP3    H115233   4.112   2.890   5.975 -2.1367  1.5724  2.4599
 5092TIP3    H215234   4.098   2.751   6.032 -0.0124  0.1189 -0.3311
 5093TIP3   OH215235   5.904   5.727   0.689  0.5482  0.0343 -0.3638
 5093TIP3    H115236   5.936   5.715   0.779  0.6163 -0.6186 -0.4681
 5093TIP3    H215237   5.810   5.742   0.699  0.5016 -0.3463 -0.1992
 5094TIP3   OH215238   1.853   3.713   5.878 -0.2533 -0.1783 -0.1083
 5094TIP3    H115239   1.800   3.715   5.957  0.0965 -1.3742  0.1869
 5094TIP3    H215240   1.831   3.629   5.837  0.6484 -0.2347 -0.5009
 5095TIP3   OH215241   1.536   2.429   4.213 -0.4604  0.3247  0.0178
 5095TIP3    H115242   1.464   2.378   4.175  0.1775  0.2026 -1.0700
 5095TIP3    H215243   1.541   2.400   4.304  0.4387 -2.2480 -0.7568
 5096TIP3   OH215244   3.069   7.260   6.401 -0.4745 -0.4328 -0.1144
 5096TIP3    H115245   3.039   7.301   6.320 -0.1391 -0.2492 -0.1478
 5096TIP3    H215246   3.086   7.333   6.460  1.8605 -0.3619 -0.7576
 5097TIP3   OH215247   7.217   4.691   0.500 -0.5848 -0.5085 -0.8248
 5097TIP3    H115248   7.276   4.615   0.499 -0.7209 -0.6100 -1.6594
 5097TIP3    H215249   7.191   4.700   0.591 -0.6186 -1.5078 -0.7276
 5098TIP3   OH215250   2.180   7.341   4.877  0.2150 -0.6970 -0.8222
 5098TIP3    H115251   2.240   7.298   4.938  0.0508  1.9767  1.4119
 5098TIP3    H215252   2.093   7.329   4.917  0.0774  0.8924 -0.5856
 5099TIP3   OH215253   7.945   6.710   6.693 -0.3065 -0.3785 -0.1155
 5099TIP3    H115254   7.850   6.712   6.705 -0.2024 -0.7486  0.9555
 5099TIP3    H215255   7.978   6.766   6.763  0.3870 -2.8446  1.6898
 5100TIP3   OH215256   1.814   7.054   1.562  0.2225  0.2598  0.0672
 5100TIP3    H115257   1.790   6.976   1.512 -0.2498  0.3167  0.1934
 5100TIP3    H215258   1.731   7.100   1.574  0.5948  1.1329 -0.6046
 5101TIP3   OH215259   3.504   7.513   1.034  0.7766  0.5829 -0.4516
 5101TIP3    H115260   3.564   7.446   1.066 -0.3689 -0.3777 -0.2162
 5101TIP3    H215261   3.540   7.539   0.949  1.1617 -0.4809 -0.6314
 5102TIP3   OH215262   7.059   7.048   4.460  0.4043  0.2076  0.0457
 5102TIP3    H115263   7.140   7.020   4.417  0.6296 -1.2595  1.3574
 5102TIP3    H215264   6.996   6.979   4.440  0.1171  0.2080  0.9123
 5103TIP3   OH215265   5.073   1.719   6.308 -0.2734  0.3767  0.2372
 5103TIP3    H115266   4.994   1.719   6.253  0.4680  1.4720 -0.8751
 5103TIP3    H215267   5.067   1.637   6.358 -1.9659  0.3089 -0.0168
 5104TIP3   OH215268   5.857   2.999   0.477  0.3118 -0.3731 -0.3038
 5104TIP3    H115269   5.845   3.050   0.557 -3.3942 -1.2508 -0.1367
 5104TIP3    H215270   5.846   3.062   0.406 -0.5845 -0.2915 -0.1010
 5105TIP3   OH215271   2.003   1.950   5.835 -0.2952 -0.0201 -0.0658
 5105TIP3    H115272   2.084   1.960   5.885  0.5640 -1.3122 -1.1157
 5105TIP3    H215273   1.986   1.855   5.836 -1.3899  0.1570 -0.4666
 5106TIP3   OH215274   3.916   3.264   4.531  0.2668  0.3374 -0.7735
 5106TIP3    H115275   3.833   3.312   4.531  0.5986  0.9294 -1.3156
 5106TIP3    H215276   3.982   3.330   4.511  0.8665 -0.1384 -0.3922
 5107TIP3   OH215277   7.324   1.248   6.601  0.2556 -0.1536 -0.4827
 5107TIP3    H115278   7.258   1.262   6.533 -0.1509 -0.1514 -0.0929
 5107TIP3    H215279   7.353   1.336   6.624  1.0910 -0.1995 -1.3255
 5108TIP3   OH215280   3.767   6.422   2.422  0.0076 -0.1067  0.4528
 5108TIP3    H115281   3.825   6.451   2.353  1.5525 -2.8620  0.4601
 5108TIP3    H215282   3.679   6.433   2.386  0.6959  0.2878 -1.1793
 5109TIP3   OH215283   4.801   7.538   0.173 -0.2956 -0.1585 -0.0354
 5109TIP3    H115284   4.800   7.585   0.090 -1.3563 -0.6611 -0.3219
 5109TIP3    H215285   4.858   7.590   0.229 -0.2045  0.6193 -0.8258
 5110TIP3   OH215286   6.456   0.481   1.591 -0.6871  0.5767  0.2478
 5110TIP3    H115287   6.402   0.448   1.520  0.5733  0.2679 -0.6015
 5110TIP3    H215288   6.438   0.423   1.665 -0.8686 -0.0401 -0.2779
 5111TIP3   OH215289   3.760   5.468   0.394  0.4781 -0.0887 -0.2399
 5111TIP3    H115290   3.712   5.489   0.314 -0.7875  1.5403  0.8804
 5111TIP3    H215291   3.699   5.414   0.444  0.2422  0.9847  0.6725
 5112TIP3   OH215292   0.714   6.220   3.497  0.3840 -0.1693 -0.5284
 5112TIP3    H115293   0.714   6.193   3.405 -0.2671  0.1756 -0.6369
 5112TIP3    H215294   0.629   6.193   3.531  0.5745 -0.1923 -0.0578
 5113TIP3   OH215295   3.326   0.183   6.728  0.6968 -0.0080 -0.1000
 5113TIP3    H115296   3.326   0.276   6.707  0.1829 -0.1315 -0.7029
 5113TIP3    H215297   3.418   0.158   6.733  0.8708  0.8153  1.4375
 5114TIP3   OH215298   7.494   6.120   3.535 -0.4074  0.2662 -0.0469
 5114TIP3    H115299   7.481   6.173   3.457  1.1540 -0.9349 -1.1770
 5114TIP3    H215300   7.451   6.036   3.516 -0.0720 -0.0175  0.4005
 5115TIP3   OH215301   1.515   7.178   6.711  0.0454  0.6300 -0.2819
 5115TIP3    H115302   1.562   7.254   6.676 -2.0677  1.8039 -0.7499
 5115TIP3    H215303   1.431   7.214   6.741 -0.2310 -1.2173  1.3221
 5116TIP3   OH215304   7.828   7.366   2.346  0.0269 -0.0870 -0.2086
 5116TIP3    H115305   7.739   7.383   2.376  0.1665  0.0620  0.1226
 5116TIP3    H215306   7.840   7.424   2.271  0.4956  1.2997  0.8939
 5117TIP3   OH215307   6.092   7.773   0.873 -0.1825  0.6820  0.4466
 5117TIP3    H115308   6.165   7.713   0.887 -0.8142 -0.0440  0.6789
 5117TIP3    H215309   6.073   7.766   0.779 -0.2768  0.4908  0.4793
 5118TIP3   OH215310   4.830   4.993   0.592 -0.1420  0.0291 -0.1914
 5118TIP3    H115311   4.847   4.996   0.686 -1.6949  0.0135  0.1241
 5118TIP3    H215312   4.787   4.909   0.578 -0.1929  0.1608 -0.8541
 5119TIP3   OH215313   0.467   3.785   1.129  0.3523 -0.3151 -0.1431
 5119TIP3    H115314   0.560   3.773   1.144  0.5784  0.2221 -1.0159
 5119TIP3    H215315   0.447   3.732   1.052  0.1289  0.2654 -0.4929
 5120TIP3   OH215316   0.738   6.133   3.236 -0.0781 -0.0775 -0.0231
 5120TIP3    H115317   0.829   6.106   3.242 -0.5845 -1.6009  1.4988
 5120TIP3    H215318   0.706   6.092   3.156  0.1682 -0.8805  0.2810
 5121TIP3   OH215319   3.573   0.485   4.903  0.0972 -0.0601 -0.2053
 5121TIP3    H115320   3.478   0.492   4.904  0.2208  3.3314  0.3593
 5121TIP3    H215321   3.601   0.541   4.830  1.6916 -0.0206  0.3878
 5122TIP3   OH215322   5.989   7.272   3.684 -0.0893 -0.0587 -0.2682
 5122TIP3    H115323   5.956   7.347   3.635  3.7642  2.9320  1.1865
 5122TIP3    H215324   6.051   7.230   3.624 -1.1339 -1.2588 -0.5477
 5123TIP3   OH215325   2.839   4.545   4.496  0.4305 -0.8919  0.1146
 5123TIP3    H115326   2.907   4.578   4.437 -0.3271 -0.7630 -0.7039
 5123TIP3    H215327   2.802   4.469   4.450  0.0331 -0.9806  0.5692
 5124TIP3   OH215328   7.753   0.063   3.672  0.4136  0.0628 -0.3118
 5124TIP3    H115329   7.841   0.101   3.667  0.2030  0.5638 -0.2735
 5124TIP3    H215330   7.759  -0.002   3.742  0.5429  0.6973  0.2841
 5125TIP3   OH215331   5.583   3.221   6.612 -0.3839  0.2982 -0.6369
 5125TIP3    H115332   5.588   3.128   6.588 -0.9306  0.3529 -0.9916
 5125TIP3    H215333   5.610   3.223   6.704 -1.7278 -0.4254 -0.1850
 5126TIP3   OH215334   0.489   2.553   3.937  0.2846  0.0982  0.1727
 5126TIP3    H115335   0.571   2.519   3.973  1.9882  2.3823 -1.2569
 5126TIP3    H215336   0.485   2.643   3.968 -0.5987  0.6660 -1.4498
 5127TIP3   OH215337   6.537   3.919   0.832  0.0916  0.3169  0.4858
 5127TIP3    H115338   6.557   3.835   0.872 -1.5431 -0.1090  0.4722
 5127TIP3    H215339   6.486   3.897   0.753  0.3927  1.2833  0.0046
 5128TIP3   OH215340   3.641   3.628   5.120 -0.0429 -0.1913  0.2037
 5128TIP3    H115341   3.568   3.687   5.099  0.8348  0.8927  0.1322
 5128TIP3    H215342   3.710   3.685   5.152  1.6871 -0.8527 -2.0623
 5129TIP3   OH215343   3.456   6.386   5.914  0.8507  0.1393 -0.0633
 5129TIP3    H115344   3.474   6.466   5.962  0.7543 -0.4391  0.9816
 5129TIP3    H215345   3.425   6.415   5.828  1.1094  1.2037  0.1926
 5130TIP3   OH215346   1.815   4.037   4.000 -0.3612 -0.5147  0.2853
 5130TIP3    H115347   1.898   4.054   3.955 -0.5593 -1.5471 -0.4787
 5130TIP3    H215348   1.751   4.024   3.930 -0.8590 -1.2325  0.8579
 5131TIP3   OH215349   0.339   2.318   1.651 -0.4604  0.0710 -0.3844
 5131TIP3    H115350   0.339   2.337   1.745 -1.9460  0.2061 -0.3811
 5131TIP3    H215351   0.295   2.393   1.612 -0.0353 -0.0848 -1.1714
 5132TIP3   OH215352   6.514   5.953   1.161  0.7213 -0.0429  0.0980
 5132TIP3    H115353   6.548   5.895   1.093 -0.4470  0.0622 -0.6041
 5132TIP3    H215354   6.438   5.995   1.120  0.6028  0.7820  1.1351
 5133TIP3   OH215355   7.482   5.032   1.972  0.4988  0.3059 -0.4295
 5133TIP3    H115356   7.389   5.029   1.948  0.4171  0.4646 -0.1420
 5133TIP3    H215357   7.482   5.020   2.067  0.6821  1.5407 -0.2619
 5134TIP3   OH215358   7.969   6.072   0.636  0.0937 -0.5118  0.4309
 5134TIP3    H115359   8.013   6.046   0.555  0.8701 -0.7342  0.9206
 5134TIP3    H215360   8.031   6.050   0.706 -0.6499 -0.5013  1.1034
 5135TIP3   OH215361   2.473   5.505   5.487 -0.3142  0.1708 -0.3325
 5135TIP3    H115362   2.478   5.452   5.407 -0.3346 -0.4717  0.0848
 5135TIP3    H215363   2.441   5.590   5.457  1.4653  0.5650 -1.2957
 5136TIP3   OH215364   2.635   0.311   0.059 -0.2666 -0.0920  0.3703
 5136TIP3    H115365   2.705   0.312   0.125  0.6969 -1.1696 -0.5839
 5136TIP3    H215366   2.678   0.280  -0.021 -1.1348  2.2132 -1.0971
 5137TIP3   OH215367   2.099   4.283   2.611  0.3062  0.1688  0.4328
 5137TIP3    H115368   2.127   4.264   2.521  0.4523 -0.1816  0.5494
 5137TIP3    H215369   2.124   4.205   2.660  2.1796  1.2128  1.2220
 5138TIP3   OH215370   1.878   1.880   5.531 -0.7695 -0.0931  0.1401
 5138TIP3    H115371   1.965   1.845   5.545 -0.0659  2.1341  1.9077
 5138TIP3    H215372   1.888   1.941   5.457 -0.4196  1.3147  1.3087
 5139TIP3   OH215373   6.772   6.855   3.304 -0.3270  0.0446  0.2992
 5139TIP3    H115374   6.814   6.866   3.389  0.3332 -0.5793  0.0635
 5139TIP3    H215375   6.679   6.854   3.323 -0.4203  3.5109  0.6255
 5140TIP3   OH215376   0.504   0.562   5.541  0.4015  0.4579  0.1209
 5140TIP3    H115377   0.575   0.543   5.601 -0.6220 -0.0568  1.2201
 5140TIP3    H215378   0.498   0.483   5.487  1.3001  0.9072 -0.6604
 5141TIP3   OH215379   4.742   5.491   4.612  0.0314  0.4671  0.2062
 5141TIP3    H115380   4.671   5.516   4.552  1.0827  1.5438 -0.6374
 5141TIP3    H215381   4.793   5.426   4.564 -1.0275 -1.2295  1.2805
 5142TIP3   OH215382   4.551   1.314   4.193 -0.1545 -0.9096 -1.1886
 5142TIP3    H115383   4.506   1.236   4.160 -2.0228  0.2477 -1.5315
 5142TIP3    H215384   4.543   1.378   4.123 -0.2675  0.1871 -0.2055
 5143TIP3   OH215385   5.143   3.319   6.714 -0.2437 -0.2478 -0.0314
 5143TIP3    H115386   5.186   3.306   6.799 -1.2890  0.1459  0.5743
 5143TIP3    H215387   5.212   3.303   6.650  0.2606 -1.7615  0.8493
 5144TIP3   OH215388   4.761   6.947   2.105  0.1461 -0.2654 -0.5126
 5144TIP3    H115389   4.742   6.877   2.168  0.6471  1.5065  1.7165
 5144TIP3    H215390   4.830   6.910   2.049  1.4176 -1.0817  1.5056
 5145TIP3   OH215391   5.659   3.681   5.199  0.6456  0.2921  0.2245
 5145TIP3    H115392   5.677   3.695   5.107  0.2657  0.6040  0.1981
 5145TIP3    H215393   5.631   3.589   5.204 -0.2426  0.5387 -0.1088
 5146TIP3   OH215394   5.935   5.236   5.845 -0.5794  0.2119 -0.2246
 5146TIP3    H115395   6.015   5.288   5.836  0.6341 -1.5633 -0.0964
 5146TIP3    H215396   5.885   5.281   5.913 -0.7699  2.6199 -1.8315
 5147TIP3   OH215397   2.218   3.792   6.511 -0.6582  0.1776 -0.0088
 5147TIP3    H115398   2.145   3.794   6.448  0.5791 -0.5484 -1.5278
 5147TIP3    H215399   2.200   3.866   6.570 -1.7449  1.0485 -1.3531
 5148TIP3   OH215400   5.231   6.656   6.172 -0.2878  0.7687  0.0231
 5148TIP3    H115401   5.228   6.572   6.125  1.4495 -0.0813  1.3031
 5148TIP3    H215402   5.209   6.634   6.262  0.4368  1.6357  0.4255
 5149TIP3   OH215403   5.520   5.980   2.897  0.2463  1.4376 -1.0482
 5149TIP3    H115404   5.483   6.068   2.892 -0.4485  1.1223 -1.6296
 5149TIP3    H215405   5.448   5.922   2.874  0.6647  0.7027 -0.5553
 5150TIP3   OH215406   5.968   6.743   1.151  0.2729  0.4623  0.0536
 5150TIP3    H115407   5.908   6.716   1.220  0.5054  0.0174  0.0824
 5150TIP3    H215408   6.030   6.802   1.195  0.6453 -0.1118  0.3135
 5151TIP3   OH215409   5.121   6.067   4.399 -0.7761  0.2867 -0.4470
 5151TIP3    H115410   5.119   6.045   4.306 -2.4305  0.7354 -0.5624
 5151TIP3    H215411   5.050   6.014   4.437  0.0787 -0.1260  0.6241
 5152TIP3   OH215412   2.898   0.181   6.379  0.2098 -0.6718 -0.0378
 5152TIP3    H115413   2.973   0.165   6.436  0.4845 -0.7494 -0.4169
 5152TIP3    H215414   2.932   0.237   6.309 -0.1358 -0.5305 -0.0956
 5153TIP3   OH215415   2.635   4.687   4.603  0.2723  0.4423  0.8419
 5153TIP3    H115416   2.720   4.643   4.602  0.9539  1.6687  2.1647
 5153TIP3    H215417   2.634   4.740   4.523  0.2402 -0.4697  0.2256
 5154TIP3   OH215418   2.293   0.646   1.446  0.4994 -0.1479 -0.4337
 5154TIP3    H115419   2.255   0.611   1.366  0.9276 -0.6981 -0.3980
 5154TIP3    H215420   2.364   0.703   1.416  0.5432 -0.2120 -0.4519
 5155TIP3   OH215421   4.531   3.812   5.686  0.0911 -0.7530  0.3317
 5155TIP3    H115422   4.618   3.811   5.645  0.0993 -1.0195  0.3498
 5155TIP3    H215423   4.549   3.796   5.779 -0.0226 -1.4900  0.2355
 5156TIP3   OH215424   3.884   0.731   1.054 -0.0432 -0.0765 -0.3891
 5156TIP3    H115425   3.866   0.763   1.142  0.4198 -0.4244 -0.1644
 5156TIP3    H215426   3.936   0.800   1.013  0.1593 -0.1297 -0.2229
 5157TIP3   OH215427   5.628   2.992   3.541 -0.5227  0.2119 -0.5513
 5157TIP3    H115428   5.580   3.044   3.606 -0.9949 -0.5843 -0.2441
 5157TIP3    H215429   5.720   3.004   3.563 -0.6921 -0.4175  0.5619
 5158TIP3   OH215430   0.273   2.757   4.194  0.0170 -0.5215  0.4435
 5158TIP3    H115431   0.184   2.721   4.193 -0.4405  0.5434  1.2855
 5158TIP3    H215432   0.266   2.840   4.147 -0.1157  0.9962  2.9640
 5159TIP3   OH215433   5.321   2.005   4.181 -0.5097 -0.2082 -0.9168
 5159TIP3    H115434   5.349   1.964   4.099 -0.9983  0.2966 -1.3417
 5159TIP3    H215435   5.392   1.986   4.243 -0.0829 -0.4909 -1.4847
 5160TIP3   OH215436   8.258   1.588   1.040 -0.4558  0.0936 -0.3237
 5160TIP3    H115437   8.273   1.641   0.961 -0.4399 -2.4307 -2.1232
 5160TIP3    H215438   8.174   1.546   1.023 -1.1281  0.5428  1.6907
 5161TIP3   OH215439   0.657   0.254   6.320 -0.1710  0.0002 -0.3352
 5161TIP3    H115440   0.734   0.200   6.340  0.6595  1.4735  0.6180
 5161TIP3    H215441   0.597   0.238   6.393 -0.4711 -0.5651 -0.6935
 5162TIP3   OH215442   0.756   4.338   0.705  0.1737  0.1409 -0.1050
 5162TIP3    H115443   0.832   4.392   0.686  0.1681 -0.2880 -1.4043
 5162TIP3    H215444   0.710   4.385   0.774  2.0766 -0.0316  1.3914
 5163TIP3   OH215445   1.752   5.906   1.894  0.2056  0.2671  0.3112
 5163TIP3    H115446   1.736   5.819   1.858  0.3624 -0.0916  1.0920
 5163TIP3    H215447   1.665   5.945   1.905  0.0707 -0.2048  0.9599
 5164TIP3   OH215448   4.500   1.194   2.922  0.0160 -0.0464 -0.2843
 5164TIP3    H115449   4.441   1.254   2.876 -0.9510 -1.5350 -1.0780
 5164TIP3    H215450   4.445   1.155   2.990 -0.0037 -1.5686 -1.1377
 5165TIP3   OH215451   4.080   5.592   1.242 -0.4479 -0.0595  0.3275
 5165TIP3    H115452   4.136   5.661   1.204  0.4910 -1.2564 -0.5424
 5165TIP3    H215453   4.010   5.640   1.286  0.1897  1.4557 -0.2284
 5166TIP3   OH215454   2.214   7.233   3.231 -0.5531  0.0371  0.3964
 5166TIP3    H115455   2.282   7.166   3.231  0.6393  1.0974 -2.0807
 5166TIP3    H215456   2.220   7.273   3.317  3.5069  1.4144 -0.3057
 5167TIP3   OH215457   2.411   6.361   4.323 -0.0994  0.6372 -0.4098
 5167TIP3    H115458   2.445   6.450   4.318 -0.4301  0.6994 -2.5222
 5167TIP3    H215459   2.381   6.342   4.234 -2.1546 -0.7622  0.5020
 5168TIP3   OH215460   3.072   4.974   4.177  0.3883 -0.2896  0.0866
 5168TIP3    H115461   3.035   4.970   4.089  0.0266  2.6328  0.0263
 5168TIP3    H215462   3.166   4.980   4.165  0.2688  1.2312 -0.1781
 5169TIP3   OH215463   3.387   0.922   6.106 -0.0397  0.5858 -0.5920
 5169TIP3    H115464   3.443   0.889   6.036 -0.7807 -0.2700 -0.7983
 5169TIP3    H215465   3.352   1.004   6.073 -1.7178 -0.6052 -1.9701
 5170TIP3   OH215466   2.989   1.362   5.974  0.2957  0.2636  0.1729
 5170TIP3    H115467   3.069   1.363   5.922 -0.2967 -1.3985 -0.8814
 5170TIP3    H215468   2.920   1.337   5.911 -0.8682  0.6254  1.2582
 5171TIP3   OH215469   6.829   1.099   5.467 -0.5470 -0.1115  0.9770
 5171TIP3    H115470   6.799   1.185   5.438 -0.8623 -0.3947  0.4428
 5171TIP3    H215471   6.750   1.045   5.468 -0.6948  0.0678  3.0998
 5172TIP3   OH215472   4.785   1.224   4.049 -0.0564  0.3200  0.2440
 5172TIP3    H115473   4.737   1.277   4.112 -0.9972 -0.9251  0.6155
 5172TIP3    H215474   4.877   1.234   4.074 -0.1678  2.0061  0.0875
 5173TIP3   OH215475   1.679   4.414   6.465  0.1475  0.0813 -0.4043
 5173TIP3    H115476   1.660   4.382   6.376 -1.3441 -0.8708  0.2144
 5173TIP3    H215477   1.703   4.506   6.452 -0.4580  0.0806 -1.7651
 5174TIP3   OH215478   5.121   5.448   6.102 -0.1586  0.0552 -0.2579
 5174TIP3    H115479   5.037   5.493   6.094  0.1161  0.7324  0.5043
 5174TIP3    H215480   5.103   5.373   6.158 -0.1124  0.5887  0.4737
 5175TIP3   OH215481   7.788   6.945   5.322 -0.0693  0.1299 -0.0382
 5175TIP3    H115482   7.812   7.030   5.358 -0.3332 -0.0417  0.5466
 5175TIP3    H215483   7.861   6.922   5.264 -0.7579  1.5273 -1.5548
 5176TIP3   OH215484   7.690   2.343   5.056  0.3545  0.0918 -0.3511
 5176TIP3    H115485   7.668   2.265   5.107 -0.0973  0.0824 -0.5573
 5176TIP3    H215486   7.730   2.309   4.977  1.5139  0.1199  0.1978
 5177TIP3   OH215487   1.080   2.596   5.855  0.1354 -0.0442  0.2148
 5177TIP3    H115488   1.068   2.690   5.870  0.8219 -0.0294  0.6958
 5177TIP3    H215489   1.047   2.582   5.766  0.7226  0.7885 -0.1499
 5178TIP3   OH215490   5.033   1.938   5.177  0.0316 -0.3877  0.5237
 5178TIP3    H115491   4.989   1.882   5.113  0.6523  0.8965 -1.0887
 5178TIP3    H215492   5.119   1.897   5.188  0.4949  0.2396 -0.6720
 5179TIP3   OH215493   4.099   4.885   2.011  0.1472 -0.0401  0.6683
 5179TIP3    H115494   4.097   4.956   2.076  1.6292 -0.7887  1.5736
 5179TIP3    H215495   4.113   4.806   2.063  2.3738 -0.5593 -0.6164
 5180TIP3   OH215496   0.466   2.780   3.119  0.3993  0.1709  0.6926
 5180TIP3    H115497   0.552   2.738   3.119  0.3456  0.0503  1.3018
 5180TIP3    H215498   0.404   2.708   3.127  0.1186  0.0737 -1.6807
 5181TIP3   OH215499   5.462   4.762   3.384  0.2600  0.9981 -0.5437
 5181TIP3    H115500   5.375   4.801   3.378 -0.8065 -1.3815 -1.9454
 5181TIP3    H215501   5.486   4.744   3.293  0.2012 -2.3816 -0.0129
 5182TIP3   OH215502   7.203   5.090   0.872 -0.1528  0.0750 -0.1193
 5182TIP3    H115503   7.197   5.139   0.954 -2.3280 -3.4246  2.0797
 5182TIP3    H215504   7.148   5.138   0.811  2.3006  3.3365 -0.0533
 5183TIP3   OH215505   2.582   6.253   0.128 -0.5938 -0.0196 -0.3432
 5183TIP3    H115506   2.566   6.332   0.077 -1.9897 -0.9737 -1.4514
 5183TIP3    H215507   2.670   6.225   0.103 -0.5875  0.4814 -0.8869
 5184TIP3   OH215508   7.251   1.657   4.485  0.5075 -0.3916  0.2558
 5184TIP3    H115509   7.208   1.572   4.486  1.0741 -0.6914 -0.1263
 5184TIP3    H215510   7.193   1.714   4.535 -0.2868 -0.8066 -0.1657
 5185TIP3   OH215511   3.710   0.199   0.208  0.0693 -0.6521 -0.2209
 5185TIP3    H115512   3.751   0.113   0.215  1.0207 -0.2011 -0.1164
 5185TIP3    H215513   3.771   0.251   0.157  0.4834  0.5417  1.4026
 5186TIP3   OH215514   5.361   2.780   2.562  0.2640 -0.3327  0.4300
 5186TIP3    H115515   5.318   2.859   2.594 -0.6684 -0.2208 -0.9921
 5186TIP3    H215516   5.325   2.767   2.474  2.3413 -0.8638 -0.4110
 5187TIP3   OH215517   3.141   6.262   5.943 -0.4466 -0.0020 -0.0573
 5187TIP3    H115518   3.123   6.356   5.953  0.0704  0.0406  0.5781
 5187TIP3    H215519   3.213   6.259   5.880  0.7697  0.1619  1.2716
 5188TIP3   OH215520   6.736   2.318   0.613 -0.2773 -0.6174 -0.9116
 5188TIP3    H115521   6.744   2.257   0.540  1.6244  0.2058 -1.4687
 5188TIP3    H215522   6.648   2.355   0.604 -1.1902 -2.6780 -0.9863
 5189TIP3   OH215523   8.214   1.886   3.591 -0.9335 -0.0133  0.2620
 5189TIP3    H115524   8.278   1.855   3.655  0.0985 -1.4767 -1.3960
 5189TIP3    H215525   8.224   1.981   3.593  2.5593 -0.1959 -1.0626
 5190TIP3   OH215526   1.432   5.466   4.965 -0.4520 -0.0889  0.5707
 5190TIP3    H115527   1.517   5.472   4.920 -0.7720 -0.9585 -0.1877
 5190TIP3    H215528   1.454   5.448   5.056  0.1770 -0.1940  0.4016
 5191TIP3   OH215529   1.855   0.942   5.145  0.5598 -0.2695 -0.0128
 5191TIP3    H115530   1.760   0.947   5.138  0.6092  1.3992  0.1833
 5191TIP3    H215531   1.881   0.878   5.078 -0.6236 -0.0624 -0.6891
 5192TIP3   OH215532   7.257   6.926   3.597  0.2786 -0.7925 -0.7272
 5192TIP3    H115533   7.251   6.930   3.502  0.7813  0.4218 -0.7135
 5192TIP3    H215534   7.280   6.835   3.615 -0.5345 -1.2213 -1.7139
 5193TIP3   OH215535   0.219   6.342   1.689 -0.5937  0.0490  0.0369
 5193TIP3    H115536   0.161   6.269   1.670 -1.4564  0.3959  1.2236
 5193TIP3    H215537   0.190   6.412   1.630  1.0939 -0.9129 -2.0653
 5194TIP3   OH215538   7.423   2.800   4.200 -0.1036  0.1590 -0.1817
 5194TIP3    H115539   7.450   2.891   4.191 -1.4956  0.7835  1.3640
 5194TIP3    H215540   7.331   2.799   4.173 -0.7396 -0.2963  1.7724
 5195TIP3   OH215541   0.450   6.357   6.609 -0.2944 -0.1800  0.1388
 5195TIP3    H115542   0.429   6.412   6.533  0.6991 -1.7423 -1.3493
 5195TIP3    H215543   0.367   6.317   6.633 -0.7100  0.6884  0.2030
 5196TIP3   OH215544   2.868   5.933   5.403 -0.0463  0.3068 -0.1438
 5196TIP3    H115545   2.844   6.005   5.462  4.1908 -0.4115  2.9008
 5196TIP3    H215546   2.833   5.855   5.446 -0.0700  0.0676 -0.5916
 5197TIP3   OH215547   2.883   0.910   6.576  0.4065 -0.0095  0.7524
 5197TIP3    H115548   2.937   0.846   6.623 -0.1483  0.1246  1.5782
 5197TIP3    H215549   2.793   0.885   6.595  0.1580 -0.0922 -0.4373
 5198TIP3   OH215550   0.249   5.895   2.226 -0.1051  0.3891 -0.1013
 5198TIP3    H115551   0.225   5.911   2.135  1.9035 -0.2440 -0.8011
 5198TIP3    H215552   0.167   5.869   2.269 -1.5810  2.9593 -1.1174
 5199TIP3   OH215553   4.111   0.784   1.799 -0.1382 -0.3076 -0.6831
 5199TIP3    H115554   4.193   0.756   1.840 -0.5502 -0.3518  0.1452
 5199TIP3    H215555   4.109   0.879   1.814 -0.1781 -0.2899 -0.8042
 5200TIP3   OH215556   2.340   1.751   6.241  0.3304 -0.5034 -0.1068
 5200TIP3    H115557   2.324   1.786   6.329  0.7672 -2.5251  0.8330
 5200TIP3    H215558   2.434   1.736   6.237  0.7126  1.8941 -1.8958
 5201TIP3   OH215559   4.598   7.434   1.491 -0.1020 -0.3275  0.0562
 5201TIP3    H115560   4.617   7.379   1.566  2.0465  1.7376  1.1582
 5201TIP3    H215561   4.682   7.442   1.445 -0.4682  1.4815 -0.3781
 5202TIP3   OH215562   5.499   2.991   6.242  0.2588  0.0776  0.3020
 5202TIP3    H115563   5.561   3.046   6.193  0.2297 -0.8079 -0.7689
 5202TIP3    H215564   5.502   2.906   6.198 -0.6832 -0.3962  1.1045
 5203TIP3   OH215565   6.869   5.533   0.375  0.4027 -0.4094  0.2196
 5203TIP3    H115566   6.789   5.484   0.391 -1.0055  0.5953 -2.8689
 5203TIP3    H215567   6.909   5.490   0.299  2.2607 -0.2411  1.0401
 5204TIP3   OH215568   4.570   1.080   3.833  0.2339  0.2359 -0.5845
 5204TIP3    H115569   4.515   1.158   3.838  0.8499  0.6175  0.6051
 5204TIP3    H215570   4.653   1.111   3.797  0.6031  0.2316  0.2213
 5205TIP3   OH215571   1.473   0.240   4.133  0.2700 -0.0897  0.1634
 5205TIP3    H115572   1.400   0.201   4.085 -0.5188 -0.1044  1.3125
 5205TIP3    H215573   1.550   0.225   4.078 -0.4024 -1.1495 -0.5192
 5206TIP3   OH215574   7.973   4.255   3.297  0.5797 -0.0137 -0.0100
 5206TIP3    H115575   7.888   4.276   3.260  0.6203  0.1963  0.0149
 5206TIP3    H215576   7.987   4.163   3.274  1.3432  0.5397 -1.9636
 5207TIP3   OH215577   5.445   7.578   2.407  0.2092  0.0418 -0.2365
 5207TIP3    H115578   5.472   7.498   2.362 -2.7132 -1.7359  0.8836
 5207TIP3    H215579   5.351   7.585   2.389 -0.2627  1.4329  2.2998
 5208TIP3   OH215580   6.684   6.612   0.264  0.2609 -0.5987  0.1759
 5208TIP3    H115581   6.698   6.544   0.330 -0.1474 -0.0494  0.8418
 5208TIP3    H215582   6.591   6.631   0.270  0.4677  0.3869  0.3626
 5209TIP3   OH215583   4.223   6.420   6.446  0.0829  0.2142  0.0268
 5209TIP3    H115584   4.303   6.471   6.457 -0.8264  2.0027 -1.1563
 5209TIP3    H215585   4.245   6.355   6.379  1.0147 -0.4930  0.9718
 5210TIP3   OH215586   7.603   4.271   1.068 -0.1457 -0.1854 -0.4583
 5210TIP3    H115587   7.586   4.183   1.102 -1.0915 -0.0505 -0.5495
 5210TIP3    H215588   7.679   4.302   1.118 -0.6411 -0.5305  0.5444
 5211TIP3   OH215589   6.468   0.197   1.391  0.3367  0.2376 -0.3420
 5211TIP3    H115590   6.393   0.198   1.451  0.9356  2.1503  0.4434
 5211TIP3    H215591   6.450   0.124   1.332 -1.3264 -0.3765  0.8422
 5212TIP3   OH215592   3.676   4.139   1.992 -0.1881 -0.4097  0.0236
 5212TIP3    H115593   3.713   4.056   1.960  0.8624 -0.5216  1.4673
 5212TIP3    H215594   3.750   4.199   1.996 -0.5359 -0.0210  1.0011
 5213TIP3   OH215595   0.059   7.488   3.826 -0.1182 -0.2885  0.6699
 5213TIP3    H115596   0.078   7.401   3.861 -0.4248 -0.7582 -0.2864
 5213TIP3    H215597   0.073   7.479   3.731 -3.2256 -0.1925  0.0976
 5214TIP3   OH215598   4.763   1.141   0.375  0.1392  0.2413  0.1120
 5214TIP3    H115599   4.839   1.165   0.427  1.4061 -2.2072 -0.4646
 5214TIP3    H215600   4.767   1.197   0.298  4.0422 -2.6773 -2.1220
 5215TIP3   OH215601   2.270   3.892   5.333 -0.3824 -0.8120 -0.4958
 5215TIP3    H115602   2.181   3.889   5.368 -0.7603 -0.0123 -1.3518
 5215TIP3    H215603   2.262   3.859   5.244 -0.2097  1.1180 -1.2789
 5216TIP3   OH215604   7.171   2.935   3.299  0.4962 -0.4385  0.2999
 5216TIP3    H115605   7.096   2.984   3.332  1.4023  0.3801  1.2024
 5216TIP3    H215606   7.144   2.843   3.306 -0.2930 -0.1711  0.9228
 5217TIP3   OH215607   2.827   0.051   0.503 -0.1654  0.1648  0.5207
 5217TIP3    H115608   2.900   0.068   0.563  0.5300 -0.5015 -0.1227
 5217TIP3    H215609   2.845  -0.035   0.467 -0.8380  0.3464 -0.2813
 5218TIP3   OH215610   6.915   7.001   5.052 -0.0337  0.0578  0.3249
 5218TIP3    H115611   6.963   7.072   5.008 -0.5447  1.4243  1.9005
 5218TIP3    H215612   6.823   7.027   5.047 -0.3322 -0.9544  0.1798
 5219TIP3   OH215613   1.818   2.425   2.065 -0.1392  0.5725 -0.2085
 5219TIP3    H115614   1.790   2.347   2.113  0.8050  0.3871  0.0688
 5219TIP3    H215615   1.881   2.467   2.123 -0.7267  1.6168 -0.3064
 5220TIP3   OH215616   4.950   0.079   3.736  0.3613  0.5149 -0.1150
 5220TIP3    H115617   5.013   0.092   3.807 -0.3405 -2.5179  1.2396
 5220TIP3    H215618   4.996   0.023   3.673 -0.6467 -0.9945  0.4582
 5221TIP3   OH215619   5.056   1.001   4.769 -0.0611 -0.4642 -0.1080
 5221TIP3    H115620   5.024   1.091   4.779  1.4782 -0.0278  1.3858
 5221TIP3    H215621   5.071   0.971   4.858 -4.1594 -3.7041 -0.2573
 5222TIP3   OH215622   4.887   1.437   1.905 -0.1583  0.3389  0.3339
 5222TIP3    H115623   4.915   1.497   1.974 -3.3387  3.0882 -0.4516
 5222TIP3    H215624   4.848   1.363   1.952  0.5856  0.6067  1.4114
 5223TIP3   OH215625   7.362   2.478   2.914 -0.0509  0.2933  0.0488
 5223TIP3    H115626   7.446   2.434   2.931 -0.0239 -1.2250 -3.2102
 5223TIP3    H215627   7.384   2.571   2.914  1.2571  0.0179  0.9526
 5224TIP3   OH215628   7.123   3.768   0.776  0.6607 -0.2918 -0.4713
 5224TIP3    H115629   7.035   3.745   0.805  0.3799  0.3041 -0.8339
 5224TIP3    H215630   7.152   3.835   0.837  0.9491 -0.6402 -0.2239
 5225TIP3   OH215631   4.341   2.641   2.372 -0.9564 -0.0441  0.0281
 5225TIP3    H115632   4.372   2.663   2.460  0.7026 -0.7564 -0.3360
 5225TIP3    H215633   4.315   2.549   2.378 -1.2283  0.0214 -0.1306
 5226TIP3   OH215634   6.636   5.943   2.607 -0.2815 -0.0609  0.3110
 5226TIP3    H115635   6.584   5.906   2.679  0.4956 -0.5215  0.6455
 5226TIP3    H215636   6.618   6.037   2.611  1.7727  0.3550  2.8489
 5227TIP3   OH215637   7.514   2.544   4.163  1.0289  0.6601 -0.4590
 5227TIP3    H115638   7.601   2.570   4.135  1.2565  2.6236  1.7927
 5227TIP3    H215639   7.466   2.626   4.176  0.0355 -0.1743  1.7787
 5228TIP3   OH215640   7.648   3.577   2.168 -0.0301  0.0354  0.3568
 5228TIP3    H115641   7.728   3.528   2.149 -0.9572 -0.5984 -2.3146
 5228TIP3    H215642   7.625   3.620   2.086 -1.3741  1.8478  1.5912
 5229TIP3   OH215643   1.451   3.413   3.216  0.3684 -0.4983  0.0550
 5229TIP3    H115644   1.539   3.423   3.181 -0.5484 -1.3017 -2.7414
 5229TIP3    H215645   1.395   3.462   3.155 -1.2619 -1.2806  0.8556
 5230TIP3   OH215646   1.481   7.401   3.280 -0.0919  0.4564  0.0561
 5230TIP3    H115647   1.519   7.369   3.197 -1.8243 -0.8931 -0.2697
 5230TIP3    H215648   1.549   7.458   3.316  0.2217  2.2106 -2.9361
 5231TIP3   OH215649   4.284   7.172   3.986 -0.2207  0.3073 -0.1319
 5231TIP3    H115650   4.339   7.096   4.008 -2.4580 -1.3325  0.1194
 5231TIP3    H215651   4.343   7.247   3.995  1.5677 -1.1789  1.7064
 5232TIP3   OH215652   0.277   2.992   2.986 -0.2256  0.2660 -0.4040
 5232TIP3    H115653   0.337   2.950   3.048 -0.2494  1.6862  0.6315
 5232TIP3    H215654   0.193   2.994   3.032 -0.8026 -0.6747 -1.3925
 5233TIP3   OH215655   1.679   6.629   1.982 -0.1947  0.2085 -0.4128
 5233TIP3    H115656   1.597   6.608   2.027  0.3566  0.0570  0.5714
 5233TIP3    H215657   1.662   6.712   1.938 -0.5967  0.6695  0.5752
 5234TIP3   OH215658   4.501   0.796   1.643 -0.2918 -0.0230 -0.1420
 5234TIP3    H115659   4.506   0.852   1.721 -1.9934  1.2248 -0.8742
 5234TIP3    H215660   4.532   0.711   1.673  0.6869  0.8457  1.4706
 5235TIP3   OH215661   6.543   6.634   5.173  0.2763 -0.0210 -0.5279
 5235TIP3    H115662   6.594   6.715   5.173 -0.7373  0.6444 -0.9628
 5235TIP3    H215663   6.461   6.657   5.128 -0.8726 -0.7514  1.0955
 5236TIP3   OH215664   3.779   5.871   3.040 -0.8413 -0.1401  0.7391
 5236TIP3    H115665   3.774   5.924   3.120 -0.9457  0.3839  0.3934
 5236TIP3    H215666   3.700   5.895   2.990 -0.6805 -0.3205  0.3906
 5237TIP3   OH215667   4.894   7.040   0.944 -0.1951 -0.6276  0.2726
 5237TIP3    H115668   4.960   7.065   0.879 -1.1731  0.2368 -0.4291
 5237TIP3    H215669   4.854   7.123   0.970  0.5244 -0.8691  2.4326
 5238TIP3   OH215670   5.106   7.192   2.660 -0.5576  0.3287  0.4465
 5238TIP3    H115671   5.123   7.250   2.734 -0.9340 -0.7183  1.3801
 5238TIP3    H215672   5.193   7.171   2.625 -0.3076  0.0492  1.2209
 5239TIP3   OH215673   6.047   6.714   6.594 -0.2054  0.5096 -0.4465
 5239TIP3    H115674   6.033   6.710   6.499 -1.4493  1.8371 -0.3643
 5239TIP3    H215675   6.094   6.796   6.607 -0.9302  0.8423  0.1485
 5240TIP3   OH215676   0.246   5.419   6.459  0.1064 -0.2109 -0.2475
 5240TIP3    H115677   0.226   5.464   6.541 -0.0390  0.3466 -0.5840
 5240TIP3    H215678   0.230   5.327   6.477  0.1052 -0.0948  0.3594
 5241TIP3   OH215679   5.229   0.348   0.865 -0.0061 -0.6887  0.3102
 5241TIP3    H115680   5.166   0.359   0.793  0.0183 -1.6179  0.1435
 5241TIP3    H215681   5.183   0.381   0.942  0.7520  2.4758 -0.4466
 5242TIP3   OH215682   5.036   4.507   1.980 -0.6173 -0.6269  0.2127
 5242TIP3    H115683   5.006   4.580   2.034 -2.5291 -1.6334  0.5990
 5242TIP3    H215684   5.122   4.535   1.948 -0.6917  1.2017  1.4349
 5243TIP3   OH215685   3.758   4.266   0.723  0.3524 -0.3738 -0.1793
 5243TIP3    H115686   3.707   4.341   0.753 -1.2611 -1.2245 -0.6824
 5243TIP3    H215687   3.757   4.205   0.797  0.4001 -0.5009 -0.2817
 5244TIP3   OH215688   3.711   6.711   4.525  0.3076  0.0421  0.2840
 5244TIP3    H115689   3.752   6.653   4.590 -1.1003 -0.2430  0.9614
 5244TIP3    H215690   3.728   6.799   4.557 -0.5099 -0.1015  1.1405
 5245TIP3   OH215691   0.900   4.475   3.471 -0.3901 -0.3987  0.4031
 5245TIP3    H115692   0.884   4.420   3.395 -0.0703 -0.2361  0.2128
 5245TIP3    H215693   0.916   4.562   3.434  0.6479 -0.4979  0.5837
 5246TIP3   OH215694   0.490   4.040   3.570 -0.3752  0.0679 -0.2082
 5246TIP3    H115695   0.418   4.084   3.525  0.1444  1.5644  0.3365
 5246TIP3    H215696   0.460   4.033   3.661 -0.3013 -0.3872 -0.2176
 5247TIP3   OH215697   3.192   5.953   4.672  0.0237 -0.0853 -0.0700
 5247TIP3    H115698   3.265   5.965   4.732 -0.1964 -1.5061  0.5146
 5247TIP3    H215699   3.115   5.980   4.721 -0.0888 -0.6822  0.0854
 5248TIP3   OH215700   1.988   2.397   4.861  0.2488 -0.4336  0.3629
 5248TIP3    H115701   2.029   2.326   4.813 -0.8733 -1.0566  0.2929
 5248TIP3    H215702   2.055   2.466   4.865  0.7126 -0.7624 -1.2056
 5249TIP3   OH215703   3.192   3.663   1.897  0.5869  0.3840 -0.0118
 5249TIP3    H115704   3.283   3.692   1.889  0.7482 -0.3462 -1.0727
 5249TIP3    H215705   3.145   3.720   1.835  1.1090 -2.3021 -3.1584
 5250TIP3   OH215706   2.019   3.407   4.578 -0.2842  0.1453 -0.2909
 5250TIP3    H115707   2.069   3.417   4.659  0.7390 -0.1945 -0.8688
 5250TIP3    H215708   2.021   3.313   4.560 -0.3772  0.2376 -0.8005
 5251TIP3   OH215709   1.078   2.437   3.244 -0.1331 -0.4517  0.1873
 5251TIP3    H115710   1.117   2.384   3.313  1.7677  0.3367 -0.2326
 5251TIP3    H215711   1.113   2.525   3.258 -0.4417 -0.0747 -1.2169
 5252TIP3   OH215712   6.292   3.988   4.074 -0.0240 -0.1845 -0.3385
 5252TIP3    H115713   6.301   3.897   4.101  0.6676 -0.2648 -0.8173
 5252TIP3    H215714   6.377   4.028   4.092 -0.6804  0.6831  0.9764
 5253TIP3   OH215715   2.172   0.108   0.500  0.1745 -0.6903 -0.4023
 5253TIP3    H115716   2.147   0.172   0.567  1.5344  1.7887 -2.1032
 5253TIP3    H215717   2.265   0.091   0.516 -0.5423 -3.9557  1.2389
 5254TIP3   OH215718   5.260   4.982   5.161  0.3110  0.2448  0.0303
 5254TIP3    H115719   5.292   4.894   5.180  1.6545  0.7691  0.3653
 5254TIP3    H215720   5.268   4.990   5.066  0.0902 -0.0203 -0.0135
 5255TIP3   OH215721   7.156   1.722   2.564  0.4937 -0.1486  0.3291
 5255TIP3    H115722   7.203   1.703   2.482 -0.0305 -0.3033  0.0556
 5255TIP3    H215723   7.218   1.700   2.633  0.3756 -1.6181  0.0015
 5256TIP3   OH215724   3.030   5.357   1.358  0.2746  0.1300  0.2155
 5256TIP3    H115725   3.055   5.441   1.396  1.4993  0.4870 -1.2540
 5256TIP3    H215726   3.075   5.355   1.273 -0.9287 -1.3620 -0.4436
 5257TIP3   OH215727   3.445   7.518   3.257  0.1587 -0.1556 -0.2926
 5257TIP3    H115728   3.500   7.488   3.185  0.4008 -0.8773  0.1806
 5257TIP3    H215729   3.360   7.477   3.241 -1.4598  3.6741 -2.9767
 5258TIP3   OH215730   2.667   0.921   5.211  0.0148  0.4477 -0.0533
 5258TIP3    H115731   2.601   0.853   5.203  0.8262 -0.3176 -0.4895
 5258TIP3    H215732   2.643   0.986   5.145 -0.5788  0.4215  0.1376
 5259TIP3   OH215733   4.079   0.862   6.365 -0.3107  0.2503 -0.0168
 5259TIP3    H115734   4.069   0.899   6.452  0.3271  0.1328  0.1059
 5259TIP3    H215735   4.016   0.911   6.311 -0.3434  0.6683  0.3996
 5260TIP3   OH215736   3.115   6.234   4.095 -0.6636 -0.3705 -0.2351
 5260TIP3    H115737   3.061   6.187   4.159 -1.0402  0.4181  0.0362
 5260TIP3    H215738   3.112   6.180   4.016  0.4941 -1.7980  0.6586
 5261TIP3   OH215739   3.576   6.238   3.861 -0.4519  0.4655 -1.0321
 5261TIP3    H115740   3.588   6.145   3.839  1.4184  0.2893  0.4791
 5261TIP3    H215741   3.502   6.239   3.921  0.9608 -0.4349  0.8351
 5262TIP3   OH215742   0.686   0.913   1.746  0.0656  0.3487 -0.1158
 5262TIP3    H115743   0.646   0.944   1.665 -0.0339  0.0173 -0.1924
 5262TIP3    H215744   0.715   0.824   1.727  0.6232  0.4994  0.0155
 5263TIP3   OH215745   2.528   3.504   5.209 -0.4733  0.0627  0.0250
 5263TIP3    H115746   2.517   3.590   5.250  0.0286  0.0418  0.2071
 5263TIP3    H215747   2.620   3.500   5.185 -0.6080 -0.2194 -0.4583
 5264TIP3   OH215748   4.556   1.278   6.529 -0.6048 -0.2274 -0.1368
 5264TIP3    H115749   4.599   1.266   6.444 -1.9929  1.1650 -1.0917
 5264TIP3    H215750   4.536   1.190   6.558  2.6604 -0.9722  0.3004
 5265TIP3   OH215751   3.045   1.676   4.440 -0.7872  0.0721 -0.1695
 5265TIP3    H115752   3.060   1.583   4.420  0.3411  0.6451 -2.2505
 5265TIP3    H215753   3.133   1.714   4.443 -1.3138  1.4857 -1.6343
 5266TIP3   OH215754   5.147   5.493   2.385 -0.1186  0.4495  0.3428
 5266TIP3    H115755   5.177   5.504   2.475  1.1004  1.1439 -0.1339
 5266TIP3    H215756   5.176   5.572   2.340 -0.1066 -0.2042 -0.8246
 5267TIP3   OH215757   3.990   3.030   3.337 -0.4382 -0.1607 -0.8060
 5267TIP3    H115758   3.977   3.102   3.398  0.7735 -0.0838 -0.6182
 5267TIP3    H215759   4.030   3.071   3.260  1.6523 -0.8177 -0.1248
 5268TIP3   OH215760   6.858   2.645   5.782  0.1430 -0.4838  0.2478
 5268TIP3    H115761   6.845   2.569   5.839  0.7266 -1.8585 -1.3420
 5268TIP3    H215762   6.949   2.638   5.753  0.1050  0.6387 -0.1923
 5269TIP3   OH215763   4.604   5.632   3.271 -0.3940 -0.1165 -0.2635
 5269TIP3    H115764   4.574   5.715   3.308 -1.9068 -1.0610  0.7427
 5269TIP3    H215765   4.529   5.573   3.280  0.3823 -1.3870 -1.6815
 5270TIP3   OH215766   0.131   5.413   5.442 -0.5205 -0.0462  0.0416
 5270TIP3    H115767   0.056   5.357   5.462 -0.0818 -0.2488  1.1587
 5270TIP3    H215768   0.196   5.354   5.404 -0.9279  0.1427 -1.0015
 5271TIP3   OH215769   6.680   5.518   2.314  0.1288  0.3046  0.1496
 5271TIP3    H115770   6.621   5.442   2.313  0.3215  0.1228 -1.9980
 5271TIP3    H215771   6.634   5.583   2.367 -1.1406 -0.5007  0.0771
 5272TIP3   OH215772   0.061   5.864   5.415 -0.0689 -0.2994  0.4051
 5272TIP3    H115773   0.078   5.946   5.462  0.5978  0.1211 -0.5495
 5272TIP3    H215774  -0.028   5.874   5.381 -1.5422 -1.5923  3.5322
 5273TIP3   OH215775   2.494   7.596   5.932  0.6513  0.1176 -0.3471
 5273TIP3    H115776   2.540   7.679   5.941  1.9379 -0.6882  0.8749
 5273TIP3    H215777   2.412   7.608   5.981  1.3335  0.3138  0.7665
 5274TIP3   OH215778   5.938   2.592   6.564 -0.4374  0.1196 -0.4926
 5274TIP3    H115779   6.034   2.594   6.571 -0.4844  0.7185  0.1479
 5274TIP3    H215780   5.915   2.503   6.591 -0.1779  0.6020  1.5143
 5275TIP3   OH215781   5.224   6.485   2.432 -0.0884 -0.0943  0.0076
 5275TIP3    H115782   5.170   6.512   2.358 -0.4812 -1.0481 -0.0636
 5275TIP3    H215783   5.303   6.450   2.392 -0.4035 -0.8333  0.0292
 5276TIP3   OH215784   0.455   1.787   4.086  0.2570  0.2083  0.2297
 5276TIP3    H115785   0.389   1.780   4.155  0.1214  0.7907  0.1642
 5276TIP3    H215786   0.486   1.697   4.072  0.8321  0.1737  1.5849
 5277TIP3   OH215787   5.716   0.737   3.536  0.0408  0.4199  0.2094
 5277TIP3    H115788   5.744   0.723   3.446 -2.5731  0.7848 -0.7217
 5277TIP3    H215789   5.778   0.801   3.571  0.7486  0.7209 -1.5045
 5278TIP3   OH215790   1.483   3.454   2.216  0.0401 -0.7717 -0.0863
 5278TIP3    H115791   1.421   3.513   2.258 -1.8162 -1.8113 -1.2423
 5278TIP3    H215792   1.429   3.392   2.167  1.9811 -2.0370 -0.7734
 5279TIP3   OH215793   5.409   0.660   4.405 -0.3918  0.0750 -0.1535
 5279TIP3    H115794   5.384   0.695   4.319 -1.7305 -0.0097  0.1712
 5279TIP3    H215795   5.354   0.709   4.467 -0.1561 -0.5520  0.5586
 5280TIP3   OH215796   5.299   3.735   2.026 -0.0028  0.5034 -0.4438
 5280TIP3    H115797   5.288   3.819   1.982 -1.3581  0.5060 -0.1576
 5280TIP3    H215798   5.247   3.674   1.974  0.7077 -0.1008 -0.4638
 5281TIP3   OH215799   4.973   2.650   6.231  0.1811 -0.2408 -0.8476
 5281TIP3    H115800   4.936   2.710   6.166 -0.8280  2.0352  1.6293
 5281TIP3    H215801   5.067   2.662   6.225  0.0292  1.0233 -0.9763
 5282TIP3   OH215802   3.153   1.088   5.196  0.3083  0.3053  0.1116
 5282TIP3    H115803   3.233   1.137   5.216 -0.6592  0.8748  3.0291
 5282TIP3    H215804   3.176   0.996   5.215  0.3384  0.4316  0.6871
 5283TIP3   OH215805   7.200   7.218   2.919 -0.1913  0.1932  0.0353
 5283TIP3    H115806   7.201   7.314   2.923 -1.2234  0.1709  1.8016
 5283TIP3    H215807   7.108   7.194   2.920  0.0267 -0.8274 -1.3871
 5284TIP3   OH215808   0.301   0.343   1.534  0.4458 -0.0244  0.7150
 5284TIP3    H115809   0.336   0.337   1.446 -0.2622 -0.8235  0.4702
 5284TIP3    H215810   0.350   0.279   1.585 -0.3344 -0.8319  0.4741
 5285TIP3   OH215811   5.623   1.739   2.904 -0.3676  0.5571  0.6487
 5285TIP3    H115812   5.683   1.798   2.949  0.0156 -0.0863  0.9953
 5285TIP3    H215813   5.597   1.787   2.825  1.5945  0.3620 -0.1660
 5286TIP3   OH215814   5.365   1.881   2.377  0.5106 -0.6301  0.2278
 5286TIP3    H115815   5.273   1.888   2.350  0.2678 -1.5778  0.7494
 5286TIP3    H215816   5.372   1.937   2.455  0.0180 -1.6154  1.0051
 5287TIP3   OH215817   1.942   4.347   3.730 -0.2769 -0.0353  0.6505
 5287TIP3    H115818   1.953   4.253   3.737  1.9535  0.2474  1.8751
 5287TIP3    H215819   2.029   4.380   3.709 -1.1788  1.7053 -0.6705
 5288TIP3   OH215820   3.787   3.759   4.761  0.1272  0.1935  0.5497
 5288TIP3    H115821   3.876   3.760   4.796  0.7526 -0.0672 -0.9590
 5288TIP3    H215822   3.746   3.837   4.799  1.2907  0.8362  0.5431
 5289TIP3   OH215823   8.122   0.778   6.231  0.2205 -0.1777  0.3250
 5289TIP3    H115824   8.112   0.854   6.173 -0.4489  0.1699  0.8816
 5289TIP3    H215825   8.159   0.710   6.174 -1.3502 -0.1632 -0.7934
 5290TIP3   OH215826   6.007   5.699   1.970  0.4186  0.0314  0.2400
 5290TIP3    H115827   6.000   5.694   1.874 -1.7333 -0.3557  0.3518
 5290TIP3    H215828   6.085   5.648   1.992 -0.1949 -1.6310 -1.1935
 5291TIP3   OH215829   3.729   2.816   0.767 -0.3848 -0.4556  0.3074
 5291TIP3    H115830   3.652   2.873   0.765  0.4248  0.6661 -1.1361
 5291TIP3    H215831   3.738   2.791   0.859 -1.4635  0.7994  0.7900
 5292TIP3   OH215832   4.663   7.545   6.155  0.2529  0.2373  0.8163
 5292TIP3    H115833   4.702   7.509   6.075 -0.0720 -1.9049  1.5588
 5292TIP3    H215834   4.608   7.617   6.124  1.5665  0.6591 -0.6715
 5293TIP3   OH215835   0.330   1.931   5.003  0.3467  0.1010  0.0735
 5293TIP3    H115836   0.319   1.858   5.064 -1.2116 -1.1751 -1.6349
 5293TIP3    H215837   0.422   1.957   5.013  0.1681  0.0014  2.9380
 5294TIP3   OH215838   3.217   2.695   4.886  0.0478  0.0865 -0.1018
 5294TIP3    H115839   3.158   2.696   4.961 -0.0903  1.4497 -0.2012
 5294TIP3    H215840   3.211   2.606   4.851 -1.9214  0.1789 -0.0864
 5295TIP3   OH215841   7.889   2.237   5.856 -0.0696  0.8992  0.0026
 5295TIP3    H115842   7.919   2.196   5.937 -0.4325  1.5843  0.4929
 5295TIP3    H215843   7.798   2.209   5.847  0.1573  0.2830 -0.5361
 5296TIP3   OH215844   4.663   5.592   3.890  0.3958  0.0797 -0.1680
 5296TIP3    H115845   4.638   5.520   3.947 -0.5436  0.4935 -0.0428
 5296TIP3    H215846   4.593   5.656   3.900  1.3360  1.1289 -0.0821
 5297TIP3   OH215847   4.930   2.610   1.667 -0.6285 -0.1510  0.2330
 5297TIP3    H115848   4.974   2.687   1.632  0.4514 -1.2025 -0.8763
 5297TIP3    H215849   4.855   2.597   1.609  0.9653 -1.6880 -1.6836
 5298TIP3   OH215850   0.528   0.056   6.511  0.4120  0.5057 -0.0385
 5298TIP3    H115851   0.572  -0.025   6.538  1.5332  1.0858 -0.0728
 5298TIP3    H215852   0.589   0.125   6.536 -0.5612  1.3508  0.0377
 5299TIP3   OH215853   7.846   6.321   4.000 -0.3011 -0.1631 -0.6918
 5299TIP3    H115854   7.775   6.256   3.993 -0.2207 -0.4021  0.5577
 5299TIP3    H215855   7.921   6.278   3.960  0.0277 -1.2859  1.0410
 5300TIP3   OH215856   7.187   4.354   6.705  0.2233  0.2612  0.5274
 5300TIP3    H115857   7.166   4.348   6.798  1.1099 -1.1489  0.6628
 5300TIP3    H215858   7.281   4.374   6.703  0.3358 -0.2950 -0.0561
 5301TIP3   OH215859   3.651   5.683   6.052  0.2976 -0.0922 -0.3884
 5301TIP3    H115860   3.646   5.653   6.143 -1.2552 -2.5337 -1.1794
 5301TIP3    H215861   3.641   5.603   6.000  1.6353  1.1575 -2.7497
 5302TIP3   OH215862   0.696   2.589   2.832  0.0948 -0.0224 -0.0987
 5302TIP3    H115863   0.677   2.606   2.924 -0.8657 -0.1698 -0.2675
 5302TIP3    H215864   0.733   2.501   2.830 -0.0005 -0.0662  0.1309
 5303TIP3   OH215865   4.218   4.774   6.360 -0.5417  0.9163 -0.0762
 5303TIP3    H115866   4.278   4.797   6.430  0.7721  1.1627 -1.2484
 5303TIP3    H215867   4.195   4.858   6.319  0.5950  0.6158 -1.4181
 5304TIP3   OH215868   4.829   4.978   0.877 -0.1795 -0.1834  0.3998
 5304TIP3    H115869   4.884   5.030   0.936  1.9795 -1.8790  0.0159
 5304TIP3    H215870   4.740   4.987   0.912  0.5639  1.3337  2.0523
 5305TIP3   OH215871   7.240   6.925   6.626 -0.0098  0.2397  0.2313
 5305TIP3    H115872   7.149   6.945   6.605 -0.5006 -1.7802  0.2985
 5305TIP3    H215873   7.284   6.922   6.540  0.1888  1.9051  0.2401
 5306TIP3   OH215874   0.744   2.113   5.486  0.5275  0.1125 -0.1656
 5306TIP3    H115875   0.684   2.183   5.510 -0.6796 -0.5067 -1.2788
 5306TIP3    H215876   0.799   2.151   5.417 -1.5362 -0.6248 -2.3103
 5307TIP3   OH215877   2.659   3.820   2.904 -0.2992  0.0262 -0.0789
 5307TIP3    H115878   2.575   3.809   2.949 -0.2481 -1.0240 -0.2268
 5307TIP3    H215879   2.644   3.784   2.817  1.2753 -3.5022  0.9630
 5308TIP3   OH215880   6.112   6.771   6.040  0.6789  0.1876  0.2984
 5308TIP3    H115881   6.028   6.815   6.035  0.9591  0.7294  0.3170
 5308TIP3    H215882   6.177   6.840   6.025  1.0883 -0.4779 -1.1817
 5309TIP3   OH215883   5.081   6.386   6.295  0.5889 -0.1496 -0.6196
 5309TIP3    H115884   5.115   6.460   6.346  1.0849 -0.3866 -0.6060
 5309TIP3    H215885   5.011   6.350   6.349  0.5796  0.0898 -0.4686
 5310TIP3   OH215886   1.235   6.582   5.995 -0.5100  0.0823 -0.2093
 5310TIP3    H115887   1.325   6.592   5.966  0.0439 -2.7935  0.1501
 5310TIP3    H215888   1.231   6.629   6.079  0.8486 -0.2251  0.0476
 5311TIP3   OH215889   7.258   7.812   3.534 -0.5023  0.5682 -0.4868
 5311TIP3    H115890   7.185   7.853   3.486 -1.7099  1.5063  2.0147
 5311TIP3    H215891   7.216   7.763   3.605  1.2191 -0.9424 -0.4165
 5312TIP3   OH215892   1.657   4.475   2.395  0.2328 -0.2699 -0.1908
 5312TIP3    H115893   1.585   4.436   2.345 -0.9633 -1.1966  2.0908
 5312TIP3    H215894   1.665   4.419   2.472 -0.5539  3.0108  2.5187
 5313TIP3   OH215895   8.142   3.158   2.416 -0.4016 -0.4128 -0.0131
 5313TIP3    H115896   8.099   3.172   2.332 -0.1192  1.4372  0.1065
 5313TIP3    H215897   8.234   3.177   2.399 -0.4295  0.5626  0.8160
 5314TIP3   OH215898   1.315   2.712   4.213 -0.0990  0.4237 -0.2431
 5314TIP3    H115899   1.373   2.703   4.288  1.2896 -2.2839 -1.5105
 5314TIP3    H215900   1.227   2.702   4.249  0.5332 -0.8647  1.0468
 5315TIP3   OH215901   7.330   1.295   5.894  0.4227  0.0720 -0.4231
 5315TIP3    H115902   7.343   1.222   5.955 -0.1134 -0.4212 -0.8953
 5315TIP3    H215903   7.415   1.303   5.850  0.3047 -0.6714 -0.8054
 5316TIP3   OH215904   8.074   2.896   1.809 -0.2177  0.6544 -0.0073
 5316TIP3    H115905   8.099   2.901   1.717 -0.5783  0.5736 -0.1128
 5316TIP3    H215906   8.026   2.978   1.825 -2.1580 -0.3189 -0.5155
 5317TIP3   OH215907   5.861   2.421   4.314 -0.1119  0.9206  0.5232
 5317TIP3    H115908   5.954   2.415   4.293 -0.2808 -0.4328  0.0933
 5317TIP3    H215909   5.835   2.332   4.337 -1.3522  1.2388  0.4456
 5318TIP3   OH215910   2.468   4.785   0.932  0.1586  0.5040 -0.5081
 5318TIP3    H115911   2.529   4.724   0.890 -0.1824  0.4428 -0.9171
 5318TIP3    H215912   2.446   4.743   1.015  0.2364  0.2608 -0.6094
 5319TIP3   OH215913   8.231   3.838   3.433 -0.0347  0.4769  0.3384
 5319TIP3    H115914   8.300   3.866   3.372  0.3706  0.5747  0.8325
 5319TIP3    H215915   8.277   3.780   3.494 -0.6343 -0.3893 -0.0218
 5320TIP3   OH215916   1.236   3.396   2.101  0.2524 -0.1171  0.4263
 5320TIP3    H115917   1.152   3.438   2.120  0.7453  0.3660  1.6300
 5320TIP3    H215918   1.213   3.322   2.044 -1.0288 -0.2196  1.0335
 5321TIP3   OH215919   1.670   3.417   0.943 -0.0398 -0.2553  0.1020
 5321TIP3    H115920   1.667   3.383   1.033 -0.1969 -0.7392 -0.0847
 5321TIP3    H215921   1.648   3.510   0.952  0.2372 -0.2315  0.5994
 5322TIP3   OH215922   7.057   1.939   1.650  0.5049  0.3080  0.5037
 5322TIP3    H115923   7.068   2.033   1.665 -2.7601  0.9499 -0.3903
 5322TIP3    H215924   7.055   1.930   1.555  0.8324 -0.6840  0.5791
 5323TIP3   OH215925   7.044   3.979   0.503 -0.0189  0.5959  0.0774
 5323TIP3    H115926   7.000   3.935   0.431  1.8498  1.3658 -1.6275
 5323TIP3    H215927   6.996   4.061   0.514 -0.4903  0.3443 -0.0979
 5324TIP3   OH215928   3.476   0.992   4.391 -0.4304 -0.0705  0.5303
 5324TIP3    H115929   3.481   0.939   4.312 -0.6391 -0.6217  0.8742
 5324TIP3    H215930   3.506   1.079   4.365  1.0660 -0.6585  0.2214
 5325TIP3   OH215931   1.714   2.901   0.673 -0.6463 -0.4607 -0.4303
 5325TIP3    H115932   1.704   2.854   0.591  0.3394 -1.0079 -0.2614
 5325TIP3    H215933   1.679   2.842   0.739 -1.5898  0.0468 -0.4661
 5326TIP3   OH215934   4.311   1.011   5.383 -0.2227 -0.4062 -0.3190
 5326TIP3    H115935   4.286   0.919   5.377  1.1415 -1.0292  2.0852
 5326TIP3    H215936   4.298   1.045   5.294 -2.4106 -2.4266 -0.8966
 5327TIP3   OH215937   4.155   6.260   6.664 -0.2346  0.2574  0.0471
 5327TIP3    H115938   4.246   6.229   6.657  0.0509  0.9316  0.6094
 5327TIP3    H215939   4.137   6.301   6.580 -0.6359 -1.4191 -0.7394
 5328TIP3   OH215940   7.505   1.588   0.134 -0.2327  0.3578 -0.0674
 5328TIP3    H115941   7.526   1.640   0.212 -2.0980  0.4196  0.4433
 5328TIP3    H215942   7.475   1.504   0.169  1.3559 -0.5685 -0.8404
 5329TIP3   OH215943   7.000   0.258   2.128 -0.2533  0.1869  0.2102
 5329TIP3    H115944   6.947   0.302   2.195  0.2233  0.6357  0.2968
 5329TIP3    H215945   6.957   0.281   2.045 -0.7430 -0.2282  0.3402
 5330TIP3   OH215946   2.374   7.222   4.184  0.3303 -0.3813  0.2203
 5330TIP3    H115947   2.331   7.263   4.109 -0.2242 -0.8428  0.2743
 5330TIP3    H215948   2.466   7.219   4.160  0.0396 -1.3606 -0.8566
 5331TIP3   OH215949   4.127   2.274   5.947  0.3215 -0.0306 -0.1943
 5331TIP3    H115950   4.197   2.317   5.995  0.8692 -1.5527  0.4487
 5331TIP3    H215951   4.087   2.214   6.010  0.3886 -1.3411 -1.3271
 5332TIP3   OH215952   2.778   5.670   5.522  0.8954  0.8190  0.0008
 5332TIP3    H115953   2.795   5.603   5.455 -0.3929 -0.5368  0.9364
 5332TIP3    H215954   2.688   5.653   5.549  0.9532  2.1845  1.1545
 5333TIP3   OH215955   2.218   6.939   4.950 -0.6019  0.5742 -0.0081
 5333TIP3    H115956   2.301   6.958   4.906 -0.1280 -0.4789  0.4031
 5333TIP3    H215957   2.159   6.915   4.879 -0.3220  0.5339 -0.2320
 5334TIP3   OH215958   2.486   7.753   6.497  0.2706 -0.1828 -0.0343
 5334TIP3    H115959   2.536   7.806   6.559 -0.0433  0.9376 -0.7087
 5334TIP3    H215960   2.405   7.731   6.543 -0.7539  2.1263 -0.5903
 5335TIP3   OH215961   7.705   1.539   5.719 -0.3171 -0.1997  0.1423
 5335TIP3    H115962   7.639   1.606   5.736  0.9733  0.7832  1.7247
 5335TIP3    H215963   7.782   1.570   5.768  1.3962 -1.1330 -1.8202
 5336TIP3   OH215964  -0.008   6.043   2.382  0.4828 -0.4775 -0.1653
 5336TIP3    H115965   0.069   6.022   2.434  0.8768  1.4791  0.1317
 5336TIP3    H215966  -0.008   5.979   2.311  1.9616 -0.9604  0.2376
 5337TIP3   OH215967   0.832   3.949   5.545  0.1589  0.0767  0.1329
 5337TIP3    H115968   0.909   3.999   5.571  1.4573 -0.9044 -1.5700
 5337TIP3    H215969   0.822   3.966   5.451 -0.0810 -1.8376 -0.2450
 5338TIP3   OH215970   5.723   0.059   2.697  0.2039 -0.6414 -0.2103
 5338TIP3    H115971   5.727   0.046   2.792 -1.6269 -2.8151 -0.3334
 5338TIP3    H215972   5.706  -0.029   2.662  0.0926  0.2302 -2.4861
 5339TIP3   OH215973   5.639   3.826   3.621 -0.5233  0.1392 -0.0597
 5339TIP3    H115974   5.605   3.867   3.701  1.1635  0.2423  0.6525
 5339TIP3    H215975   5.562   3.816   3.565 -1.5817  1.0240  1.1559
 5340TIP3   OH215976   4.758   5.777   6.250  0.1095 -0.1561 -0.3048
 5340TIP3    H115977   4.815   5.727   6.309 -1.4132  0.3721  1.7410
 5340TIP3    H215978   4.818   5.831   6.198  1.7570 -3.3571 -1.9995
 5341TIP3   OH215979   3.985   0.099   4.009 -0.2318 -0.0279  0.0795
 5341TIP3    H115980   3.905   0.135   3.973 -1.2526 -1.1000  1.1710
 5341TIP3    H215981   4.030   0.060   3.934 -1.6859 -1.1128 -0.2661
 5342TIP3   OH215982   4.779   3.446   5.563 -0.0040 -0.0687  0.0003
 5342TIP3    H115983   4.707   3.438   5.501 -1.6747  2.3941  1.4413
 5342TIP3    H215984   4.743   3.416   5.646  1.2176 -0.4923  0.4011
 5343TIP3   OH215985   5.256   4.320   1.092  0.1960 -0.3270 -0.2863
 5343TIP3    H115986   5.174   4.318   1.142  0.4219 -3.3683  0.1822
 5343TIP3    H215987   5.323   4.296   1.155  0.9755 -0.9896 -1.3384
 5344TIP3   OH215988   2.067   6.375   2.529  0.3888  0.1700 -0.0060
 5344TIP3    H115989   2.024   6.316   2.591  0.1183 -0.2411 -0.5787
 5344TIP3    H215990   2.110   6.317   2.467 -0.2455  0.5699 -0.8355
 5345TIP3   OH215991   2.708   4.591   6.529 -0.1074 -0.3820 -0.5512
 5345TIP3    H115992   2.710   4.636   6.445 -0.6586 -0.1768 -0.4533
 5345TIP3    H215993   2.666   4.652   6.589  0.8506 -0.2722  0.0280
 5346TIP3   OH215994   5.907   6.931   6.701  0.6545  0.0142  0.1977
 5346TIP3    H115995   5.978   6.879   6.738  0.4595 -0.9699 -0.7602
 5346TIP3    H215996   5.933   7.022   6.718  0.6913 -0.3801  2.4447
 5347TIP3   OH215997   5.733   7.210   3.518 -0.3085  0.1235  0.3896
 5347TIP3    H115998   5.773   7.296   3.518  0.7472 -0.3440 -0.2890
 5347TIP3    H215999   5.645   7.224   3.481  0.0569  0.8215 -0.2472
 5348TIP3   OH216000   2.968   6.623   2.224  0.1086 -0.1579 -0.0224
 5348TIP3    H116001   2.879   6.596   2.243 -0.0313  1.6621  2.3951
 5348TIP3    H216002   3.023   6.564   2.275  0.0837  0.6679  0.9884
 5349TIP3   OH216003   4.576   5.321   6.151 -0.5503 -0.3161  0.5484
 5349TIP3    H116004   4.509   5.254   6.140 -0.9850 -0.0521  1.5089
 5349TIP3    H216005   4.624   5.320   6.068 -2.3035  0.1260 -0.5260
 5350TIP3   OH216006   0.470   0.690   6.076 -0.1264  0.8273 -0.1618
 5350TIP3    H116007   0.438   0.608   6.037  0.1959  0.4516  0.3509
 5350TIP3    H216008   0.399   0.719   6.133 -0.3194  1.0107 -0.4922
 5351TIP3   OH216009   4.413   6.010   0.364 -0.3082  0.2381 -0.6050
 5351TIP3    H116010   4.445   6.090   0.406 -1.7030  1.5232 -1.8743
 5351TIP3    H216011   4.446   5.939   0.419  1.9040  1.6060 -0.0395
 5352TIP3   OH216012   5.536   5.461   4.710 -0.2126  0.1383  0.0654
 5352TIP3    H116013   5.447   5.449   4.677 -0.4637  0.5747  0.5769
 5352TIP3    H216014   5.574   5.373   4.708  0.2195  0.3046 -2.5591
 5353TIP3   OH216015   8.000   1.110   1.826  0.6419 -0.0476 -0.3123
 5353TIP3    H116016   7.912   1.077   1.840  1.0625 -0.9143  0.3389
 5353TIP3    H216017   8.031   1.064   1.748  1.0583 -0.8708  0.3274
 5354TIP3   OH216018   4.767   7.234   5.268 -0.1232 -0.4891  0.1655
 5354TIP3    H116019   4.705   7.284   5.215  0.5516 -0.7440 -0.8903
 5354TIP3    H216020   4.838   7.296   5.286 -1.0206  0.0724  2.0980
 5355TIP3   OH216021   5.776   3.846   4.762 -0.5323  0.4124  0.3247
 5355TIP3    H116022   5.788   3.931   4.805  2.1723 -0.5696  1.7439
 5355TIP3    H216023   5.855   3.834   4.710 -0.9451 -1.1772  0.0167
 5356TIP3   OH216024   7.065   4.611   4.864 -0.6273 -0.0950 -0.3666
 5356TIP3    H116025   6.969   4.619   4.867 -0.5851  1.1011 -1.4145
 5356TIP3    H216026   7.080   4.517   4.849 -1.6177 -0.3341  0.0191
 5357TIP3   OH216027   1.288   4.809   0.685 -0.3072  0.0364  0.3329
 5357TIP3    H116028   1.352   4.862   0.638 -1.5488  0.6270 -0.7320
 5357TIP3    H216029   1.278   4.730   0.631 -0.5310 -0.0192  0.4543
 5358TIP3   OH216030   7.226   3.687   0.306  0.0105 -0.5489  0.5510
 5358TIP3    H116031   7.153   3.670   0.246 -0.1063 -0.9035  0.7941
 5358TIP3    H216032   7.274   3.759   0.264  0.1687 -1.0660 -0.1805
 5359TIP3   OH216033   2.968   2.586   3.770  0.3405 -0.2003  0.3198
 5359TIP3    H116034   3.054   2.554   3.741 -0.1983 -1.0789 -0.3508
 5359TIP3    H216035   2.909   2.513   3.755 -0.5350  0.3939  0.7891
 5360TIP3   OH216036   2.401   0.480   3.653  0.2186 -0.2479 -0.2932
 5360TIP3    H116037   2.394   0.401   3.706  0.3655 -0.5011 -0.6461
 5360TIP3    H216038   2.463   0.457   3.584  0.7020  0.3628 -0.0662
 5361TIP3   OH216039   4.748   5.890   0.950 -0.0285  0.2139 -0.2138
 5361TIP3    H116040   4.788   5.896   0.863  0.1192  1.4047 -0.0759
 5361TIP3    H216041   4.813   5.844   1.003  0.3959  0.5619 -0.4329
 5362TIP3   OH216042   4.325   7.192   1.201  0.2075 -0.3022  0.2671
 5362TIP3    H116043   4.306   7.278   1.238 -0.4321 -0.1102 -0.4838
 5362TIP3    H216044   4.417   7.196   1.174  0.5632 -0.3077  1.4310
 5363TIP3   OH216045   5.303   0.110   6.199  0.0176 -0.8695 -0.2464
 5363TIP3    H116046   5.351   0.028   6.213  0.6141 -0.2533  1.7175
 5363TIP3    H216047   5.257   0.125   6.281 -0.4262  0.5506 -0.7271
 5364TIP3   OH216048   5.928   3.232   0.079  0.5740  0.2856 -0.7730
 5364TIP3    H116049   5.993   3.216   0.147 -1.6370 -0.5586  1.2780
 5364TIP3    H216050   5.878   3.151   0.074 -0.2697  0.8637 -2.3686
 5365TIP3   OH216051   0.143   6.735   5.008  0.1149  0.3638 -0.3887
 5365TIP3    H116052   0.233   6.701   5.003  0.1037  0.5087 -2.2510
 5365TIP3    H216053   0.093   6.680   4.947 -1.4594 -0.7721  1.8017
 5366TIP3   OH216054   0.448   2.610   0.281 -0.5082 -0.0605  0.2624
 5366TIP3    H116055   0.494   2.667   0.343 -0.4821 -0.2105  0.3806
 5366TIP3    H216056   0.356   2.617   0.306 -0.8933  2.0762 -1.4126
 5367TIP3   OH216057   3.514   0.220   3.973 -0.1114 -0.2891 -0.2416
 5367TIP3    H116058   3.600   0.198   3.938 -0.6887 -1.5099 -0.9637
 5367TIP3    H216059   3.494   0.148   4.033 -0.4298  0.2465  0.3137
 5368TIP3   OH216060   7.323   6.435   1.725  0.1306  0.2774  0.3376
 5368TIP3    H116061   7.259   6.435   1.795  0.3248 -0.2450  0.5219
 5368TIP3    H216062   7.355   6.345   1.721  0.7469  0.4966  0.1553
 5369TIP3   OH216063   3.690   1.350   3.145  0.3089 -0.3378 -0.0896
 5369TIP3    H116064   3.757   1.321   3.207  2.8855  0.7688 -2.1826
 5369TIP3    H216065   3.699   1.291   3.071 -0.4506  0.3401 -0.7400
 5370TIP3   OH216066   4.113   6.553   3.485  0.5237 -0.0598 -0.1638
 5370TIP3    H116067   4.099   6.545   3.580  0.6015 -0.8166 -0.2096
 5370TIP3    H216068   4.184   6.492   3.466 -0.6683 -1.2424 -0.9728
 5371TIP3   OH216069   0.490   5.746   6.230 -0.2862 -0.3439 -0.0348
 5371TIP3    H116070   0.567   5.719   6.279  0.2935 -0.8638 -1.1820
 5371TIP3    H216071   0.460   5.666   6.186  0.0710  0.3542 -1.6496
 5372TIP3   OH216072   1.616   1.398   0.666  0.1682  0.0597 -0.3147
 5372TIP3    H116073   1.675   1.454   0.717 -0.7905  0.4199  0.4321
 5372TIP3    H216074   1.650   1.309   0.678  1.8900  0.4718 -1.7662
 5373TIP3   OH216075   1.395   5.987   2.781 -0.2449 -0.6434 -0.3582
 5373TIP3    H116076   1.455   6.049   2.740 -0.3437  0.3794  0.9731
 5373TIP3    H216077   1.310   6.009   2.744 -0.0377 -1.0990 -1.1255
 5374TIP3   OH216078   6.789   4.614   0.510 -0.3990  0.3793  0.1410
 5374TIP3    H116079   6.711   4.654   0.473  0.6362  1.7165 -0.6938
 5374TIP3    H216080   6.859   4.637   0.449  0.5842 -1.1146  0.6637
 5375TIP3   OH216081   4.784   4.673   5.251  0.0637 -0.0337 -0.0397
 5375TIP3    H116082   4.758   4.738   5.187 -0.6985 -0.0516  0.2382
 5375TIP3    H216083   4.879   4.668   5.244  0.2554  1.9440  0.7346
 5376TIP3   OH216084   5.797   6.941   5.699 -0.2138 -0.7023  0.0376
 5376TIP3    H116085   5.884   6.904   5.681  0.4829  0.6676  0.4174
 5376TIP3    H216086   5.791   7.017   5.640  0.0890  0.9345  2.0015
 5377TIP3   OH216087   3.844   2.692   3.717  0.2525  0.2914  0.4627
 5377TIP3    H116088   3.822   2.743   3.639 -1.0059 -0.4910  0.2818
 5377TIP3    H216089   3.764   2.692   3.769  0.2586 -1.3562  0.5332
 5378TIP3   OH216090   7.845   0.448   1.263 -0.2242  0.3034 -0.1642
 5378TIP3    H116091   7.803   0.387   1.324  0.1602  1.1741  1.0134
 5378TIP3    H216092   7.793   0.443   1.183 -3.3331  2.1498  1.5634
 5379TIP3   OH216093   5.250   3.206   1.768 -0.0625  0.8217  0.4926
 5379TIP3    H116094   5.256   3.292   1.727  0.8134  0.9967  0.9578
 5379TIP3    H216095   5.296   3.215   1.851 -0.4790  0.0602  0.8239
 5380TIP3   OH216096   6.649   4.719   6.576 -0.8266  0.4889  0.0203
 5380TIP3    H116097   6.601   4.669   6.510 -1.4060  0.1803  0.6623
 5380TIP3    H216098   6.581   4.758   6.630 -0.3518  0.2792  0.7796
 5381TIP3   OH216099   1.249   2.466   6.023 -0.2376 -0.5379  0.6220
 5381TIP3    H116100   1.195   2.388   6.040 -2.1027  0.8594  1.4198
 5381TIP3    H216101   1.196   2.518   5.962  0.4097  0.6857  1.0854
 5382TIP3   OH216102   4.004   6.356   4.146  0.0280 -0.1790 -0.4698
 5382TIP3    H116103   3.912   6.370   4.123  0.4193  0.7928 -1.5419
 5382TIP3    H216104   4.051   6.426   4.100  1.1375  0.4429  1.4661
 5383TIP3   OH216105   6.835   4.135   0.749  0.2322 -0.1191 -0.0310
 5383TIP3    H116106   6.884   4.174   0.676  0.8304 -1.6840 -0.5067
 5383TIP3    H216107   6.763   4.196   0.765  0.0446  0.2370 -1.9890
 5384TIP3   OH216108   7.663   7.579   5.505 -0.1432  0.0099  0.4531
 5384TIP3    H116109   7.591   7.531   5.465  1.2237 -0.1964 -2.0149
 5384TIP3    H216110   7.648   7.670   5.480 -0.4317  0.2266  1.3892
 5385TIP3   OH216111   4.004   2.050   6.178 -1.1340  0.1979 -0.2455
 5385TIP3    H116112   3.991   1.977   6.117  1.7300  0.3026 -1.1327
 5385TIP3    H216113   3.995   2.011   6.265  1.0099 -1.4944 -0.6743
 5386TIP3   OH216114   3.433   4.054   4.400 -0.0369 -0.4053  0.3396
 5386TIP3    H116115   3.504   4.039   4.462  0.0922  1.1979  0.6055
 5386TIP3    H216116   3.474   4.097   4.325 -0.2675 -1.9453 -0.7270
 5387TIP3   OH216117   7.028   1.064   2.044 -0.1814  0.4083  0.4704
 5387TIP3    H116118   7.079   0.992   2.081  0.4199 -0.2913 -1.5772
 5387TIP3    H216119   6.944   1.059   2.089 -0.1871 -1.6713  0.3528
 5388TIP3   OH216120   1.121   3.767   2.158 -0.2089  0.0043  0.6017
 5388TIP3    H116121   1.206   3.805   2.136 -1.2066  1.7133 -0.6075
 5388TIP3    H216122   1.103   3.703   2.089 -0.0144 -0.1706  0.7144
 5389TIP3   OH216123   3.597   6.508   0.118  0.1172  0.9286  0.2640
 5389TIP3    H116124   3.582   6.478   0.208  2.4492  1.5500  0.9076
 5389TIP3    H216125   3.514   6.489   0.073 -1.4664  1.4894  2.7500
 5390TIP3   OH216126   2.724   5.080   6.521  0.0885 -0.0509  1.1049
 5390TIP3    H116127   2.640   5.036   6.509 -0.4770  0.9972  1.0769
 5390TIP3    H216128   2.775   5.057   6.443 -1.1341  1.3600 -0.1644
 5391TIP3   OH216129   2.804   1.132   2.819  0.2701 -0.3214 -0.1874
 5391TIP3    H116130   2.753   1.055   2.846  2.1055 -2.0138 -1.2552
 5391TIP3    H216131   2.820   1.118   2.725  2.3703  0.2878  0.0225
 5392TIP3   OH216132   0.130   3.450   2.233 -0.2804  0.5382 -0.0571
 5392TIP3    H116133   0.097   3.361   2.249 -0.9329  0.9189  0.8360
 5392TIP3    H216134   0.181   3.443   2.153  0.8690 -0.9553  0.7458
 5393TIP3   OH216135   5.625   6.994   0.364  0.0321  0.2192 -0.6017
 5393TIP3    H116136   5.609   7.080   0.402  0.3138 -0.2554  0.6423
 5393TIP3    H216137   5.540   6.969   0.326 -0.0386  1.0458 -1.0073
 5394TIP3   OH216138   2.133   1.994   5.314  0.4953 -0.3152 -0.2895
 5394TIP3    H116139   2.081   1.915   5.297 -1.8056  1.5201 -2.6359
 5394TIP3    H216140   2.133   2.003   5.409  0.0558 -2.6000 -0.0062
 5395TIP3   OH216141   3.672   7.727   6.741 -0.3054 -0.4091  0.8741
 5395TIP3    H116142   3.637   7.705   6.654 -0.7391  0.2654  0.8670
 5395TIP3    H216143   3.740   7.661   6.757 -0.2413 -0.5646  0.0356
 5396TIP3   OH216144   1.144   7.337   3.672  0.4402  0.2182 -0.0345
 5396TIP3    H116145   1.198   7.416   3.675 -0.2676  0.7004  0.3583
 5396TIP3    H216146   1.122   7.320   3.763  1.0940 -0.7989 -0.0560
 5397TIP3   OH216147   2.573   2.969   1.019 -0.3204  0.0068 -0.1220
 5397TIP3    H116148   2.663   2.986   0.990  0.6423  0.0086  2.5866
 5397TIP3    H216149   2.577   2.977   1.114 -3.3752  0.7332  0.0431
 5398TIP3   OH216150   0.978   5.279   1.248  0.2134  0.0812 -0.0963
 5398TIP3    H116151   1.024   5.197   1.264  0.4419  0.7754  3.8465
 5398TIP3    H216152   1.049   5.344   1.240  0.0008  0.3549  0.2265
 5399TIP3   OH216153   5.268   2.969   5.722  0.0750 -0.7873 -0.9444
 5399TIP3    H116154   5.298   3.022   5.796  0.9796 -1.6803 -0.6601
 5399TIP3    H216155   5.173   2.980   5.722  0.2697  1.4529 -1.3813
 5400TIP3   OH216156   8.047   2.707   0.281  0.3024 -0.0704  0.8674
 5400TIP3    H116157   7.971   2.649   0.276 -0.8584  1.4863 -0.9647
 5400TIP3    H216158   8.092   2.694   0.197 -0.4998  2.2296 -0.0084
 5401TIP3   OH216159   2.417   4.870   4.265 -0.4187  0.2692 -0.0324
 5401TIP3    H116160   2.342   4.881   4.205 -1.8699  0.7658  1.7977
 5401TIP3    H216161   2.378   4.868   4.352  1.8268  1.6885  1.0830
 5402TIP3   OH216162   5.630   1.554   0.512 -0.2891  0.7777  0.0773
 5402TIP3    H116163   5.598   1.612   0.442 -0.5596 -0.4939 -0.8888
 5402TIP3    H216164   5.723   1.543   0.493 -0.5746 -0.4035 -0.7287
 5403TIP3   OH216165   1.118   4.528   4.685 -0.5521  0.1166  0.5485
 5403TIP3    H116166   1.194   4.583   4.706 -0.7596  1.2535 -1.4599
 5403TIP3    H216167   1.148   4.471   4.614 -2.2692  2.6919 -2.5243
 5404TIP3   OH216168   0.261   0.033   2.524 -0.0529 -0.3068  0.0832
 5404TIP3    H116169   0.288   0.121   2.547  1.9702 -0.6372 -0.7685
 5404TIP3    H216170   0.250   0.035   2.429  1.9173 -1.3606 -0.2316
 5405TIP3   OH216171   4.230   5.609   6.298 -0.2611  0.0917 -0.3146
 5405TIP3    H116172   4.136   5.606   6.284 -0.5492 -0.2652  1.4621
 5405TIP3    H216173   4.268   5.615   6.210 -1.8853 -0.7786 -1.1007
 5406TIP3   OH216174   0.394   2.061   6.721 -0.1678  0.5629  0.4158
 5406TIP3    H116175   0.342   1.983   6.741 -1.3339  0.9330 -1.0154
 5406TIP3    H216176   0.432   2.086   6.806  0.8576 -1.9401  0.8078
 5407TIP3   OH216177   0.973   7.530   3.998 -0.5286 -0.2306  0.5392
 5407TIP3    H116178   0.997   7.482   3.918 -0.2891  0.6154  0.0898
 5407TIP3    H216179   0.953   7.618   3.967  1.5876  0.7110  1.6516
 5408TIP3   OH216180   1.033   4.490   2.629  0.2109  0.0519 -0.0003
 5408TIP3    H116181   1.127   4.482   2.610  0.1934 -0.3128  0.0510
 5408TIP3    H216182   1.003   4.399   2.638 -0.2969  0.1414 -0.7528
 5409TIP3   OH216183   4.495   0.313   1.560 -0.1729  0.0125 -0.3691
 5409TIP3    H116184   4.533   0.334   1.474  0.4780  1.1158  0.1578
 5409TIP3    H216185   4.564   0.337   1.622 -1.2515  0.7994  0.5530
 5410TIP3   OH216186   0.830   2.292   6.468 -0.0148 -0.0768  0.0478
 5410TIP3    H116187   0.844   2.204   6.504  0.4053 -0.6773 -1.5272
 5410TIP3    H216188   0.898   2.302   6.402 -0.1187  1.4135  0.1483
 5411TIP3   OH216189   5.053   0.821   6.772 -0.2020 -0.0214 -0.1658
 5411TIP3    H116190   5.064   0.902   6.821  0.4920  0.4852 -1.1196
 5411TIP3    H216191   4.978   0.836   6.714  0.1445  0.0846 -0.5978
 5412TIP3   OH216192   4.091   2.721   4.972  0.7640 -0.5079  0.2641
 5412TIP3    H116193   4.026   2.752   4.909 -0.2208 -1.4356  0.7851
 5412TIP3    H216194   4.168   2.776   4.957  0.6277 -0.8375 -1.8683
 5413TIP3   OH216195   8.293   5.604   4.265  0.1905 -0.1603 -0.1681
 5413TIP3    H116196   8.272   5.549   4.190  0.9154 -0.0710 -0.4446
 5413TIP3    H216197   8.209   5.619   4.308 -0.2828  0.0370 -1.1326
 5414TIP3   OH216198   0.032   0.998   0.224  0.2202 -0.1223  0.4065
 5414TIP3    H116199   0.045   1.089   0.198  0.1073  0.4334  2.1811
 5414TIP3    H216200   0.068   0.947   0.152 -1.5318  1.2781 -1.6060
 5415TIP3   OH216201   7.004   4.499   1.437  0.1207  0.0273 -0.7126
 5415TIP3    H116202   6.970   4.509   1.526  1.7771 -0.5191  0.0080
 5415TIP3    H216203   7.084   4.551   1.435 -0.3597  0.7931 -2.1923
 5416TIP3   OH216204   2.916   3.734   3.923  0.0979  0.4039  0.0112
 5416TIP3    H116205   2.947   3.646   3.948 -2.2283 -0.6988 -0.7445
 5416TIP3    H216206   2.853   3.757   3.991  1.7065  2.1888  0.9934
 5417TIP3   OH216207   3.718   0.026   3.219 -0.2816 -0.2413  0.0977
 5417TIP3    H116208   3.733  -0.062   3.184 -0.1413 -0.7119  1.3050
 5417TIP3    H216209   3.792   0.078   3.188 -0.5612 -0.4345 -0.9432
 5418TIP3   OH216210   5.017   4.297   4.578  0.2736  0.5790 -0.0924
 5418TIP3    H116211   4.961   4.224   4.607  1.3666 -0.2264  0.0627
 5418TIP3    H216212   4.989   4.314   4.488  0.2511 -0.2812 -0.2614
 5419TIP3   OH216213   3.530   1.909   3.675  0.2112 -0.0038  0.1487
 5419TIP3    H116214   3.523   1.912   3.770 -0.5847  0.9395  0.0781
 5419TIP3    H216215   3.606   1.853   3.658  1.2028  0.9067  1.3769
 5420TIP3   OH216216   6.219   6.817   3.615  0.6289  0.1728  0.3971
 5420TIP3    H116217   6.179   6.757   3.552  0.8046  1.2710 -0.7906
 5420TIP3    H216218   6.190   6.784   3.700  0.3254 -1.3003 -0.2406
 5421TIP3   OH216219   7.480   7.128   2.265  0.3753  0.1630 -0.5104
 5421TIP3    H116220   7.456   7.150   2.176  1.6122  1.5657 -0.5449
 5421TIP3    H216221   7.398   7.107   2.309 -0.1907 -1.0785 -2.0860
 5422TIP3   OH216222   6.071   6.294   0.684 -0.0289 -0.0455 -0.0724
 5422TIP3    H116223   5.991   6.346   0.695  0.6034  0.6879  1.2798
 5422TIP3    H216224   6.079   6.284   0.589 -2.6581 -1.6520 -0.2283
 5423TIP3   OH216225   1.394   1.139   3.579 -0.0089 -0.4933  0.0640
 5423TIP3    H116226   1.376   1.167   3.669  1.4559  0.0355  0.2124
 5423TIP3    H216227   1.375   1.045   3.579  0.5554 -0.6156  1.0863
 5424TIP3   OH216228   7.297   1.664   2.341  0.5730 -0.3060  0.3816
 5424TIP3    H116229   7.364   1.622   2.287  0.0492  0.3318 -0.8121
 5424TIP3    H216230   7.253   1.724   2.281 -1.5410 -1.2229  0.9365
 5425TIP3   OH216231   6.607   4.813   5.950  0.1375  0.0405 -0.7082
 5425TIP3    H116232   6.629   4.722   5.969  0.0566 -0.2338 -1.8784
 5425TIP3    H216233   6.526   4.808   5.900  0.0625  0.7715 -0.6744
 5426TIP3   OH216234   4.597   7.743   0.287 -0.3737 -0.2186 -0.0078
 5426TIP3    H116235   4.646   7.662   0.297 -0.2733 -0.2856 -0.9755
 5426TIP3    H216236   4.595   7.759   0.193 -1.8077  0.0267  0.0370
 5427TIP3   OH216237   5.121   2.578   2.203 -0.4438 -0.4892  0.1862
 5427TIP3    H116238   5.114   2.564   2.109 -0.1472 -0.6319  0.1842
 5427TIP3    H216239   5.183   2.511   2.233  0.1102  0.0832  0.3488
 5428TIP3   OH216240   4.193   1.043   0.291  0.8002  0.4887 -0.0396
 5428TIP3    H116241   4.123   0.984   0.265  1.4403  0.5756 -2.2338
 5428TIP3    H216242   4.232   1.002   0.368  0.2712 -1.1542 -0.5956
 5429TIP3   OH216243   5.399   3.786   1.039 -0.2319 -0.3502  0.4181
 5429TIP3    H116244   5.349   3.725   0.985  0.6047 -0.4315 -0.2989
 5429TIP3    H216245   5.393   3.750   1.128  0.5032 -1.6783 -0.0347
 5430TIP3   OH216246   1.419   7.303   3.539 -0.0052 -0.2200  0.0800
 5430TIP3    H116247   1.468   7.352   3.474  0.9931 -0.5345  0.5672
 5430TIP3    H216248   1.328   7.328   3.525  0.0670 -1.0147 -2.0476
 5431TIP3   OH216249   2.599   6.804   3.617  0.6363 -0.2437 -0.7402
 5431TIP3    H116250   2.660   6.877   3.609  0.4253  0.1688  1.1210
 5431TIP3    H216251   2.655   6.727   3.621  0.8783 -0.1793 -2.1700
 5432TIP3   OH216252   0.156   4.455   4.624 -0.1375  0.2501 -0.4616
 5432TIP3    H116253   0.118   4.367   4.616 -1.6099  0.7429  0.8314
 5432TIP3    H216254   0.104   4.499   4.690  0.0607  2.4008 -1.6330
 5433TIP3   OH216255   6.295   6.022   0.995 -0.1274 -0.2542 -0.0936
 5433TIP3    H116256   6.296   5.967   0.916  0.3553  1.4973 -1.3573
 5433TIP3    H216257   6.270   6.109   0.964 -1.2074  0.2051  1.9055
 5434TIP3   OH216258   2.305   5.954   6.217 -0.1820 -0.2814 -0.9961
 5434TIP3    H116259   2.357   5.926   6.291 -2.1356  0.9406  0.9524
 5434TIP3    H216260   2.337   6.042   6.195 -0.4538 -0.1150 -0.7359
 5435TIP3   OH216261   3.517   3.430   5.269  0.3752 -0.5516 -0.3270
 5435TIP3    H116262   3.578   3.478   5.212  2.3836 -0.6305  1.6193
 5435TIP3    H216263   3.492   3.493   5.335  0.2598 -1.2034  0.2620
 5436TIP3   OH216264   4.062   4.207   1.756  0.7134  0.7117  0.1805
 5436TIP3    H116265   4.076   4.115   1.735 -0.4956 -0.4233  3.6390
 5436TIP3    H216266   4.141   4.233   1.804  0.1784  0.8067  1.0291
 5437TIP3   OH216267   6.694   0.360   6.197  0.3261  0.2799  0.0121
 5437TIP3    H116268   6.751   0.426   6.236  0.2588 -0.2818  1.0978
 5437TIP3    H216269   6.616   0.360   6.251 -0.6290  0.8705 -1.3277
 5438TIP3   OH216270   7.302   5.914   5.491  0.1036 -0.4307  0.0131
 5438TIP3    H116271   7.212   5.942   5.511 -0.4341 -2.4616  0.6770
 5438TIP3    H216272   7.357   5.967   5.549 -0.3128  2.9523 -2.4150
 5439TIP3   OH216273   1.046   5.451   6.665 -0.1581 -0.2375 -0.5554
 5439TIP3    H116274   1.068   5.471   6.574 -1.2891 -0.1242 -0.8149
 5439TIP3    H216275   1.077   5.361   6.678 -2.4730 -1.2995 -1.9248
 5440TIP3   OH216276   3.032   5.243   2.013  0.0953 -0.2861 -0.0088
 5440TIP3    H116277   3.106   5.262   2.071  0.1652  1.6962 -0.6729
 5440TIP3    H216278   3.013   5.151   2.029  2.0437 -0.5930  0.9441
 5441TIP3   OH216279   1.983   3.803   6.759 -0.7474 -1.1235  0.4303
 5441TIP3    H116280   1.921   3.864   6.798 -0.3071  0.4958 -1.2596
 5441TIP3    H216281   1.929   3.732   6.724 -1.5678 -0.2874 -0.0434
 5442TIP3   OH216282   5.536   0.445   2.223  0.1325  0.4928  0.6820
 5442TIP3    H116283   5.529   0.352   2.203  0.6737  0.3522  1.1239
 5442TIP3    H216284   5.594   0.449   2.299 -0.1192  1.1701  0.8471
 5443TIP3   OH216285   6.762   6.156   6.476 -0.6328  0.1425  0.6304
 5443TIP3    H116286   6.722   6.122   6.396 -1.7528  0.1914  1.1498
 5443TIP3    H216287   6.688   6.182   6.531  0.1188  0.2262  1.6378
 5444TIP3   OH216288   0.801   5.588   6.613  0.3846 -0.4231  0.0203
 5444TIP3    H116289   0.782   5.614   6.703  1.1527 -1.8740  0.6386
 5444TIP3    H216290   0.782   5.494   6.611 -0.1349 -0.3123 -1.4888
 5445TIP3   OH216291   1.665   4.179   3.274 -0.1393 -0.1843  0.3935
 5445TIP3    H116292   1.578   4.149   3.303 -0.3890  0.9525  0.8576
 5445TIP3    H216293   1.723   4.155   3.346  0.2494 -2.3672 -0.5744
 5446TIP3   OH216294   3.084   0.500   0.574  0.6000 -0.1639 -0.1341
 5446TIP3    H116295   3.133   0.581   0.563  0.5006 -0.0712  0.1157
 5446TIP3    H216296   3.124   0.439   0.511  0.6784  0.0739 -0.3144
 5447TIP3   OH216297   3.493   5.650   4.940  0.0859 -0.1439 -0.0528
 5447TIP3    H116298   3.470   5.713   5.009  0.2486  0.8091 -0.8372
 5447TIP3    H216299   3.413   5.641   4.889  0.4253  0.4474 -0.7072
 5448TIP3   OH216300   3.065   3.457   5.262  0.2301  0.2661 -0.7467
 5448TIP3    H116301   3.129   3.430   5.195  1.1700  0.8176 -0.1026
 5448TIP3    H216302   3.088   3.548   5.280 -0.2787  0.2421  0.0288
 5449TIP3   OH216303   7.828   4.744   6.465 -0.1150  0.0274 -0.7175
 5449TIP3    H116304   7.855   4.690   6.390 -0.8394 -1.7418  0.2208
 5449TIP3    H216305   7.909   4.760   6.513  0.2569  0.6354 -1.5209
 5450TIP3   OH216306   7.732   6.168   6.455  0.0084 -0.1207  0.0153
 5450TIP3    H116307   7.750   6.245   6.509  0.3550 -0.0420 -0.2085
 5450TIP3    H216308   7.649   6.133   6.489 -0.1665  0.3675  0.0912
 5451TIP3   OH216309   5.366   4.887   6.767  0.0067  0.0817  0.5429
 5451TIP3    H116310   5.297   4.948   6.744 -0.0744 -0.0282  0.4933
 5451TIP3    H216311   5.346   4.808   6.717  0.7748  0.4103 -0.3253
 5452TIP3   OH216312   3.936   6.098   0.892 -0.4045  0.5399 -0.0200
 5452TIP3    H116313   3.952   6.124   0.801  0.8705 -0.2624 -0.0501
 5452TIP3    H216314   3.924   6.181   0.938  2.3097  1.2129 -0.3484
 5453TIP3   OH216315   7.030   7.075   1.458  0.5342  0.8314  0.0381
 5453TIP3    H116316   7.047   7.141   1.390  3.3764 -0.0954 -0.3115
 5453TIP3    H216317   7.065   7.114   1.538  0.9174  0.3407  0.1141
 5454TIP3   OH216318   4.310   6.113   3.659 -0.1915 -1.1869  0.3135
 5454TIP3    H116319   4.280   6.028   3.691 -0.0709 -1.9504 -1.4902
 5454TIP3    H216320   4.271   6.176   3.720 -0.3609 -2.5036  1.6370
 5455TIP3   OH216321   0.555   2.974   2.737  0.4629  0.0850  0.4676
 5455TIP3    H116322   0.533   2.883   2.718  0.8991  0.0048  0.3147
 5455TIP3    H216323   0.539   3.020   2.654  0.2175  0.1500  0.5526
 5456TIP3   OH216324   8.262   3.919   5.633  0.0667  0.0730  0.6010
 5456TIP3    H116325   8.250   4.007   5.598  2.6917  0.8118  1.4035
 5456TIP3    H216326   8.241   3.926   5.726 -0.1256 -0.2733  0.5888
 5457TIP3   OH216327   6.584   6.816   6.289 -0.3471  0.3424  0.2194
 5457TIP3    H116328   6.489   6.811   6.298 -0.2808 -2.2945  0.3662
 5457TIP3    H216329   6.616   6.732   6.323  2.1491  1.5931  1.2156
 5458TIP3   OH216330   2.199   6.086   5.839 -0.3685  0.0074  0.8166
 5458TIP3    H116331   2.129   6.151   5.838 -1.4559 -1.0742 -1.7209
 5458TIP3    H216332   2.158   6.006   5.806  2.3346 -0.2953 -2.2752
 5459TIP3   OH216333   4.172   1.577   1.540  0.4698 -0.2381 -0.0852
 5459TIP3    H116334   4.189   1.569   1.446 -0.2802  1.7300 -0.4529
 5459TIP3    H216335   4.091   1.628   1.544 -1.1615 -2.7398  1.6230
 5460TIP3   OH216336   0.648   6.215   6.755 -0.5605  0.0973  0.4009
 5460TIP3    H116337   0.670   6.269   6.831  0.7914 -0.7866  0.6665
 5460TIP3    H216338   0.576   6.262   6.712 -1.8510  0.2691  2.5980
 5461TIP3   OH216339   1.559   4.007   1.980  0.1859 -0.0335 -0.1091
 5461TIP3    H116340   1.594   3.939   1.923 -1.5711  0.5185 -1.9901
 5461TIP3    H216341   1.568   4.088   1.929 -1.4829  0.4745  0.3351
 5462TIP3   OH216342   5.668   2.341   3.754  0.7534 -0.1668  0.2065
 5462TIP3    H116343   5.590   2.373   3.709  1.6631  0.0335 -1.2747
 5462TIP3    H216344   5.738   2.398   3.724  1.5731 -0.6506  1.1491
 5463TIP3   OH216345   4.524   4.830   2.739  0.4381  0.3649  0.0386
 5463TIP3    H116346   4.507   4.887   2.664 -2.1969 -1.8341 -1.2200
 5463TIP3    H216347   4.551   4.746   2.700  0.7229 -0.3270  1.6474
 5464TIP3   OH216348   1.611   1.534   1.820 -0.1668  0.1915  0.0229
 5464TIP3    H116349   1.516   1.524   1.821 -0.1864  0.0354 -1.7020
 5464TIP3    H216350   1.644   1.455   1.778  0.8694 -0.4575  1.9188
 5465TIP3   OH216351   6.320   1.514   5.559  0.4258  0.3385 -0.1485
 5465TIP3    H116352   6.368   1.460   5.496  0.5193  1.0648 -0.7173
 5465TIP3    H216353   6.233   1.476   5.562 -0.0178  1.1052 -1.7964
 5466TIP3   OH216354   0.686   6.830   2.000 -0.3381  0.4505 -0.2165
 5466TIP3    H116355   0.682   6.738   1.974  0.4646 -0.2491  1.8963
 5466TIP3    H216356   0.698   6.828   2.095  3.8630  2.5814 -0.4201
 5467TIP3   OH216357   5.780   6.778   0.499 -0.0299 -0.2598 -0.6729
 5467TIP3    H116358   5.830   6.851   0.536 -0.0135 -1.3189  1.5878
 5467TIP3    H216359   5.696   6.817   0.473  0.7886  0.9474 -1.6371
 5468TIP3   OH216360   6.393   7.567   1.534 -0.0565 -0.5672  0.4728
 5468TIP3    H116361   6.419   7.638   1.476  1.1713 -1.3929 -0.0239
 5468TIP3    H216362   6.298   7.559   1.521  0.1380 -0.5241 -1.2074
 5469TIP3   OH216363   3.782   1.403   5.418  0.1362 -0.0632 -0.1043
 5469TIP3    H116364   3.718   1.364   5.358  0.6830  0.3460 -0.9739
 5469TIP3    H216365   3.861   1.415   5.365  0.9353 -0.5312  0.9403
 5470TIP3   OH216366  -0.015   2.375   0.115 -0.0569 -0.0030  0.1781
 5470TIP3    H116367   0.072   2.335   0.112 -0.0055  0.1493 -0.4679
 5470TIP3    H216368  -0.029   2.408   0.027 -1.4047 -1.3761 -0.1635
 5471TIP3   OH216369   7.017   7.616   6.674 -0.3719  0.0378 -0.7351
 5471TIP3    H116370   6.959   7.546   6.646 -1.4819  1.4099 -2.0206
 5471TIP3    H216371   7.008   7.683   6.606 -1.9449  2.8607  2.0178
 5472TIP3   OH216372   2.913   0.586   5.618 -0.2238 -0.0507 -0.4254
 5472TIP3    H116373   2.844   0.557   5.678 -0.4539  0.4080 -0.4652
 5472TIP3    H216374   2.978   0.515   5.620 -1.0042 -0.7947 -0.8920
 5473TIP3   OH216375   6.945   6.762   5.784  0.6340 -0.0989  0.0729
 5473TIP3    H116376   7.018   6.702   5.765  1.0540  0.5790 -0.4923
 5473TIP3    H216377   6.986   6.835   5.829 -0.0029 -0.5929  1.4966
 5474TIP3   OH216378   6.214   1.660   3.321  0.3152  0.3154 -0.3035
 5474TIP3    H116379   6.280   1.724   3.294  0.6583 -0.0387 -0.3148
 5474TIP3    H216380   6.162   1.644   3.242 -0.4812  1.4150 -0.0189
 5475TIP3   OH216381   2.168   6.677   2.045 -0.1239  0.2055  0.1078
 5475TIP3    H116382   2.232   6.627   2.095 -1.0363 -0.7294  0.3677
 5475TIP3    H216383   2.084   6.635   2.063 -0.8487  1.4821 -0.1200
 5476TIP3   OH216384   5.100   1.368   3.740 -0.0396 -0.8401 -0.3528
 5476TIP3    H116385   5.121   1.346   3.649 -0.9983  1.0984 -1.1068
 5476TIP3    H216386   5.184   1.389   3.780  0.2734 -0.5838 -1.1241
 5477TIP3   OH216387   1.643   4.651   0.507  0.3572  0.0005  0.2550
 5477TIP3    H116388   1.608   4.720   0.564  0.2522 -0.7226  1.0703
 5477TIP3    H216389   1.676   4.584   0.567  0.9221 -0.4398 -0.5271
 5478TIP3   OH216390   5.845   6.527   3.828  0.4639 -0.2153 -0.1682
 5478TIP3    H116391   5.874   6.550   3.740 -1.6271  0.0418 -0.8616
 5478TIP3    H216392   5.830   6.611   3.872  0.1592 -0.3135 -0.0751
 5479TIP3   OH216393   5.021   4.169   2.682  0.2883  0.6899 -0.3662
 5479TIP3    H116394   4.976   4.085   2.684  1.6099 -0.0410  0.2264
 5479TIP3    H216395   5.007   4.202   2.594 -2.9486  1.4099  0.2989
 5480TIP3   OH216396   3.435   4.057   1.660 -0.2519 -0.1009 -0.3924
 5480TIP3    H116397   3.477   4.140   1.639 -0.5814  0.1908  0.0850
 5480TIP3    H216398   3.507   3.995   1.669  0.2529  0.7113  1.9121
 5481TIP3   OH216399   7.653   1.262   0.996 -0.4468  0.4801  0.5660
 5481TIP3    H116400   7.573   1.244   1.045 -1.1842  0.5543 -0.5648
 5481TIP3    H216401   7.696   1.333   1.044 -1.2556  0.6953  0.9826
 5482TIP3   OH216402   5.217   3.146   4.203  0.6534  0.0275 -0.0395
 5482TIP3    H116403   5.124   3.134   4.184  0.2824 -0.0173  1.6556
 5482TIP3    H216404   5.248   3.059   4.226  1.2416 -0.0414 -1.0732
 5483TIP3   OH216405   2.235   7.239   0.510 -0.1604  0.2815 -0.3097
 5483TIP3    H116406   2.279   7.207   0.589  0.4391  0.8662 -0.3977
 5483TIP3    H216407   2.169   7.301   0.542  1.1457  1.7420 -0.3266
 5484TIP3   OH216408   1.474   3.432   0.224  0.1465  0.1696 -0.7740
 5484TIP3    H116409   1.467   3.374   0.300 -2.6071 -0.7772 -1.6369
 5484TIP3    H216410   1.541   3.391   0.169  0.2742 -0.5931 -0.0708
 5485TIP3   OH216411   1.979   5.776   4.410  0.5713  0.0901 -0.2117
 5485TIP3    H116412   2.013   5.761   4.322 -0.2382 -0.3441 -0.4611
 5485TIP3    H216413   2.057   5.784   4.465  1.0772 -0.8807 -0.7641
 5486TIP3   OH216414   4.052   3.627   6.320 -0.0752  0.4654  0.0169
 5486TIP3    H116415   4.027   3.564   6.387 -0.2481 -1.8057 -2.0263
 5486TIP3    H216416   4.141   3.600   6.295 -0.3434  0.7016 -1.2322
 5487TIP3   OH216417   0.862   1.484   5.198 -0.1259 -0.3400 -0.1660
 5487TIP3    H116418   0.837   1.420   5.132 -0.7529 -0.6887  0.4010
 5487TIP3    H216419   0.816   1.564   5.172  0.5212 -0.1596 -0.7766
 5488TIP3   OH216420   0.353   6.503   3.543  0.4465 -0.4090 -0.0412
 5488TIP3    H116421   0.448   6.507   3.533  0.5855 -3.4821 -1.1984
 5488TIP3    H216422   0.320   6.477   3.457 -0.8821 -3.7731  1.3009
 5489TIP3   OH216423   0.372   7.419   2.523 -0.2879  0.1485 -0.0534
 5489TIP3    H116424   0.391   7.456   2.609 -2.4922 -1.5108  1.2518
 5489TIP3    H216425   0.433   7.346   2.514 -0.6109 -0.2018  0.5147
 5490TIP3   OH216426   0.189   1.541   4.126 -0.2462 -0.4995 -0.0792
 5490TIP3    H116427   0.269   1.518   4.174 -0.1530 -0.4837 -0.2277
 5490TIP3    H216428   0.217   1.546   4.035 -0.5241 -0.9938 -0.1943
 5491TIP3   OH216429   2.069   5.742   1.909  0.0328 -0.2997  0.1557
 5491TIP3    H116430   2.103   5.655   1.928 -0.9020 -0.9787 -1.1231
 5491TIP3    H216431   2.042   5.738   1.817 -0.7705  1.0902  0.2979
 5492TIP3   OH216432   4.295   5.863   0.772  0.2668  0.4361 -0.3863
 5492TIP3    H116433   4.292   5.949   0.815 -0.8234 -0.6511  1.8546
 5492TIP3    H216434   4.370   5.819   0.812  1.3572  0.5782 -2.1431
 5493TIP3   OH216435   7.020   1.494   3.708  0.1936  0.1077 -0.0483
 5493TIP3    H116436   6.951   1.455   3.762 -0.3024  0.2201 -0.5980
 5493TIP3    H216437   6.998   1.470   3.618  1.2484 -0.4374 -0.1891
 5494TIP3   OH216438   4.587   4.880   5.947 -0.5329 -0.6469 -0.2436
 5494TIP3    H116439   4.534   4.801   5.959 -1.9755  0.0314 -1.7532
 5494TIP3    H216440   4.524   4.952   5.954  0.7985  0.4334  1.3774
 5495TIP3   OH216441   4.169   0.535   0.354  0.1102 -0.0860  0.0545
 5495TIP3    H116442   4.189   0.451   0.397 -1.2829 -0.9334 -0.8823
 5495TIP3    H216443   4.251   0.561   0.313  0.0537 -2.1380 -1.5022
 5496TIP3   OH216444   3.049   4.114   5.886  0.1679 -0.0255 -0.1398
 5496TIP3    H116445   2.971   4.095   5.938  2.0699 -0.2351  2.8852
 5496TIP3    H216446   3.073   4.203   5.910  1.3465 -0.2680 -0.3784
 5497TIP3   OH216447   7.703   3.425   1.316  0.1642  0.5035  0.0288
 5497TIP3    H116448   7.690   3.515   1.288 -0.4773 -0.0806 -1.6820
 5497TIP3    H216449   7.618   3.383   1.305  0.1490 -0.0852  1.8849
 5498TIP3   OH216450   2.562   6.260   5.457 -0.3076  0.5879 -0.5443
 5498TIP3    H116451   2.504   6.280   5.530  0.3000  0.1362  0.0882
 5498TIP3    H216452   2.631   6.205   5.496 -0.8815 -1.1072 -1.7782
 5499TIP3   OH216453   1.011   3.048   3.904 -0.5791  0.1381 -0.3553
 5499TIP3    H116454   0.988   2.989   3.975  0.3955  0.2301  0.0568
 5499TIP3    H216455   1.077   3.107   3.942 -1.3959  1.3794 -0.8028
 5500TIP3   OH216456   1.440   5.459   5.485 -0.2096  0.2282 -0.6093
 5500TIP3    H116457   1.471   5.389   5.543 -1.7225 -0.4809 -0.6114
 5500TIP3    H216458   1.486   5.537   5.515 -0.2701 -0.3044  0.9562
 5501TIP3   OH216459   4.126   7.378   5.762 -0.1088 -0.8082  0.2882
 5501TIP3    H116460   4.136   7.354   5.670 -1.4244  0.6038 -0.2627
 5501TIP3    H216461   4.137   7.295   5.809  2.0228 -1.3384 -0.9789
 5502TIP3   OH216462   1.216   0.723   0.664  1.0157 -0.3473  0.0844
 5502TIP3    H116463   1.277   0.707   0.736  0.0657 -0.7548  0.8089
 5502TIP3    H216464   1.130   0.702   0.699  0.0628  2.8106 -0.0023
 5503TIP3   OH216465   4.077   2.379   5.707 -0.0240  0.1445  0.1984
 5503TIP3    H116466   4.116   2.335   5.783 -0.2508  0.0523  0.2631
 5503TIP3    H216467   3.991   2.407   5.738  0.4727  1.4659  0.4608
 5504TIP3   OH216468   3.841   6.662   2.938  0.2920  0.0889  0.5330
 5504TIP3    H116469   3.812   6.704   2.856  0.3435  0.7581  0.8519
 5504TIP3    H216470   3.761   6.655   2.990  0.4432  0.6201  0.8400
 5505TIP3   OH216471   6.491   4.410   6.740  0.2600  0.4551 -0.6257
 5505TIP3    H116472   6.486   4.498   6.703 -2.1509  0.3510 -0.7092
 5505TIP3    H216473   6.465   4.352   6.668 -1.8508  0.0352  0.3857
 5506TIP3   OH216474   6.176   2.277   3.239 -0.4150  0.0352 -0.6866
 5506TIP3    H116475   6.088   2.311   3.251 -0.6684 -0.6167 -0.6798
 5506TIP3    H216476   6.168   2.211   3.170  0.0348 -0.1231 -0.5958
 5507TIP3   OH216477   7.538   1.037   3.321 -0.3264  0.0984  0.3840
 5507TIP3    H116478   7.606   0.974   3.342  0.0310  0.9426  1.9053
 5507TIP3    H216479   7.460   1.004   3.365 -0.9959 -0.9350 -1.4570
 5508TIP3   OH216480   5.369   5.902   4.914  0.0852  0.1670 -0.7672
 5508TIP3    H116481   5.423   5.909   4.835  0.5555 -0.0760 -0.4740
 5508TIP3    H216482   5.362   5.807   4.930 -0.3654  0.2000 -0.7575
 5509TIP3   OH216483   1.425   7.560   1.944 -0.1127  0.6975  0.3705
 5509TIP3    H116484   1.349   7.566   2.001 -0.5572 -1.7096  0.1409
 5509TIP3    H216485   1.500   7.563   2.003 -0.4877  0.6272  0.8537
 5510TIP3   OH216486   7.323   3.978   0.572 -0.2127 -0.0165  0.4026
 5510TIP3    H116487   7.338   4.073   0.568  0.2497 -0.1151 -0.4951
 5510TIP3    H216488   7.229   3.968   0.555 -0.0209  0.2154 -0.9695
 5511TIP3   OH216489   7.870   2.517   5.932  0.2694 -0.0030  0.3117
 5511TIP3    H116490   7.954   2.563   5.935  0.8637 -0.9160 -1.1903
 5511TIP3    H216491   7.891   2.429   5.901 -1.1972 -0.3783  0.2751
 5512TIP3   OH216492   4.649   0.843   5.141 -0.2788  0.0525 -0.2931
 5512TIP3    H116493   4.627   0.750   5.148  1.8654 -0.4785 -0.0288
 5512TIP3    H216494   4.681   0.866   5.228 -0.6622  1.0164 -0.4033
 5513TIP3   OH216495   2.427   5.333   4.563  0.6237  0.3630 -0.2774
 5513TIP3    H116496   2.465   5.360   4.480  0.8189  0.2472 -0.2264
 5513TIP3    H216497   2.342   5.379   4.567  0.6116  0.3645 -0.5393
 5514TIP3   OH216498   3.007   3.524   3.701 -0.6945 -0.7691 -0.2050
 5514TIP3    H116499   3.066   3.540   3.627 -1.3060  4.3178 -0.0091
 5514TIP3    H216500   3.064   3.529   3.778 -0.8419  1.4115 -0.1540
 5515TIP3   OH216501   4.894   2.691   0.881  0.5972  0.1781  0.1831
 5515TIP3    H116502   4.938   2.631   0.820  1.4074  2.5304 -1.6683
 5515TIP3    H216503   4.807   2.702   0.845  0.4814  0.2191  0.4704
 5516TIP3   OH216504   6.390   2.728   0.186  0.4270 -0.1173  0.3267
 5516TIP3    H116505   6.482   2.710   0.202  0.2206 -0.7950  0.7968
 5516TIP3    H216506   6.347   2.711   0.270 -0.0904  0.4620  0.1891
 5517TIP3   OH216507   6.095   2.954   4.808  0.0944  0.1278  0.7958
 5517TIP3    H116508   6.089   2.971   4.713 -1.4980 -1.1204  0.6523
 5517TIP3    H216509   6.154   3.023   4.840  1.2469  0.1583 -1.1971
 5518TIP3   OH216510   3.592   4.979   1.008 -0.3023  0.8139 -0.2816
 5518TIP3    H116511   3.623   5.068   1.019 -1.4570  1.5905 -2.6572
 5518TIP3    H216512   3.528   4.966   1.079 -0.1589  1.8738  0.0503
 5519TIP3   OH216513   0.243   7.239   0.402 -0.2693 -0.3278  0.5224
 5519TIP3    H116514   0.326   7.192   0.413 -0.0296 -0.1794 -0.5740
 5519TIP3    H216515   0.261   7.326   0.436  0.9906  0.6673 -2.3463
 5520TIP3   OH216516   8.094   7.621   0.321  0.3123  0.2044  0.2596
 5520TIP3    H116517   8.128   7.557   0.383  2.3956  0.6536 -0.3361
 5520TIP3    H216518   8.086   7.573   0.239 -1.3360 -0.1015  0.5801
 5521TIP3   OH216519   1.675   3.013   0.233  0.5155  0.1492  0.2834
 5521TIP3    H116520   1.683   2.918   0.230  1.3415  0.2218 -0.2720
 5521TIP3    H216521   1.739   3.041   0.298 -0.3169  0.2780  1.0670
 5522TIP3   OH216522   2.330   6.016   6.637 -0.6938 -0.0148  0.4117
 5522TIP3    H116523   2.419   6.033   6.669 -0.7460  1.8761 -0.3191
 5522TIP3    H216524   2.275   6.076   6.687 -1.2423  0.4093 -0.6678
 5523TIP3   OH216525   2.111   4.713   5.770  0.3626 -0.1950  0.4331
 5523TIP3    H116526   2.126   4.646   5.703 -1.3138 -0.2772  0.1161
 5523TIP3    H216527   2.034   4.761   5.740  2.5187  3.1738 -0.3500
 5524TIP3   OH216528   1.403   1.788   6.698 -0.3218 -0.2832  0.0933
 5524TIP3    H116529   1.433   1.733   6.770 -1.1334  1.1351  1.5940
 5524TIP3    H216530   1.322   1.746   6.668 -0.7625 -0.1284  1.0116
 5525TIP3   OH216531   7.670   0.089   6.347  0.1785  0.0575 -0.1501
 5525TIP3    H116532   7.669  -0.003   6.372 -2.9132 -0.0551 -0.2159
 5525TIP3    H216533   7.641   0.135   6.426  1.4242  0.9571 -0.1966
 5526TIP3   OH216534   1.226   0.087   2.928 -0.3173 -0.0057 -0.4200
 5526TIP3    H116535   1.257   0.082   2.838 -0.5936  1.5053 -0.6237
 5526TIP3    H216536   1.132   0.101   2.920 -0.2680  0.6340  0.0903
 5527TIP3   OH216537   6.459   0.817   0.826 -0.3394  0.1912 -0.1474
 5527TIP3    H116538   6.482   0.745   0.885  3.0773  2.9140  2.2824
 5527TIP3    H216539   6.373   0.847   0.857 -0.8715 -1.5191  0.1330
 5528TIP3   OH216540   3.426   5.460   2.111  0.6355  0.7683 -0.3948
 5528TIP3    H116541   3.412   5.404   2.035 -0.8184  1.5644 -0.7639
 5528TIP3    H216542   3.502   5.423   2.155  0.8772 -0.3241 -1.6702
 5529TIP3   OH216543   5.848   6.238   0.039  0.1917  0.2223 -0.1584
 5529TIP3    H116544   5.813   6.149   0.040 -2.1731  1.0806  0.9455
 5529TIP3    H216545   5.868   6.255  -0.053 -0.6681 -0.9434 -0.5834
 5530TIP3   OH216546   2.014   2.340   4.580 -0.2359 -0.4535 -0.2630
 5530TIP3    H116547   2.041   2.428   4.553  0.6236 -0.3713  0.8063
 5530TIP3    H216548   1.933   2.324   4.532 -0.1942  0.7634 -0.7697
 5531TIP3   OH216549   0.668   5.131   0.871  0.1841  0.1061 -0.6556
 5531TIP3    H116550   0.709   5.162   0.952 -0.4504  0.8269 -0.5954
 5531TIP3    H216551   0.616   5.205   0.841  0.2308 -0.2332 -1.6098
 5532TIP3   OH216552   6.066   4.110   3.630 -0.4980 -0.0931  1.1285
 5532TIP3    H116553   6.005   4.063   3.574  0.0141  0.3014  0.2216
 5532TIP3    H216554   6.123   4.158   3.569 -0.2128  0.6973  1.9919
 5533TIP3   OH216555   3.438   4.479   4.537  0.2523 -0.1741 -0.0939
 5533TIP3    H116556   3.457   4.556   4.590 -0.7328  1.2041 -1.6702
 5533TIP3    H216557   3.349   4.453   4.562  0.8764 -1.3320  1.0201
 5534TIP3   OH216558   5.906   0.198   6.599 -0.2111 -0.3428  0.4134
 5534TIP3    H116559   5.983   0.143   6.586 -0.9660 -1.5039  0.7002
 5534TIP3    H216560   5.921   0.241   6.683 -0.1449 -1.0536  0.7728
 5535TIP3   OH216561   3.863   7.720   1.597 -0.2261  1.0337 -0.0230
 5535TIP3    H116562   3.768   7.715   1.607 -0.2172 -1.0819 -0.6558
 5535TIP3    H216563   3.898   7.689   1.681 -0.0599  1.8648  0.2307
 5536TIP3   OH216564   0.033   7.020   1.327 -0.8570  0.3365  0.0170
 5536TIP3    H116565   0.040   7.112   1.353 -0.4025 -0.0682  1.3915
 5536TIP3    H216566   0.091   6.973   1.387  0.1587 -0.6814 -1.6576
 5537TIP3   OH216567   0.479   7.773   5.333 -0.1720 -0.5816 -0.1022
 5537TIP3    H116568   0.447   7.683   5.321  0.7120 -1.1051  1.2905
 5537TIP3    H216569   0.478   7.786   5.427 -0.6285  1.0259 -0.3092
 5538TIP3   OH216570   6.084   3.553   6.125  0.1584 -0.0540  0.0803
 5538TIP3    H116571   6.090   3.649   6.121  0.8900 -0.0576  0.7599
 5538TIP3    H216572   6.166   3.523   6.087  0.9365 -0.3487  1.9212
 5539TIP3   OH216573   1.724   6.107   0.412  0.0529  0.3975  0.1869
 5539TIP3    H116574   1.805   6.105   0.462  1.0863  0.0339 -1.4191
 5539TIP3    H216575   1.723   6.024   0.364 -1.8038 -0.0792  0.9443
 5540TIP3   OH216576   3.866   0.721   1.337  0.6306  0.0609  0.3013
 5540TIP3    H116577   3.895   0.730   1.428  0.3077 -1.2289  0.5399
 5540TIP3    H216578   3.789   0.777   1.332  1.4505  1.2406  0.4340
 5541TIP3   OH216579   7.572   2.334   5.588 -0.2611 -0.3179 -0.1722
 5541TIP3    H116580   7.541   2.319   5.677  0.9196 -1.2607  0.0952
 5541TIP3    H216581   7.522   2.410   5.558 -2.0495 -1.1374  0.5966
 5542TIP3   OH216582   4.238   5.083   0.910  0.0798 -0.5842  0.1597
 5542TIP3    H116583   4.195   5.086   0.825  0.7373 -1.1880 -0.2098
 5542TIP3    H216584   4.188   5.143   0.965  0.3122  0.6648 -0.9543
 5543TIP3   OH216585   1.970   7.417   6.272 -0.2000  0.1634 -0.2766
 5543TIP3    H116586   2.059   7.382   6.279 -0.6066 -1.0697 -0.8840
 5543TIP3    H216587   1.982   7.504   6.233  0.6747 -0.5260 -1.6429
 5544TIP3   OH216588   5.555   3.572   6.269 -0.8357  0.2377  0.0598
 5544TIP3    H116589   5.541   3.644   6.330 -1.7221  0.7221 -0.6854
 5544TIP3    H216590   5.650   3.570   6.256 -0.7952  1.2660  0.1011
 5545TIP3   OH216591   3.376   3.102   1.443  0.1343  0.1301 -0.1472
 5545TIP3    H116592   3.367   3.196   1.426  0.3883  0.2634  0.4227
 5545TIP3    H216593   3.329   3.088   1.525 -0.9953 -0.4835 -0.8726
 5546TIP3   OH216594   0.628   6.601   2.211 -0.2994  0.0260 -0.3944
 5546TIP3    H116595   0.576   6.548   2.150 -1.2005  1.0662 -0.5705
 5546TIP3    H216596   0.583   6.592   2.295  0.5707 -0.8880 -0.0087
 5547TIP3   OH216597   7.787   6.584   0.991 -0.2170 -0.0080 -0.3513
 5547TIP3    H116598   7.730   6.616   1.062 -0.7189 -0.3924 -0.5767
 5547TIP3    H216599   7.746   6.617   0.911 -0.9630 -1.5072 -0.6184
 5548TIP3   OH216600   6.252   2.675   6.229 -0.4191  0.2676  0.0552
 5548TIP3    H116601   6.246   2.579   6.233  0.5772  0.1515 -0.7165
 5548TIP3    H216602   6.202   2.699   6.151  0.9938  0.1628 -0.9246
 5549TIP3   OH216603   0.268   7.258   4.468  0.2135  0.2057  0.4348
 5549TIP3    H116604   0.198   7.258   4.534 -1.3688 -2.1300 -1.0650
 5549TIP3    H216605   0.310   7.173   4.478  0.6427  0.2501 -0.8543
 5550TIP3   OH216606   7.369   3.531   4.734  0.0501 -0.3243  0.2480
 5550TIP3    H116607   7.420   3.587   4.792 -0.4927 -1.6985  2.1579
 5550TIP3    H216608   7.383   3.442   4.768 -1.1850 -1.0572 -1.0413
 5551TIP3   OH216609   5.697   6.829   1.536  0.0033 -0.0140  0.1222
 5551TIP3    H116610   5.780   6.809   1.580 -0.3014  0.7721  1.1091
 5551TIP3    H216611   5.722   6.882   1.461  0.3441  1.2714  1.0977
 5552TIP3   OH216612   4.966   4.911   5.200  0.1083  0.1308 -0.0519
 5552TIP3    H116613   4.948   4.889   5.109 -0.5406 -0.9836  0.3172
 5552TIP3    H216614   5.039   4.972   5.197  0.9810 -0.9238 -1.2542
 5553TIP3   OH216615   1.145   7.070   0.681  0.1421  0.1110  0.5950
 5553TIP3    H116616   1.088   6.996   0.661  0.9528 -0.9219  1.9362
 5553TIP3    H216617   1.114   7.102   0.766  1.0970 -0.0154  1.0037
 5554TIP3   OH216618   6.467   7.187   6.187 -0.5208  0.1729  0.2242
 5554TIP3    H116619   6.506   7.169   6.101  0.7914  2.1539  0.3196
 5554TIP3    H216620   6.446   7.101   6.223  0.6991 -0.8094 -1.2794
 5555TIP3   OH216621   3.730   1.172   4.972 -0.5202  0.5604  0.1246
 5555TIP3    H116622   3.819   1.194   4.944 -0.4421  0.5833  0.3889
 5555TIP3    H216623   3.704   1.099   4.916 -1.1954  2.0080 -1.5350
 5556TIP3   OH216624   3.241   0.674   0.953  0.4067  0.1243 -0.0982
 5556TIP3    H116625   3.295   0.598   0.930 -0.9909 -0.7372 -0.6450
 5556TIP3    H216626   3.159   0.660   0.906 -0.7128  0.8433  1.5533
 5557TIP3   OH216627   7.853   0.022   5.750 -0.0035 -0.3572  0.1318
 5557TIP3    H116628   7.909  -0.052   5.774  1.1283  0.3145 -0.3606
 5557TIP3    H216629   7.914   0.095   5.737 -0.6506 -0.2053 -2.9641
 5558TIP3   OH216630   7.942   4.076   4.506  0.4567 -0.1354 -0.5772
 5558TIP3    H116631   7.982   4.081   4.420  1.7926  1.8567  0.0744
 5558TIP3    H216632   7.886   4.153   4.511 -0.2255 -0.6577  0.0500
 5559TIP3   OH216633   2.948   6.559   5.384  0.1016  0.4092 -0.2275
 5559TIP3    H116634   2.993   6.644   5.377  0.8047  0.2654  1.8803
 5559TIP3    H216635   3.010   6.503   5.430 -0.6579 -1.0518 -0.9149
 5560TIP3   OH216636   7.479   4.096   3.141 -0.1709  0.4299 -0.0242
 5560TIP3    H116637   7.494   4.111   3.047 -1.4656 -0.4906 -0.4084
 5560TIP3    H216638   7.564   4.066   3.174  0.1188  0.0211 -1.0724
 5561TIP3   OH216639   0.479   3.263   5.654 -0.3303 -0.6859 -0.3861
 5561TIP3    H116640   0.409   3.211   5.616 -1.4297  0.8957 -0.6182
 5561TIP3    H216641   0.483   3.236   5.746 -0.7082 -1.3280 -0.5563
 5562TIP3   OH216642   8.194   0.922   5.176  0.0124 -0.3358 -0.3454
 5562TIP3    H116643   8.233   1.000   5.215  0.2913 -0.6408 -0.0072
 5562TIP3    H216644   8.156   0.953   5.094  1.5076 -0.1464 -0.9876
 5563TIP3   OH216645   5.865   0.633   5.398  0.1957  0.1800  0.1222
 5563TIP3    H116646   5.940   0.614   5.453  0.1638  1.1050  0.5027
 5563TIP3    H216647   5.790   0.597   5.446 -0.0954  2.6272  1.7039
 5564TIP3   OH216648   0.276   1.858   6.427  0.2881 -0.0260 -0.2095
 5564TIP3    H116649   0.268   1.945   6.388  0.4090 -0.6441 -1.6656
 5564TIP3    H216650   0.221   1.802   6.372  0.7711 -1.0065  0.2927
 5565TIP3   OH216651   2.039   4.804   3.732  0.0359  0.2941  0.1831
 5565TIP3    H116652   2.131   4.792   3.707  0.0378 -1.5142  0.9128
 5565TIP3    H216653   2.022   4.897   3.715  2.1962  0.8466  0.6486
 5566TIP3   OH216654   1.149   5.304   5.611  0.0458  0.1385 -0.7270
 5566TIP3    H116655   1.239   5.336   5.604 -0.1093  1.0954  1.0401
 5566TIP3    H216656   1.120   5.294   5.520  1.5386  0.9585 -1.3362
 5567TIP3   OH216657   5.638   6.329   3.890 -0.4234 -0.2922  0.3342
 5567TIP3    H116658   5.553   6.363   3.862 -0.2559  1.6335  1.9139
 5567TIP3    H216659   5.699   6.402   3.874  1.0818 -1.7933 -1.2278
 5568TIP3   OH216660   0.364   2.937   1.763  0.2182  0.0107  0.1752
 5568TIP3    H116661   0.406   2.863   1.807  0.7424  1.0454  1.4728
 5568TIP3    H216662   0.316   2.983   1.832 -2.0289 -0.3866 -1.0283
 5569TIP3   OH216663   2.229   2.336   5.506  0.0576 -0.6879  0.2444
 5569TIP3    H116664   2.165   2.283   5.555  1.1636 -2.3796 -0.0447
 5569TIP3    H216665   2.175   2.389   5.448 -1.1522 -0.8904  1.1214
 5570TIP3   OH216666   4.469   4.204   0.198 -0.4565 -0.7012 -0.1407
 5570TIP3    H116667   4.391   4.149   0.201 -1.1718  0.2858 -0.3074
 5570TIP3    H216668   4.515   4.176   0.118 -2.5302  1.1552 -2.1297
 5571TIP3   OH216669   0.193   5.596   5.193 -0.2888  0.8129  0.2172
 5571TIP3    H116670   0.172   5.577   5.284  1.5276  3.2547  1.2492
 5571TIP3    H216671   0.144   5.676   5.173  0.9313  1.4816 -0.2251
 5572TIP3   OH216672   1.015   5.294   5.370  0.0305  0.1765  0.3721
 5572TIP3    H116673   1.029   5.279   5.277 -0.3826 -1.2234  0.5131
 5572TIP3    H216674   0.957   5.370   5.374  0.0958  0.2815 -0.5004
 5573TIP3   OH216675   6.811   5.554   6.692 -0.0653  0.2854  0.0165
 5573TIP3    H116676   6.803   5.529   6.784 -0.0760 -0.1840 -0.1088
 5573TIP3    H216677   6.893   5.603   6.688 -0.1034  0.3722  0.2912
 5574TIP3   OH216678   4.930   1.982   3.964  0.0923  0.2303  0.2825
 5574TIP3    H116679   4.908   2.059   3.912  0.7005 -0.2873 -0.7705
 5574TIP3    H216680   4.962   1.918   3.901 -0.8705 -1.0829  1.0562
 5575TIP3   OH216681   2.891   4.904   5.787 -0.0990 -0.0179 -0.5470
 5575TIP3    H116682   2.912   4.820   5.828  1.6771  0.8978  0.5442
 5575TIP3    H216683   2.903   4.890   5.693 -0.1627 -1.0718 -0.3987
 5576TIP3   OH216684   1.054   0.351   0.513 -0.3075 -0.3529 -0.5173
 5576TIP3    H116685   1.025   0.287   0.578 -1.1495  0.8703  0.3681
 5576TIP3    H216686   1.118   0.305   0.460  0.0212 -1.5549  0.8701
 5577TIP3   OH216687   7.706   0.067   0.616 -0.4723  0.2998  0.2036
 5577TIP3    H116688   7.784   0.022   0.584 -0.0766  1.5362 -0.6435
 5577TIP3    H216689   7.712   0.155   0.579 -3.1895 -0.0811 -1.3694
 5578TIP3   OH216690   5.945   3.022   1.040 -0.7283 -0.0101 -0.0463
 5578TIP3    H116691   5.967   3.107   1.078 -0.4913 -0.1663  0.1725
 5578TIP3    H216692   5.850   3.019   1.041 -0.7289  0.0433  0.4248
 5579TIP3   OH216693   6.174   1.893   3.022  0.3914 -0.0205  0.4887
 5579TIP3    H116694   6.259   1.849   3.024 -0.0888 -1.0621 -0.5903
 5579TIP3    H216695   6.180   1.952   2.947  0.3456  0.2977  0.7348
 5580TIP3   OH216696   1.305   3.055   4.988  0.1200 -0.3125 -0.6005
 5580TIP3    H116697   1.356   2.995   5.042 -0.9345  0.0988  0.9178
 5580TIP3    H216698   1.334   3.142   5.013 -0.3837 -0.1123 -0.6901
 5581TIP3   OH216699   1.976   1.595   2.180 -0.0972 -0.0819  0.0808
 5581TIP3    H116700   1.929   1.575   2.261  0.2584  0.8889  0.5318
 5581TIP3    H216701   2.066   1.567   2.197  0.2485  1.2153  0.4668
 5582TIP3   OH216702   4.034   7.710   1.837  0.1494 -0.0168 -0.0758
 5582TIP3    H116703   4.015   7.794   1.796  2.4235  0.9344  0.6713
 5582TIP3    H216704   4.039   7.730   1.931  0.1029 -1.1252  0.1769
 5583TIP3   OH216705   3.180   5.569   1.518 -0.1783  0.3129 -0.3256
 5583TIP3    H116706   3.250   5.548   1.455  2.0859 -0.9669  2.4154
 5583TIP3    H216707   3.186   5.664   1.529  0.3633  0.3652 -0.9442
 5584TIP3   OH216708   5.782   7.441   4.580 -0.0247 -0.0243 -0.2490
 5584TIP3    H116709   5.704   7.488   4.608  0.2286 -0.0270  0.4833
 5584TIP3    H216710   5.749   7.365   4.532 -0.5362 -0.9806  1.5665
 5585TIP3   OH216711   5.004   2.895   2.359  0.8085 -0.1186 -0.2889
 5585TIP3    H116712   4.943   2.826   2.332  0.4194 -0.5074  1.4820
 5585TIP3    H216713   5.000   2.959   2.287 -0.3896 -0.9490 -1.0067
 5586TIP3   OH216714   5.819   2.390   6.107 -0.2639 -0.5284  0.0486
 5586TIP3    H116715   5.747   2.328   6.117 -1.7018  1.0801  0.2606
 5586TIP3    H216716   5.812   2.447   6.184  1.7240 -0.7899  0.4494
 5587TIP3   OH216717   6.280   2.521   5.366 -0.5764  0.6574  0.6706
 5587TIP3    H116718   6.219   2.452   5.338 -2.0495  2.0551  0.2554
 5587TIP3    H216719   6.290   2.508   5.460  1.5411 -1.8751  0.2088
 5588TIP3   OH216720   4.657   6.246   4.629  0.3284 -0.2143 -0.5138
 5588TIP3    H116721   4.678   6.186   4.700  0.9606  0.5930 -0.0026
 5588TIP3    H216722   4.710   6.216   4.555  2.2385  0.8891  0.3227
 5589TIP3   OH216723   1.035   6.144   4.351  0.8377  0.1051  0.7040
 5589TIP3    H116724   0.997   6.227   4.323 -0.0895 -0.3415  0.6165
 5589TIP3    H216725   1.117   6.138   4.303 -0.0712 -0.0015 -0.8883
 5590TIP3   OH216726   5.820   5.088   0.212 -0.0337  0.2412 -0.0689
 5590TIP3    H116727   5.892   5.070   0.151 -1.4569 -2.0417 -1.2277
 5590TIP3    H216728   5.752   5.026   0.187 -1.2906  0.2625  2.9196
 5591TIP3   OH216729   5.093   2.975   2.615 -0.7366 -0.0527  0.3289
 5591TIP3    H116730   5.076   3.069   2.623  2.7392  0.7212  0.3928
 5591TIP3    H216731   5.074   2.955   2.524 -0.5866  0.9724  0.0552
 5592TIP3   OH216732   2.325   2.466   1.271  0.0206  0.2337  0.0427
 5592TIP3    H116733   2.379   2.539   1.242 -0.0207  0.5323  0.7127
 5592TIP3    H216734   2.263   2.453   1.199  0.4220  0.4507 -0.3484
 5593TIP3   OH216735   2.169   6.000   4.308  0.1672 -0.1456  0.3571
 5593TIP3    H116736   2.189   5.957   4.392  1.3871 -0.6631 -0.1652
 5593TIP3    H216737   2.253   6.036   4.280  0.5435 -2.6159 -2.0903
 5594TIP3   OH216738   7.053   2.688   3.353  0.2154  0.6781  0.0790
 5594TIP3    H116739   7.049   2.593   3.344  0.8282  0.6349  0.2424
 5594TIP3    H216740   7.080   2.703   3.444  1.1191  0.9888 -0.2321
 5595TIP3   OH216741   7.797   0.210   2.229 -0.4299 -0.3808  0.6356
 5595TIP3    H116742   7.822   0.216   2.137  0.3514  3.4201  0.9335
 5595TIP3    H216743   7.708   0.244   2.232 -0.3968 -0.3381  1.2944
 5596TIP3   OH216744   5.519   4.012   2.263 -0.4554 -0.0120  0.2434
 5596TIP3    H116745   5.572   3.933   2.272 -0.2158  0.1923  0.6555
 5596TIP3    H216746   5.521   4.032   2.169 -1.4044 -1.0992 -0.0301
 5597TIP3   OH216747   5.916   0.756   4.443 -0.2238 -0.2780 -0.4369
 5597TIP3    H116748   5.927   0.701   4.520 -0.5323  1.0473  0.5801
 5597TIP3    H216749   5.822   0.759   4.428 -0.1136 -1.3160 -1.4809
 5598TIP3   OH216750   2.335   4.967   5.164 -0.5252  0.4385  0.0606
 5598TIP3    H116751   2.382   4.964   5.081  0.5909  1.3517  0.6262
 5598TIP3    H216752   2.244   4.985   5.140 -0.2874  0.3255 -0.9688
 5599TIP3   OH216753   1.352   5.988   6.651 -0.0936 -0.2118  0.2644
 5599TIP3    H116754   1.278   5.999   6.591  0.4312 -0.1461 -0.3802
 5599TIP3    H216755   1.363   5.894   6.658 -2.3157 -0.4156  2.9787
 5600TIP3   OH216756   2.943   5.165   0.918 -0.0906 -0.0280 -0.3754
 5600TIP3    H116757   2.860   5.177   0.964 -0.0304 -0.3045 -0.1897
 5600TIP3    H216758   3.009   5.191   0.982 -0.0293  0.0815 -0.4836
 5601TIP3   OH216759   6.753   1.401   5.653 -0.5657 -0.5792 -0.9261
 5601TIP3    H116760   6.731   1.402   5.560 -2.9838  1.3832 -0.4341
 5601TIP3    H216761   6.839   1.442   5.658  0.0805 -1.6853 -2.3548
 5602TIP3   OH216762   2.193   0.448   0.905 -0.0225  0.0370 -0.2269
 5602TIP3    H116763   2.272   0.431   0.855  0.3777 -0.0110  0.4083
 5602TIP3    H216764   2.197   0.541   0.926 -2.1176  1.0475 -3.5403
 5603TIP3   OH216765   4.193   1.367   0.632 -0.2886 -0.0639  0.1661
 5603TIP3    H116766   4.137   1.415   0.694 -2.0178 -1.6135 -0.1095
 5603TIP3    H216767   4.133   1.335   0.565  1.1841 -0.5390 -0.9884
 5604TIP3   OH216768   0.171   4.127   0.622  1.4066  0.2551 -0.5803
 5604TIP3    H116769   0.128   4.135   0.537  1.1570 -1.4034 -0.6589
 5604TIP3    H216770   0.149   4.207   0.669 -0.9504 -0.0809 -0.9952
 5605TIP3   OH216771   5.049   1.853   6.031  0.4032 -0.0112 -0.2272
 5605TIP3    H116772   5.002   1.933   6.007 -0.7070 -0.5090  0.2062
 5605TIP3    H216773   5.024   1.790   5.963 -1.8883 -1.1108  1.4953
 5606TIP3   OH216774   4.778   4.724   1.859  0.7839 -0.1943  0.7075
 5606TIP3    H116775   4.820   4.647   1.821  0.7986 -0.0229  0.3662
 5606TIP3    H216776   4.703   4.740   1.802  0.0573 -0.6949  1.5057
 5607TIP3   OH216777   1.172   0.925   0.336 -0.0308 -0.3645  0.2738
 5607TIP3    H116778   1.257   0.910   0.376  0.1543 -1.8354 -0.6094
 5607TIP3    H216779   1.126   0.841   0.344 -0.6530 -0.1721 -0.9585
 5608TIP3   OH216780   7.865   6.280   3.602 -0.3742 -0.1381 -0.3674
 5608TIP3    H116781   7.770   6.289   3.592 -0.7633 -2.0092  1.1366
 5608TIP3    H216782   7.876   6.222   3.677  1.9967  0.5697 -0.0769
 5609TIP3   OH216783   8.289   6.625   5.413 -0.0573 -0.0856 -0.7860
 5609TIP3    H116784   8.196   6.634   5.433 -0.2478  0.8428 -2.0078
 5609TIP3    H216785   8.301   6.531   5.400 -1.2126 -0.0782 -2.2712
 5610TIP3   OH216786   6.418   3.005   3.659  0.6134  0.0370  0.2026
 5610TIP3    H116787   6.399   3.059   3.582  0.0678 -1.0546 -0.4430
 5610TIP3    H216788   6.377   3.052   3.731 -1.6010 -0.4672 -0.6460
 5611TIP3   OH216789   2.002   4.901   6.485  0.0759 -0.4032  0.1569
 5611TIP3    H116790   1.957   4.983   6.509  0.5384 -0.3814  0.9748
 5611TIP3    H216791   2.034   4.917   6.396  0.1835  0.3130  0.3176
 5612TIP3   OH216792   1.734   5.253   3.844  0.7744 -0.7262  0.3775
 5612TIP3    H116793   1.819   5.295   3.858  0.9644 -1.3464  1.1628
 5612TIP3    H216794   1.674   5.299   3.902  0.2029  0.7483 -1.3061
 5613TIP3   OH216795   7.655   3.928   6.488 -0.4271  0.6091  0.2653
 5613TIP3    H116796   7.707   3.869   6.543 -0.6336  0.4657  0.3061
 5613TIP3    H216797   7.658   3.888   6.401 -0.9108  0.3199  0.3819
 5614TIP3   OH216798   6.295   1.313   3.566  0.1729 -0.4083 -0.5264
 5614TIP3    H116799   6.219   1.317   3.623 -1.1505  0.0408 -2.2528
 5614TIP3    H216800   6.263   1.273   3.485  2.0791 -1.4186 -0.8462
 5615TIP3   OH216801   8.034   1.325   1.242 -0.6900 -0.5088 -0.8193
 5615TIP3    H116802   7.979   1.395   1.277 -1.1674  0.7187 -3.7473
 5615TIP3    H216803   8.116   1.332   1.290 -1.3549  0.9232  0.1680
 5616TIP3   OH216804   2.521   5.838   4.353  0.5608  0.1406  0.0005
 5616TIP3    H116805   2.481   5.901   4.292  2.0160 -0.5280 -1.7616
 5616TIP3    H216806   2.464   5.761   4.349 -0.0638  0.5746  0.5062
 5617TIP3   OH216807   4.541   7.669   4.273 -0.0807  0.0469 -0.1205
 5617TIP3    H116808   4.507   7.695   4.187  1.8124  0.9760 -0.6430
 5617TIP3    H216809   4.540   7.574   4.272 -1.5138  0.0448 -0.5540
 5618TIP3   OH216810   6.356   7.710   2.904 -0.1974  0.4451  0.3099
 5618TIP3    H116811   6.285   7.694   2.967 -1.1560 -2.2956 -1.2793
 5618TIP3    H216812   6.420   7.641   2.922 -0.0778  0.1591 -1.0700
 5619TIP3   OH216813   6.744   2.891   1.850  0.4964  0.0340 -0.2197
 5619TIP3    H116814   6.828   2.911   1.889  0.3540  0.3523 -0.0722
 5619TIP3    H216815   6.710   2.818   1.902  0.8779 -0.3940 -0.5620
 5620TIP3   OH216816   1.758   5.628   4.488 -0.3879  0.2828 -0.6850
 5620TIP3    H116817   1.690   5.645   4.422 -0.9373  0.2368 -0.1436
 5620TIP3    H216818   1.819   5.701   4.478 -0.9289  0.7496 -0.6591
 5621TIP3   OH216819   3.134   3.932   3.567  0.1634  0.2218  0.0289
 5621TIP3    H116820   3.180   3.856   3.602  0.9285  0.3228 -0.7549
 5621TIP3    H216821   3.083   3.964   3.642 -2.4995 -2.7238 -0.2981
 5622TIP3   OH216822   8.144   2.363   0.587 -0.1562 -0.4979 -0.2777
 5622TIP3    H116823   8.102   2.392   0.506  1.6914 -0.5889 -1.3056
 5622TIP3    H216824   8.089   2.399   0.656 -0.7646  1.1262 -1.5512
 5623TIP3   OH216825   6.211   7.760   2.192 -0.2308  0.0135 -0.0697
 5623TIP3    H116826   6.187   7.740   2.283  1.8969  0.1080  0.5754
 5623TIP3    H216827   6.188   7.680   2.143  0.2531 -0.7432  0.8959
 5624TIP3   OH216828   5.579   1.043   1.157  0.1745  0.2608  0.1792
 5624TIP3    H116829   5.595   0.953   1.186 -0.8034 -0.0911 -0.3225
 5624TIP3    H216830   5.652   1.063   1.099 -0.4529 -0.8277 -1.0261
 5625TIP3   OH216831   3.961   0.172   5.971 -0.0140 -0.0630 -0.1873
 5625TIP3    H116832   3.919   0.128   6.045  2.8325 -1.3366  0.8087
 5625TIP3    H216833   4.051   0.187   6.000  0.5305  1.7096 -2.5037
 5626TIP3   OH216834   0.590   4.233   2.122  0.2469 -0.3653 -0.0386
 5626TIP3    H116835   0.672   4.187   2.138  0.3252 -0.3233 -0.3089
 5626TIP3    H216836   0.555   4.192   2.043 -0.8205 -1.5195  1.0026
 5627TIP3   OH216837   6.052   6.771   4.522  0.1927 -0.1882 -0.2815
 5627TIP3    H116838   6.077   6.681   4.544  0.9726  0.1628  0.3126
 5627TIP3    H216839   6.134   6.814   4.499 -0.0978  0.5242 -0.0178
 5628TIP3   OH216840   3.468   1.359   1.196 -0.0413 -0.2625 -0.5780
 5628TIP3    H116841   3.377   1.378   1.175  0.3011 -0.3089 -2.2583
 5628TIP3    H216842   3.513   1.361   1.111  1.4869 -0.4137  0.1951
 5629TIP3   OH216843   2.307   6.211   3.142 -0.1122  0.8984 -0.3032
 5629TIP3    H116844   2.272   6.145   3.082  0.3356 -1.3533  1.7532
 5629TIP3    H216845   2.395   6.229   3.109 -0.2179  0.4066 -0.8752
 5630TIP3   OH216846   2.271   1.784   5.187 -0.0994  0.2161  0.0051
 5630TIP3    H116847   2.234   1.706   5.228  1.0644 -0.3431  0.0286
 5630TIP3    H216848   2.212   1.855   5.213  0.1061 -0.2601  1.9497
 5631TIP3   OH216849   7.205   4.738   5.817 -0.2254  0.8601  0.3229
 5631TIP3    H116850   7.299   4.752   5.827 -0.2103  0.2327  1.1838
 5631TIP3    H216851   7.198   4.658   5.765 -0.2463  0.0549  1.5072
 5632TIP3   OH216852   3.095   2.420   2.029 -0.2586 -0.0299  0.1404
 5632TIP3    H116853   3.009   2.407   1.989  0.4628 -0.8295 -1.2198
 5632TIP3    H216854   3.106   2.345   2.087  0.1994 -0.8537 -0.9750
 5633TIP3   OH216855   3.252   6.483   3.337 -0.0524  0.0792 -0.1481
 5633TIP3    H116856   3.224   6.508   3.249 -0.0033  0.2291 -0.1222
 5633TIP3    H216857   3.346   6.499   3.337  0.0421 -0.4827 -0.2540
 5634TIP3   OH216858   1.622   5.608   6.656 -0.7242  0.3970  0.5920
 5634TIP3    H116859   1.629   5.688   6.709 -1.1485 -0.2553  1.6705
 5634TIP3    H216860   1.566   5.550   6.708  1.7982 -1.6826  1.2098
 5635TIP3   OH216861   1.392   6.970   6.501  0.3063 -0.4005  0.2296
 5635TIP3    H116862   1.361   7.023   6.427 -0.2596  0.9357  1.3836
 5635TIP3    H216863   1.462   7.022   6.540  1.4555 -1.6673 -0.0755
 5636TIP3   OH216864   4.708   1.800   2.142 -0.3261  0.0252  0.4103
 5636TIP3    H116865   4.766   1.825   2.069 -1.3390 -0.9881 -0.7955
 5636TIP3    H216866   4.648   1.875   2.151  0.1516  0.3932  0.5968
 5637TIP3   OH216867   1.640   5.773   4.760 -0.0348  0.1201  0.0197
 5637TIP3    H116868   1.710   5.823   4.718  1.2080 -2.1226 -0.7392
 5637TIP3    H216869   1.560   5.808   4.721  0.8915  0.3173 -1.8591
 5638TIP3   OH216870   6.745   2.192   4.519  0.5638 -0.6932  0.6004
 5638TIP3    H116871   6.822   2.172   4.465  1.6045  0.4704  1.5862
 5638TIP3    H216872   6.752   2.132   4.594  1.5924  0.6517  1.6355
 5639TIP3   OH216873   1.933   1.115   2.637 -0.7395 -0.5078 -0.3849
 5639TIP3    H116874   1.924   1.210   2.642 -1.0710 -0.5945  0.9260
 5639TIP3    H216875   2.016   1.096   2.680 -1.5609 -0.9369  1.0945
 5640TIP3   OH216876   3.863   3.351   5.746 -0.2933  1.3834  0.0799
 5640TIP3    H116877   3.915   3.273   5.767  1.5609  2.1454 -1.4256
 5640TIP3    H216878   3.772   3.321   5.752  0.3355 -0.5823  0.6682
 5641TIP3   OH216879   5.507   2.550   6.381  0.1514 -0.1617  0.2957
 5641TIP3    H116880   5.558   2.471   6.395  1.9036  0.5860 -1.3835
 5641TIP3    H216881   5.570   2.614   6.347 -1.5979  1.3033 -0.3864
 5642TIP3   OH216882   5.450   7.309   3.432  0.1982  0.1666 -0.5750
 5642TIP3    H116883   5.438   7.226   3.386 -0.6749  0.4953 -0.9637
 5642TIP3    H216884   5.365   7.327   3.472  0.7897  0.1404  0.7702
 5643TIP3   OH216885   5.385   0.917   5.216  0.3934  0.2141  0.0410
 5643TIP3    H116886   5.381   1.009   5.242  0.7729  0.6309 -1.2890
 5643TIP3    H216887   5.477   0.901   5.198  0.2883 -0.3468 -0.0045
 5644TIP3   OH216888   5.959   2.603   1.968  0.3466  0.0027  0.1952
 5644TIP3    H116889   5.888   2.579   1.909 -0.1048  0.4358  0.5572
 5644TIP3    H216890   6.036   2.612   1.911  0.1137 -0.4674 -0.1942
 5645TIP3   OH216891   0.543   7.212   2.391  0.0911  0.2656  0.2603
 5645TIP3    H116892   0.573   7.124   2.415 -2.0559 -0.8532 -0.9139
 5645TIP3    H216893   0.617   7.250   2.344  0.2282 -1.8722 -1.3977
 5646TIP3   OH216894   5.731   0.086   4.023  0.0483  0.6307 -0.2617
 5646TIP3    H116895   5.816   0.102   3.982  0.3522 -1.2041 -0.4275
 5646TIP3    H216896   5.738   0.126   4.110  0.7146  1.3535 -0.6374
 5647TIP3   OH216897   3.828   5.045   0.244  0.5381  0.2405  0.2478
 5647TIP3    H116898   3.904   4.989   0.231  0.8197  0.5662  0.4597
 5647TIP3    H216899   3.827   5.062   0.338 -1.2266 -1.7591  0.6643
 5648TIP3   OH216900   4.564   7.792   3.695 -0.2200 -0.3953 -0.0456
 5648TIP3    H116901   4.613   7.722   3.652  1.8168  2.1308 -2.1364
 5648TIP3    H216902   4.526   7.843   3.624  0.2686  1.9270  1.2643
 5649TIP3   OH216903   3.947   4.288   3.327  0.2821 -0.1229  0.6389
 5649TIP3    H116904   4.001   4.352   3.281 -1.3063 -1.1304 -2.9450
 5649TIP3    H216905   3.870   4.338   3.355  0.4491  0.1315  0.6511
 5650TIP3   OH216906   5.165   2.158   6.762 -0.1850  0.3375  0.2651
 5650TIP3    H116907   5.138   2.070   6.790 -0.1405 -0.3277 -1.6027
 5650TIP3    H216908   5.085   2.200   6.732  0.2990 -0.7162 -2.9012
 5651TIP3   OH216909   4.364   5.628   6.562 -0.1742  0.0068 -0.3857
 5651TIP3    H116910   4.338   5.605   6.473  0.0308  0.0419 -0.4540
 5651TIP3    H216911   4.285   5.614   6.614 -0.4172  0.4061 -0.6442
 5652TIP3   OH216912   6.392   5.343   1.248 -0.1809 -0.0892  0.1613
 5652TIP3    H116913   6.305   5.337   1.288  0.0170 -0.5472  0.5189
 5652TIP3    H216914   6.422   5.253   1.242  0.2746  0.0695  0.0389
 5653TIP3   OH216915   6.584   2.387   4.226 -0.6122 -0.1915  0.4432
 5653TIP3    H116916   6.617   2.303   4.196 -0.0469 -0.5097  1.8924
 5653TIP3    H216917   6.521   2.414   4.158  0.5840 -0.8685 -0.9748
 5654TIP3   OH216918   0.125   2.081   3.994  0.1138 -0.0386 -0.5641
 5654TIP3    H116919   0.153   2.029   4.069  0.5251 -3.0127 -2.6124
 5654TIP3    H216920   0.198   2.141   3.977 -0.2510  1.1485  1.6938
 5655TIP3   OH216921   5.161   5.071   6.695 -0.1531 -0.3168 -0.0135
 5655TIP3    H116922   5.091   5.026   6.742  0.8115 -0.4547  1.3738
 5655TIP3    H216923   5.152   5.163   6.722 -0.7844 -0.0329 -1.1277
 5656TIP3   OH216924   6.948   4.785   5.560  0.0142  0.0225 -0.0080
 5656TIP3    H116925   6.863   4.778   5.603 -1.9669 -1.5608 -3.6959
 5656TIP3    H216926   6.989   4.699   5.572 -1.0691 -0.8472 -1.9969
 5657TIP3   OH216927   6.817   4.635   5.799  0.7419  0.1315 -0.9890
 5657TIP3    H116928   6.773   4.554   5.773 -0.2053  0.0318  0.7446
 5657TIP3    H216929   6.761   4.705   5.765 -1.8475  0.0230  2.5324
 5658TIP3   OH216930   4.224   6.918   1.174 -0.2436 -0.3786  0.1355
 5658TIP3    H116931   4.274   6.965   1.107 -1.3311 -0.5532 -0.8192
 5658TIP3    H216932   4.280   6.843   1.196 -0.4426 -1.0727 -1.5746
 5659TIP3   OH216933   7.840   1.251   2.211  0.2430  0.5793 -0.1240
 5659TIP3    H116934   7.783   1.271   2.285 -0.9811  1.9543 -1.3702
 5659TIP3    H216935   7.799   1.294   2.136  1.5410 -0.5791 -1.5875
 5660TIP3   OH216936   0.624   3.317   0.947  0.0250 -0.1257  0.0350
 5660TIP3    H116937   0.611   3.327   1.041  1.0399  1.2522  0.0672
 5660TIP3    H216938   0.536   3.319   0.910 -0.3616 -0.2759  0.9242
 5661TIP3   OH216939   6.883   4.345   0.266 -0.3311 -0.6671 -0.1487
 5661TIP3    H116940   6.908   4.411   0.200 -0.3061 -0.1467  0.3761
 5661TIP3    H216941   6.787   4.344   0.262 -0.4304  0.7336  1.1059
 5662TIP3   OH216942   1.334   3.311   2.563  0.0220  0.5400  0.2929
 5662TIP3    H116943   1.353   3.362   2.641  0.1560  1.7146 -0.4823
 5662TIP3    H216944   1.334   3.375   2.492 -0.4806 -0.4396 -0.6183
 5663TIP3   OH216945   5.136   0.983   0.466 -0.9374  0.2085 -0.0236
 5663TIP3    H116946   5.070   1.052   0.466 -1.4285 -0.2511  0.0270
 5663TIP3    H216947   5.185   0.996   0.386 -1.0193  0.6245 -0.0064
 5664TIP3   OH216948   0.065   3.238   4.455  0.9865  0.2116  0.4632
 5664TIP3    H116949   0.102   3.322   4.429  0.2641  0.2316 -0.5398
 5664TIP3    H216950   0.096   3.177   4.388 -1.4975  0.4037 -0.9911
 5665TIP3   OH216951   4.330   7.291   1.685 -0.4200 -0.0704 -0.3237
 5665TIP3    H116952   4.394   7.350   1.725  0.2726 -0.6263 -0.6012
 5665TIP3    H216953   4.279   7.347   1.627 -1.1524  0.6622  0.9802
 5666TIP3   OH216954   1.416   5.427   1.066 -0.7538  0.4808 -0.2017
 5666TIP3    H116955   1.420   5.518   1.038 -2.0021  0.2317 -1.2750
 5666TIP3    H216956   1.433   5.376   0.986 -0.3728 -0.2416  0.3225
 5667TIP3   OH216957   1.960   3.483   2.678 -0.0710 -0.8870  0.4141
 5667TIP3    H116958   1.923   3.538   2.609 -0.5366  0.6147  1.7743
 5667TIP3    H216959   1.898   3.490   2.750  0.7669 -1.7728  1.2528
 5668TIP3   OH216960   1.202   6.777   6.534  0.0352 -0.2182  0.1096
 5668TIP3    H116961   1.270   6.845   6.530  0.7474 -0.8258  1.3773
 5668TIP3    H216962   1.144   6.806   6.605 -0.5482 -0.1473 -0.3917
 5669TIP3   OH216963   8.039   0.270   1.177  0.3917  0.1326  0.3738
 5669TIP3    H116964   7.988   0.335   1.226  0.8456  0.2012  0.7587
 5669TIP3    H216965   8.069   0.317   1.099  3.4095  1.4191  2.1324
 5670TIP3   OH216966   7.671   3.589   4.154  0.1561 -0.3584  0.0870
 5670TIP3    H116967   7.620   3.509   4.137  1.1415 -0.5641 -2.2732
 5670TIP3    H216968   7.605   3.656   4.170 -0.7824 -2.0899  5.6493
 5671TIP3   OH216969   1.139   4.299   3.850 -1.1587 -0.3096  0.5545
 5671TIP3    H116970   1.132   4.311   3.755 -0.2809 -1.0263  0.3854
 5671TIP3    H216971   1.208   4.359   3.877  0.2768 -1.7698  0.3416
 5672TIP3   OH216972   7.565   2.927   4.462 -0.5230  0.1229 -0.3235
 5672TIP3    H116973   7.537   2.839   4.437 -0.9117  0.6805 -2.0385
 5672TIP3    H216974   7.484   2.971   4.489 -0.3883  0.0495  0.1917
 5673TIP3   OH216975   1.543   4.718   3.057 -0.4021  0.8375  0.4146
 5673TIP3    H116976   1.532   4.767   3.139  1.5836 -0.6778  1.6839
 5673TIP3    H216977   1.614   4.763   3.011  0.4321  0.0505  0.9018
 5674TIP3   OH216978   4.998   4.709   3.151 -0.5742 -0.4492 -0.2606
 5674TIP3    H116979   5.029   4.716   3.061 -0.7974 -1.6713 -0.4430
 5674TIP3    H216980   4.928   4.645   3.148  1.0416 -2.4192  1.1541
 5675TIP3   OH216981   0.761   5.457   0.818 -0.8748 -0.2447  0.0232
 5675TIP3    H116982   0.772   5.429   0.727  0.0751 -2.3932  0.7237
 5675TIP3    H216983   0.689   5.519   0.815 -0.7463 -0.1062 -2.2237
 5676TIP3   OH216984   4.020   0.978   6.616  0.4689  0.7481  0.1830
 5676TIP3    H116985   3.966   1.042   6.660  2.0045  2.1121  0.1644
 5676TIP3    H216986   4.075   0.940   6.685  0.6350  0.5721 -0.0401
 5677TIP3   OH216987   6.875   2.263   1.608  0.0170 -0.0835  0.3330
 5677TIP3    H116988   6.910   2.304   1.529 -1.0858  0.9308  0.3442
 5677TIP3    H216989   6.787   2.236   1.583 -0.0453 -0.4782  0.9808
 5678TIP3   OH216990   4.449   4.523   1.579  0.1053 -0.2362 -0.2779
 5678TIP3    H116991   4.456   4.535   1.484 -2.5962  0.3603 -0.4883
 5678TIP3    H216992   4.379   4.459   1.590 -0.1619  0.2672  1.3078
 5679TIP3   OH216993   6.574   6.082   4.859 -0.1822 -0.0411  0.3918
 5679TIP3    H116994   6.528   6.029   4.923 -0.5377 -1.1393 -0.7372
 5679TIP3    H216995   6.658   6.103   4.901  0.6237 -2.7768  0.3298
 5680TIP3   OH216996   6.421   3.310   2.762  0.1971  0.2881 -0.4463
 5680TIP3    H116997   6.394   3.360   2.685  2.2222  1.3416 -0.5311
 5680TIP3    H216998   6.467   3.373   2.817  0.0302 -0.7741  0.9910
 5681TIP3   OH216999   5.087   3.761   6.105 -0.3963  0.1324  0.3736
 5681TIP3    H117000   5.150   3.734   6.172 -1.3480  0.2015  1.3297
 5681TIP3    H217001   5.138   3.768   6.024  0.7880  0.1063  1.1053
 5682TIP3   OH217002   1.061   1.751   6.762  0.6187 -0.6296 -0.0289
 5682TIP3    H117003   1.022   1.806   6.693 -1.1488  0.4251  1.7190
 5682TIP3    H217004   1.101   1.678   6.714  1.1710  1.0389 -2.2897
 5683TIP3   OH217005   0.457   7.646   5.045 -0.5485  0.1316  0.2088
 5683TIP3    H117006   0.549   7.640   5.019  0.0011  0.1004  2.0214
 5683TIP3    H217007   0.455   7.612   5.134 -2.8731 -2.9754 -0.8437
 5684TIP3   OH217008   7.009   2.307   4.914  0.4322  0.4678 -0.5583
 5684TIP3    H117009   6.943   2.270   4.972  0.9757  1.3333  0.6427
 5684TIP3    H217010   7.092   2.290   4.958  1.1482 -1.2536 -2.3892
 5685TIP3   OH217011   4.676   6.033   4.809  0.1068 -0.0758 -0.1075
 5685TIP3    H117012   4.716   5.946   4.807 -2.0067 -1.1087 -0.6914
 5685TIP3    H217013   4.583   6.016   4.819 -0.2722  2.1879  0.7542
 5686TIP3   OH217014   2.483   7.636   4.783 -0.7855  0.6260  0.9301
 5686TIP3    H117015   2.395   7.672   4.795 -1.4888  0.2756 -2.2414
 5686TIP3    H217016   2.541   7.701   4.822 -2.3420  1.9130  1.2257
 5687TIP3   OH217017   5.876   1.405   3.683  0.4047  0.2793 -0.0603
 5687TIP3    H117018   5.919   1.484   3.652  0.9805  0.0331  0.0940
 5687TIP3    H217019   5.787   1.433   3.706  0.0641  0.5274 -1.5958
 5688TIP3   OH217020   6.015   5.948   3.473  0.1109  0.5029 -0.1171
 5688TIP3    H117021   6.065   5.929   3.393 -0.5383 -1.2748 -0.1437
 5688TIP3    H217022   5.925   5.924   3.452 -0.6386  2.6990  0.2666
 5689TIP3   OH217023   1.668   6.983   5.717 -0.1326  0.3388 -0.2474
 5689TIP3    H117024   1.621   6.993   5.800 -0.2580  1.1970 -0.4141
 5689TIP3    H217025   1.691   7.073   5.691  0.1869  0.0545 -0.9772
 5690TIP3   OH217026   7.733   6.030   5.743 -0.4468  0.3433  0.4563
 5690TIP3    H117027   7.806   5.985   5.786 -1.5528 -0.3885  1.6425
 5690TIP3    H217028   7.749   6.123   5.758  0.2981  0.1986  0.6037
 5691TIP3   OH217029   0.045   6.306   2.112  0.4598  0.3175 -0.0276
 5691TIP3    H117030   0.125   6.314   2.061  1.6915  0.6449  1.8626
 5691TIP3    H217031   0.047   6.380   2.174 -1.5092  0.5759 -0.1803
 5692TIP3   OH217032   1.110   0.843   0.945  0.4170 -0.0004  0.2704
 5692TIP3    H117033   1.183   0.868   0.889  1.3967 -1.0242  1.0310
 5692TIP3    H217034   1.049   0.917   0.940  0.4326 -0.0964 -2.1539
 5693TIP3   OH217035   7.405   0.716   6.212 -0.0518  0.2363  0.4042
 5693TIP3    H117036   7.437   0.696   6.124  0.1630  0.9946  0.2963
 5693TIP3    H217037   7.477   0.764   6.253 -0.2162  0.0398  0.9362
 5694TIP3   OH217038   0.639   0.779   1.495 -0.5289  0.3546 -0.4128
 5694TIP3    H117039   0.608   0.848   1.436 -2.9806  0.5249  0.9322
 5694TIP3    H217040   0.573   0.710   1.488 -1.2455  0.6232  2.4922
 5695TIP3   OH217041   4.318   5.739   1.755  0.3459  0.1822 -0.2871
 5695TIP3    H117042   4.411   5.760   1.766  0.0818  2.0956 -1.2449
 5695TIP3    H217043   4.287   5.717   1.842  1.8639 -1.3695 -0.0780
 5696TIP3   OH217044   0.983   6.412   5.245 -0.1343 -0.1699  0.1144
 5696TIP3    H117045   0.915   6.356   5.209 -1.9992  1.1929  1.3495
 5696TIP3    H217046   0.999   6.378   5.333 -0.3149  0.4331  0.3817
 5697TIP3   OH217047   1.234   2.811   6.642  0.4764  0.1871 -0.2485
 5697TIP3    H117048   1.164   2.748   6.660 -0.4909  1.0725 -0.7856
 5697TIP3    H217049   1.290   2.768   6.578 -0.6368  0.1704 -1.2387
 5698TIP3   OH217050   1.258   0.986   4.127  0.4453  0.4191  0.9642
 5698TIP3    H117051   1.219   1.015   4.209 -2.1073  0.5034 -0.2080
 5698TIP3    H217052   1.254   0.891   4.131 -0.5196  0.4340  0.5879
 5699TIP3   OH217053   7.279   2.258   0.707  0.0315 -0.0444  0.4171
 5699TIP3    H117054   7.290   2.319   0.780  1.6225 -0.1383  0.2765
 5699TIP3    H217055   7.185   2.261   0.688 -0.2855  0.5882  1.9298
 5700TIP3   OH217056   2.222   3.393   2.691  0.0114  0.4957  0.0850
 5700TIP3    H117057   2.274   3.468   2.721  0.7541 -0.0927  0.2908
 5700TIP3    H217058   2.143   3.432   2.655  1.8994  1.6847 -3.1852
 5701TIP3   OH217059   2.867   4.020   2.869 -0.6812  0.0248  0.1716
 5701TIP3    H117060   2.784   3.974   2.867 -1.1547  0.7931  1.3643
 5701TIP3    H217061   2.861   4.082   2.796 -1.7111  0.9789  1.0350
 5702TIP3   OH217062   1.128   6.790   2.620  0.1077  0.4050 -0.7548
 5702TIP3    H117063   1.177   6.710   2.644 -0.1580  0.0202 -1.4870
 5702TIP3    H217064   1.144   6.850   2.693 -1.4340 -1.0639  0.8892
 5703TIP3   OH217065   1.708   5.281   5.484 -0.3019 -0.3783 -0.5096
 5703TIP3    H117066   1.802   5.295   5.488 -0.3457 -0.2770  1.0642
 5703TIP3    H217067   1.675   5.349   5.425  0.5521 -0.0893 -0.6573
 5704TIP3   OH217068   7.436   3.385   0.041 -0.7868 -0.2049  0.1460
 5704TIP3    H117069   7.504   3.442   0.076  0.6518 -2.5087  1.3991
 5704TIP3    H217070   7.368   3.444   0.010  1.2981  2.1916 -0.1739
 5705TIP3   OH217071   8.146   6.654   1.134  0.1747 -0.1307 -0.3863
 5705TIP3    H117072   8.227   6.697   1.106 -1.3723  3.9617  0.5827
 5705TIP3    H217073   8.095   6.644   1.053  0.8440 -0.9002 -0.7276
 5706TIP3   OH217074   0.485   0.960   6.487  0.1436  0.4882 -0.0380
 5706TIP3    H117075   0.556   1.024   6.483  0.0259  0.6300  0.1034
 5706TIP3    H217076   0.525   0.881   6.524  0.7895 -0.2228 -2.1127
 5707TIP3   OH217077   1.172   6.576   2.084 -0.5653  0.6325  0.9188
 5707TIP3    H117078   1.084   6.599   2.114 -1.0725  0.3478 -0.2967
 5707TIP3    H217079   1.170   6.591   1.989  0.3085 -0.5726  0.6878
 5708TIP3   OH217080   4.358   0.172   2.630 -0.5142 -0.8549  0.0199
 5708TIP3    H117081   4.299   0.197   2.702 -0.9923  1.5532 -1.0941
 5708TIP3    H217082   4.306   0.184   2.551  0.9884 -0.1257 -0.9066
 5709TIP3   OH217083   7.560   6.680   2.643 -0.4535  0.0986  0.5639
 5709TIP3    H117084   7.535   6.715   2.729 -0.7407  0.3472  0.3763
 5709TIP3    H217085   7.482   6.689   2.589 -0.6546 -1.1829  0.6184
 5710TIP3   OH217086   6.937   6.321   2.072 -0.2943 -0.0673  0.0331
 5710TIP3    H117087   6.912   6.228   2.067  2.5188 -0.9686  0.4020
 5710TIP3    H217088   6.939   6.341   2.165 -0.1246  0.0968 -0.0044
 5711TIP3   OH217089   4.907   2.573   1.933 -0.1428 -0.3404 -0.5947
 5711TIP3    H117090   4.903   2.605   1.843 -0.7314  1.6913  0.1054
 5711TIP3    H217091   4.830   2.611   1.975 -1.3522 -3.3528  0.1666
 5712TIP3   OH217092   7.835   3.636   5.797  0.7112  0.3261  0.5299
 5712TIP3    H117093   7.811   3.597   5.713 -3.0060 -0.8220  1.9453
 5712TIP3    H217094   7.892   3.710   5.774  0.4382 -0.3822 -2.9043
 5713TIP3   OH217095   7.770   1.051   0.516  0.2272  0.8103 -0.0644
 5713TIP3    H117096   7.780   1.145   0.525  0.2171  0.6820  1.7121
 5713TIP3    H217097   7.750   1.020   0.605  2.8266 -1.1645 -0.0224
 5714TIP3   OH217098   4.598   7.377   4.284 -0.2199 -0.8016  0.0004
 5714TIP3    H117099   4.636   7.334   4.361  1.0126  0.0647 -0.0996
 5714TIP3    H217100   4.671   7.424   4.244 -1.1826  0.0484 -0.8176
 5715TIP3   OH217101   0.034   5.992   1.401  0.0899 -0.1277 -0.1099
 5715TIP3    H117102   0.103   5.968   1.340  0.7875 -0.6805  0.8604
 5715TIP3    H217103  -0.043   6.007   1.346  1.3094  2.0389 -1.3925
 5716TIP3   OH217104   2.903   3.664   4.988  0.1555  0.2596  0.5264
 5716TIP3    H117105   2.853   3.659   4.906 -0.3800  0.4146  0.8397
 5716TIP3    H217106   2.855   3.610   5.050  1.4734 -1.2535  0.3003
 5717TIP3   OH217107   5.066   1.853   1.713 -0.1408 -0.1530 -0.3728
 5717TIP3    H117108   5.101   1.882   1.797  1.3527 -2.6431 -0.0255
 5717TIP3    H217109   5.036   1.933   1.670  0.7406  1.4122  1.7583
 5718TIP3   OH217110   1.657   5.919   2.267  0.1101  0.2034 -0.1959
 5718TIP3    H117111   1.562   5.925   2.257  0.2725  0.5008 -1.7061
 5718TIP3    H217112   1.674   5.959   2.352 -1.3086 -1.7866  1.1238
 5719TIP3   OH217113   6.133   2.408   1.164 -0.4571 -0.2177 -0.3464
 5719TIP3    H117114   6.112   2.432   1.074 -0.9476 -0.8209 -0.3958
 5719TIP3    H217115   6.229   2.399   1.164 -0.3804  0.5447 -0.6138
 5720TIP3   OH217116   2.271   4.009   4.522  0.1182 -0.0460  0.3420
 5720TIP3    H117117   2.233   3.933   4.479 -0.4290  0.6795 -0.4866
 5720TIP3    H217118   2.278   4.075   4.453  1.9566  0.1958  0.6976
 5721TIP3   OH217119   2.007   3.784   3.115 -0.5391 -0.1723 -0.0624
 5721TIP3    H117120   2.068   3.741   3.175 -0.8443 -1.8705 -0.9108
 5721TIP3    H217121   1.920   3.765   3.151 -0.6523  0.3606 -0.0518
 5722TIP3   OH217122   3.774   2.750   1.036 -0.0845  0.1428  0.1473
 5722TIP3    H117123   3.705   2.752   1.102 -0.4582 -0.2382 -0.2185
 5722TIP3    H217124   3.853   2.778   1.082 -0.4194  0.2735  0.6515
 5723TIP3   OH217125   5.935   7.388   6.256 -0.5001 -0.3371 -0.4374
 5723TIP3    H117126   6.017   7.344   6.281 -0.3366 -0.3708 -1.0140
 5723TIP3    H217127   5.941   7.396   6.161 -0.7913  0.4136 -0.3970
 5724TIP3   OH217128   6.678   1.481   3.410  0.0700  0.1610  0.1694
 5724TIP3    H117129   6.653   1.472   3.502  0.8739 -0.1617  0.3639
 5724TIP3    H217130   6.597   1.463   3.361 -0.6049  1.2851  0.8255
 5725TIP3   OH217131   7.755   0.200   0.047  0.3545 -0.0353  0.0502
 5725TIP3    H117132   7.720   0.182  -0.040  1.7877  0.0485 -0.5723
 5725TIP3    H217133   7.687   0.169   0.107 -0.8330  0.2702 -1.0901
 5726TIP3   OH217134   4.953   5.526   6.374 -0.1698  0.2564  0.4292
 5726TIP3    H117135   4.930   5.527   6.281 -0.9581  0.0964  0.6154
 5726TIP3    H217136   4.941   5.435   6.401 -0.7160  0.4551  0.8702
 5727TIP3   OH217137   0.368   6.560   0.315 -0.7993  0.4198 -0.0834
 5727TIP3    H117138   0.370   6.566   0.410 -0.0700  0.8228 -0.1188
 5727TIP3    H217139   0.292   6.612   0.289 -0.1496  1.5368  0.1979
 5728TIP3   OH217140   1.598   4.679   0.945  0.4984  0.0024 -0.3676
 5728TIP3    H117141   1.673   4.665   1.002  1.0177  0.7445 -0.8451
 5728TIP3    H217142   1.632   4.665   0.856  0.1520  0.6435 -0.6096
 5729TIP3   OH217143   1.646   7.172   5.269 -0.4849 -0.0460 -0.1747
 5729TIP3    H117144   1.605   7.124   5.340 -2.9118  0.7882 -0.9020
 5729TIP3    H217145   1.739   7.168   5.287 -0.9454 -0.9956  2.2992
 5730TIP3   OH217146   4.066   4.152   4.180 -0.0713 -0.2564 -0.3678
 5730TIP3    H117147   4.141   4.204   4.154  0.4622 -0.8530 -0.0695
 5730TIP3    H217148   4.043   4.185   4.267  1.6910 -1.9393  0.8487
 5731TIP3   OH217149   0.378   5.698   2.514 -0.5267  0.2129  0.4863
 5731TIP3    H117150   0.457   5.666   2.471 -0.3882  0.0456  0.8610
 5731TIP3    H217151   0.316   5.625   2.508 -0.5914  0.2794  0.3498
 5732TIP3   OH217152   6.197   0.328   3.299  0.9435  0.1033  0.4827
 5732TIP3    H117153   6.210   0.233   3.291 -1.1882 -0.2828  1.0112
 5732TIP3    H217154   6.223   0.363   3.213  1.4880 -0.9769  0.1844
 5733TIP3   OH217155   4.440   3.153   0.987  0.1433 -0.2292 -0.0996
 5733TIP3    H117156   4.425   3.247   0.991 -1.3252 -0.4551  0.2352
 5733TIP3    H217157   4.384   3.123   0.914 -1.0436 -1.1038  1.1164
 5734TIP3   OH217158   7.715   1.054   1.804 -0.0269  0.0335 -0.2946
 5734TIP3    H117159   7.667   1.080   1.882 -1.7221 -1.7526 -0.6601
 5734TIP3    H217160   7.694   1.121   1.739 -2.2732 -0.8013 -0.5043
 5735TIP3   OH217161   0.715   0.373   2.426  0.0638  0.4641 -0.0503
 5735TIP3    H117162   0.669   0.320   2.360  1.7348  1.5926 -2.2439
 5735TIP3    H217163   0.807   0.357   2.409  0.5548  1.1573  1.7803
 5736TIP3   OH217164   7.482   6.438   0.277 -0.1595  0.3914  0.1096
 5736TIP3    H117165   7.460   6.443   0.184 -2.1263  1.5151  0.5681
 5736TIP3    H217166   7.401   6.409   0.320  0.6332  0.1159  1.4976
 5737TIP3   OH217167   2.710   6.410   6.650 -0.3305  0.3547 -0.2878
 5737TIP3    H117168   2.779   6.431   6.587  1.4130 -1.3170  0.9495
 5737TIP3    H217169   2.647   6.358   6.600  1.6740 -2.0755 -0.5056
 5738TIP3   OH217170   1.666   2.920   4.025 -0.2828  0.0575  0.4895
 5738TIP3    H117171   1.671   2.853   4.094  0.3529  0.5402  0.9198
 5738TIP3    H217172   1.640   2.871   3.947  0.1349 -0.6949  0.8066
 5739TIP3   OH217173   8.312   5.748   2.375 -0.2265 -1.0210  0.0257
 5739TIP3    H117174   8.285   5.731   2.465 -1.5269  2.4022  0.4376
 5739TIP3    H217175   8.253   5.696   2.322 -1.4655 -0.7964  1.1312
 5740TIP3   OH217176   4.054   1.013   3.206 -0.5388 -0.2141  0.2365
 5740TIP3    H117177   4.018   0.942   3.153 -1.3973 -0.8884  1.6641
 5740TIP3    H217178   3.978   1.054   3.247 -0.0363  1.3528 -0.2904
 5741TIP3   OH217179   1.944   5.660   4.940  0.1813  0.2430  0.3417
 5741TIP3    H117180   1.963   5.607   4.863 -0.7314  0.7806 -0.2711
 5741TIP3    H217181   1.862   5.705   4.919  0.2412  0.8730  1.3760
 5742TIP3   OH217182   6.987   4.526   6.625 -0.0799 -0.3532  0.2771
 5742TIP3    H117183   7.045   4.458   6.660  0.2322 -0.4390 -0.3856
 5742TIP3    H217184   6.993   4.515   6.530 -1.8690 -0.9489  0.1931
 5743TIP3   OH217185   0.861   3.766   3.254 -0.0804 -0.0709  0.0711
 5743TIP3    H117186   0.910   3.685   3.270  0.2166  0.4862  2.2956
 5743TIP3    H217187   0.780   3.754   3.303  0.2460  1.2107  0.9621
 5744TIP3   OH217188   4.146   5.634   4.140 -0.4638 -0.1684  0.3899
 5744TIP3    H117189   4.058   5.631   4.102 -0.4020  1.3721  0.0804
 5744TIP3    H217190   4.204   5.624   4.064 -0.3478 -1.6065  0.6405
 5745TIP3   OH217191   6.923   7.154   2.498 -0.3088 -0.0372  0.4124
 5745TIP3    H117192   7.005   7.188   2.462 -0.7332  0.4844 -0.0730
 5745TIP3    H217193   6.890   7.224   2.553 -1.5200  0.6480 -1.1109
 5746TIP3   OH217194   6.974   2.667   2.440  0.6587  0.5384  0.7002
 5746TIP3    H117195   7.028   2.590   2.421  1.5448  1.1922  0.4691
 5746TIP3    H217196   6.992   2.686   2.532 -0.0854  0.0813  0.9492
 5747TIP3   OH217197   1.559   7.511   0.946 -0.5532  0.0549 -0.4404
 5747TIP3    H117198   1.507   7.487   1.023 -1.8709  1.7716 -0.7356
 5747TIP3    H217199   1.512   7.473   0.872 -0.0204 -0.4506 -0.5295
 5748TIP3   OH217200   4.930   2.910   1.635  0.6232  0.2726 -0.1762
 5748TIP3    H117201   4.975   2.943   1.712 -0.8215  1.1245  0.3465
 5748TIP3    H217202   5.000   2.884   1.575  1.8420  2.5677  0.1304
 5749TIP3   OH217203   1.490   3.184   2.093 -0.1469 -0.2603  0.2156
 5749TIP3    H117204   1.472   3.175   2.186 -0.1355  0.2644  0.2660
 5749TIP3    H217205   1.584   3.196   2.087 -0.1222 -0.4916  0.1208
 5750TIP3   OH217206   4.489   3.391   1.407  0.0501 -0.4480 -0.5491
 5750TIP3    H117207   4.539   3.472   1.421 -0.6105 -0.0551 -0.4034
 5750TIP3    H217208   4.445   3.376   1.491  1.4232 -1.8669 -0.0211
 5751TIP3   OH217209   2.023   3.405   3.862 -0.1104  0.6395  0.4320
 5751TIP3    H117210   2.012   3.489   3.908  1.8765  1.3524 -0.3025
 5751TIP3    H217211   2.037   3.341   3.932 -0.3520  1.1335  0.9416
 5752TIP3   OH217212   2.598   4.312   0.048 -0.1272  0.5287 -0.1716
 5752TIP3    H117213   2.618   4.307  -0.046  1.1553  0.6637  0.0797
 5752TIP3    H217214   2.552   4.396   0.058  1.1098  1.2559 -0.4516
 5753TIP3   OH217215   6.262   0.837   4.351  0.3093 -0.2713  0.1749
 5753TIP3    H117216   6.240   0.880   4.434  1.0895  0.0046  0.2519
 5753TIP3    H217217   6.234   0.899   4.284  0.5124 -0.0858  0.2593
 5754TIP3   OH217218   3.659   6.004   0.464 -0.3112 -0.1528 -0.1771
 5754TIP3    H117219   3.647   5.917   0.426  1.9030 -0.1488 -1.0616
 5754TIP3    H217220   3.704   6.053   0.396 -2.2532  2.0044 -0.0136
 5755TIP3   OH217221   7.247   2.509   1.550 -0.0531 -0.5896  0.2288
 5755TIP3    H117222   7.216   2.509   1.640 -0.7822 -0.9027 -0.0138
 5755TIP3    H217223   7.333   2.552   1.554  0.4353 -1.6074  1.2439
 5756TIP3   OH217224   3.872   6.484   1.686 -0.8448 -0.1950 -0.1934
 5756TIP3    H117225   3.891   6.571   1.650 -1.5244  0.6239  1.3227
 5756TIP3    H217226   3.956   6.453   1.720 -0.5673 -0.2130 -0.8750
 5757TIP3   OH217227   5.826   4.988   5.083 -0.0612  0.5210  0.7891
 5757TIP3    H117228   5.795   4.898   5.091  0.9978 -0.1135 -1.4825
 5757TIP3    H217229   5.803   5.014   4.994  3.8160  0.7568 -0.3265
 5758TIP3   OH217230   7.048   3.572   3.055  0.1329 -0.0128 -0.3214
 5758TIP3    H117231   7.028   3.660   3.086 -0.1725 -0.3322  0.4083
 5758TIP3    H217232   7.119   3.584   2.992  0.8064  0.6453  0.5457
 5759TIP3   OH217233   3.628   5.744   0.325 -0.3721 -0.5352 -0.0960
 5759TIP3    H117234   3.583   5.740   0.240 -0.9644  2.7433 -0.0629
 5759TIP3    H217235   3.565   5.709   0.387 -1.7545  1.1428 -0.4782
 5760TIP3   OH217236   0.256   5.918   0.037 -0.6763  0.6897  0.4600
 5760TIP3    H117237   0.193   5.959  -0.022  0.1541  3.0715  1.0840
 5760TIP3    H217238   0.210   5.842   0.073 -1.6291 -0.1358 -2.2481
 5761TIP3   OH217239   6.969   2.935   6.765 -0.7301  0.5316  0.2241
 5761TIP3    H117240   6.895   2.875   6.773  0.2080 -0.4846  2.2302
 5761TIP3    H217241   6.974   2.956   6.672 -1.0403 -2.6455 -0.6336
 5762TIP3   OH217242   1.115   1.154   2.053 -0.1042  0.2429  0.3561
 5762TIP3    H117243   1.168   1.107   2.118  0.2870  0.5459  0.2642
 5762TIP3    H217244   1.178   1.180   1.985 -0.1450  1.6126  0.8059
 5763TIP3   OH217245   2.688   6.670   5.379  0.0874 -0.2421  0.1339
 5763TIP3    H117246   2.708   6.749   5.430 -0.2012 -0.3609  0.4320
 5763TIP3    H217247   2.772   6.625   5.372 -0.0873 -0.8469  1.5689
 5764TIP3   OH217248   1.568   6.445   3.426 -0.8027  0.0348 -0.1423
 5764TIP3    H117249   1.549   6.476   3.338 -0.1773  0.9878  0.0422
 5764TIP3    H217250   1.529   6.512   3.483 -0.3093 -0.0388  0.2835
 5765TIP3   OH217251   2.781   6.838   3.141  0.0136 -0.2479 -0.0577
 5765TIP3    H117252   2.876   6.840   3.130  0.0698 -0.7318  0.2870
 5765TIP3    H217253   2.768   6.797   3.227 -0.5160 -0.7686 -0.3750
 5766TIP3   OH217254   7.095   0.427   2.679  0.0025  0.0406 -0.3687
 5766TIP3    H117255   7.066   0.417   2.588  0.1270  0.2447 -0.4310
 5766TIP3    H217256   7.021   0.396   2.731  0.6864 -2.1277 -0.5571
 5767TIP3   OH217257   1.373   3.378   4.121  0.0609 -0.1064  0.0070
 5767TIP3    H117258   1.377   3.361   4.216 -0.9317  0.1587  0.1027
 5767TIP3    H217259   1.432   3.312   4.083  0.7881  0.0409  0.8330
 5768TIP3   OH217260   5.156   4.550   3.442 -0.2641 -0.2146  0.4960
 5768TIP3    H117261   5.196   4.633   3.416  0.4029 -0.6128  0.2408
 5768TIP3    H217262   5.099   4.527   3.369  0.4334 -0.5563  0.0514
 5769TIP3   OH217263   5.581   4.105   0.696 -0.6140  0.4141  0.2262
 5769TIP3    H117264   5.493   4.128   0.725 -1.3995 -0.4924 -1.3097
 5769TIP3    H217265   5.593   4.153   0.614  0.3479  0.5773  0.4528
 5770TIP3   OH217266   3.590   1.890   2.029  0.2436 -0.2628  0.1488
 5770TIP3    H117267   3.652   1.857   2.094  0.8908  2.6572  1.1391
 5770TIP3    H217268   3.645   1.926   1.960 -0.1923  2.9700  1.3422
 5771TIP3   OH217269   6.787   0.386   4.489 -0.0189 -0.3998 -0.5427
 5771TIP3    H117270   6.725   0.324   4.449 -1.6179 -1.2611  2.8949
 5771TIP3    H217271   6.736   0.430   4.556  2.8401 -0.4039  1.8175
 5772TIP3   OH217272   5.016   5.124   2.612 -0.0510 -0.3035  0.1524
 5772TIP3    H117273   5.006   5.062   2.684  0.3262 -0.6172 -0.0608
 5772TIP3    H217274   5.055   5.202   2.652  0.6929 -0.6888  0.1835
 5773TIP3   OH217275   1.144   4.039   4.542  0.0867  0.1523  0.1632
 5773TIP3    H117276   1.110   4.098   4.609 -0.3254 -0.3245  0.3899
 5773TIP3    H217277   1.102   4.067   4.461 -1.1573 -0.6458  0.5015
 5774TIP3   OH217278   6.567   1.150   2.338  0.0695  0.7246  0.0659
 5774TIP3    H117279   6.534   1.061   2.325  2.1204 -0.0093 -0.3465
 5774TIP3    H217280   6.525   1.178   2.419 -2.7835  0.4947 -1.1842
 5775TIP3   OH217281   1.460   5.827   5.659 -0.2945 -0.1691 -0.8729
 5775TIP3    H117282   1.537   5.883   5.672  0.7724 -1.2256 -2.3452
 5775TIP3    H217283   1.437   5.799   5.748  0.2911  1.0969 -0.2883
 5776TIP3   OH217284   8.039   3.785   0.877  0.0799  0.8094  0.1000
 5776TIP3    H117285   7.975   3.806   0.810  0.3193  1.4739  0.0695
 5776TIP3    H217286   8.001   3.712   0.925 -0.5808  1.0273 -0.0806
 5777TIP3   OH217287   7.619   3.530   1.686  0.1185  0.0051  0.2192
 5777TIP3    H117288   7.524   3.536   1.684  0.0321 -1.1892  0.2641
 5777TIP3    H217289   7.649   3.588   1.616 -0.5631  1.4763  1.0934
 5778TIP3   OH217290   3.217   3.383   2.281  0.0834  0.9811 -0.0135
 5778TIP3    H117291   3.203   3.322   2.353 -1.2662  0.3883 -0.7408
 5778TIP3    H217292   3.310   3.405   2.286  0.9341 -2.0419 -0.3937
 5779TIP3   OH217293   2.914   5.791   4.568  0.7734 -0.0809 -0.0292
 5779TIP3    H117294   2.859   5.805   4.491  1.2760  0.3283 -0.3154
 5779TIP3    H217295   3.001   5.819   4.541  0.6822  1.4101  1.1130
 5780TIP3   OH217296   6.260   2.820   1.553 -0.1107 -0.3426 -0.1281
 5780TIP3    H117297   6.324   2.754   1.528  0.8033  0.6551 -0.5245
 5780TIP3    H217298   6.309   2.884   1.604 -0.8204  0.3455 -0.2768
 5781TIP3   OH217299   3.444   4.591   0.212  0.1991 -0.2378  0.1458
 5781TIP3    H117300   3.471   4.531   0.282  0.6739  2.1547  2.1458
 5781TIP3    H217301   3.358   4.558   0.185  1.4698 -3.2304 -0.6629
 5782TIP3   OH217302   4.332   2.012   5.056  0.4353  0.0376 -0.1055
 5782TIP3    H117303   4.343   2.108   5.060  0.9918 -0.0587  0.9926
 5782TIP3    H217304   4.356   1.982   5.143 -1.1693 -0.9843  0.0135
 5783TIP3   OH217305   1.860   0.252   4.322  0.1972 -0.2236  0.1793
 5783TIP3    H117306   1.956   0.243   4.324  0.2427  0.3522  1.3384
 5783TIP3    H217307   1.828   0.168   4.354  0.1678 -1.6760 -3.2114
 5784TIP3   OH217308   2.585   1.149   5.035 -0.6481  0.0896 -0.0154
 5784TIP3    H117309   2.530   1.216   5.074  0.9754  0.3002  2.0869
 5784TIP3    H217310   2.618   1.190   4.954 -2.7719  0.2794 -0.8361
 5785TIP3   OH217311   2.768   6.117   5.589 -0.3010  0.1526  0.2274
 5785TIP3    H117312   2.712   6.048   5.626  0.9079 -0.6196  0.6966
 5785TIP3    H217313   2.820   6.147   5.664  0.7758 -0.0320 -0.4270
 5786TIP3   OH217314   0.629   4.037   6.483 -0.0573  0.8266  0.2855
 5786TIP3    H117315   0.626   4.115   6.539  3.8425  1.5559 -0.2160
 5786TIP3    H217316   0.662   3.968   6.541  0.7223  0.7160 -0.2722
 5787TIP3   OH217317   0.974   7.825   2.094  0.0852 -0.1311  0.1353
 5787TIP3    H117318   0.966   7.857   2.184 -0.0528 -1.8178  0.7736
 5787TIP3    H217319   1.046   7.763   2.097  1.1928  1.0168 -1.3394
 5788TIP3   OH217320   1.219   4.006   1.118  0.2671  0.0209 -0.0955
 5788TIP3    H117321   1.210   4.076   1.183  0.5042 -0.0011 -0.0352
 5788TIP3    H217322   1.151   4.024   1.053 -0.1099 -0.0758  0.2678
 5789TIP3   OH217323   0.493   0.080   5.429 -0.3054  0.1400  0.2574
 5789TIP3    H117324   0.558   0.010   5.428  1.4786  1.6232  2.1151
 5789TIP3    H217325   0.429   0.052   5.495  1.7692  1.2430  2.9131
 5790TIP3   OH217326   4.239   2.348   4.306  0.0242 -0.4533 -0.3576
 5790TIP3    H117327   4.316   2.322   4.356 -0.8497 -0.8681  0.8159
 5790TIP3    H217328   4.254   2.441   4.286  0.7297 -0.4738  0.0397
 5791TIP3   OH217329   1.113   4.519   5.907  0.1399  0.1190 -0.3379
 5791TIP3    H117330   1.050   4.529   5.835 -1.0175  1.2385  0.7807
 5791TIP3    H217331   1.064   4.544   5.985  1.8364  0.5048  0.6507
 5792TIP3   OH217332   0.524   2.250   3.441  0.4542  0.3301  0.1870
 5792TIP3    H117333   0.455   2.184   3.434 -0.0460  0.8312  0.3558
 5792TIP3    H217334   0.576   2.238   3.362 -1.1244  1.4053 -1.0717
 5793TIP3   OH217335   8.069   1.795   3.033 -0.5251 -0.3822  0.3141
 5793TIP3    H117336   8.086   1.843   3.114  0.3189  1.0373 -0.6652
 5793TIP3    H217337   8.155   1.766   3.004 -0.8692 -1.2487  0.1290
 5794TIP3   OH217338   0.468   4.736   1.697  0.7079  0.0831  0.4387
 5794TIP3    H117339   0.428   4.667   1.749 -0.0358 -1.3514 -1.8710
 5794TIP3    H217340   0.453   4.816   1.747  0.6445 -1.2436  2.6848
 5795TIP3   OH217341   3.142   5.931   5.857 -0.0084  0.3161 -0.0878
 5795TIP3    H117342   3.206   6.002   5.851  1.7876 -1.2140  0.0065
 5795TIP3    H217343   3.141   5.908   5.950  2.3892 -2.2319 -0.5498
 5796TIP3   OH217344   0.480   7.553   6.155  0.4659  0.0175  0.1481
 5796TIP3    H117345   0.501   7.483   6.094  1.5325 -1.8256  2.4545
 5796TIP3    H217346   0.556   7.611   6.154  0.5105 -0.0518 -0.2002
 5797TIP3   OH217347   2.901   1.932   4.116  0.0812 -0.1634  0.2543
 5797TIP3    H117348   2.973   1.923   4.055 -0.8125  1.8950 -1.1933
 5797TIP3    H217349   2.832   1.875   4.080 -1.3958  2.9582 -2.3194
 5798TIP3   OH217350   0.602   0.518   2.789  0.4877 -0.2993  0.0276
 5798TIP3    H117351   0.557   0.588   2.741  1.5699 -1.0042 -2.1220
 5798TIP3    H217352   0.648   0.564   2.859 -2.2021  0.6075  1.3475
 5799TIP3   OH217353   7.615   7.146   3.961  0.1020 -0.7349  0.0140
 5799TIP3    H117354   7.530   7.129   3.922  0.0549 -0.6498  0.0804
 5799TIP3    H217355   7.678   7.122   3.892  0.0235 -0.7217 -0.0621
 5800TIP3   OH217356   4.740   1.289   5.985  0.3372  0.3832  0.4577
 5800TIP3    H117357   4.817   1.233   5.999  0.7574  0.0641 -2.4569
 5800TIP3    H217358   4.698   1.252   5.908 -2.1186  1.3096  1.2656
 5801TIP3   OH217359   3.470   3.595   4.446 -0.4139  0.2594 -0.0461
 5801TIP3    H117360   3.396   3.593   4.385  0.2483 -1.8235 -0.8703
 5801TIP3    H217361   3.433   3.566   4.529 -1.0925  2.0858  0.3497
 5802TIP3   OH217362   2.954   5.919   1.241 -0.3165  0.1648 -0.1473
 5802TIP3    H117363   2.967   5.860   1.167  2.6524  1.7500 -1.0414
 5802TIP3    H217364   2.883   5.879   1.291 -1.1598 -1.9766 -2.7965
 5803TIP3   OH217365   7.497   4.515   3.343 -0.1749  0.0084  0.3144
 5803TIP3    H117366   7.418   4.463   3.359  0.0281 -0.2612  0.4348
 5803TIP3    H217367   7.508   4.513   3.248 -0.4839  0.3017  0.2682
 5804TIP3   OH217368   2.738   2.606   5.403 -0.2237 -0.5325 -0.6447
 5804TIP3    H117369   2.666   2.542   5.414 -0.2710 -0.2192  1.1939
 5804TIP3    H217370   2.817   2.553   5.405 -0.3609 -0.7923 -1.7926
 5805TIP3   OH217371   8.120   1.159   0.722  0.0626  0.2052 -0.4577
 5805TIP3    H117372   8.077   1.154   0.807  1.5979 -1.6581  0.2936
 5805TIP3    H217373   8.153   1.249   0.717 -0.3142  0.4341  0.7880
 5806TIP3   OH217374   1.322   4.245   0.208 -0.3897 -1.1637  0.4021
 5806TIP3    H117375   1.255   4.179   0.226 -1.5116 -0.4928 -1.1636
 5806TIP3    H217376   1.315   4.308   0.280 -1.2800 -1.2215  0.3675
 5807TIP3   OH217377   6.987   6.255   1.223  0.5140  0.1043 -0.4464
 5807TIP3    H117378   6.958   6.245   1.132 -1.6000  0.6325  0.1091
 5807TIP3    H217379   7.010   6.166   1.250 -0.4129 -0.3353 -1.0310
 5808TIP3   OH217380   5.837   6.545   4.765  0.5243  0.5108  0.1082
 5808TIP3    H117381   5.814   6.499   4.846  0.6232  0.5667  0.1684
 5808TIP3    H217382   5.832   6.478   4.697  2.1681  0.0477  0.4189
 5809TIP3   OH217383   2.855   2.846   0.307 -0.3632 -0.0721 -0.0871
 5809TIP3    H117384   2.942   2.883   0.322 -0.3499 -0.4203  0.7153
 5809TIP3    H217385   2.873   2.759   0.271 -0.3591 -0.6241  1.2186
 5810TIP3   OH217386   1.871   2.709   3.488 -0.0391 -0.1141 -0.5364
 5810TIP3    H117387   1.932   2.780   3.471  0.3967  0.0333  1.4453
 5810TIP3    H217388   1.784   2.750   3.481  0.1943  0.5173  0.1795
 5811TIP3   OH217389   3.135   3.302   4.489 -0.2465 -0.1670 -0.1575
 5811TIP3    H117390   3.122   3.300   4.584 -1.9338 -0.6385 -0.3761
 5811TIP3    H217391   3.230   3.302   4.478 -0.0209 -0.9470  1.5167
 5812TIP3   OH217392   5.865   5.715   2.204 -0.2608  0.1846 -0.1342
 5812TIP3    H117393   5.901   5.705   2.116 -1.4671  1.9158 -0.8702
 5812TIP3    H217394   5.798   5.647   2.211 -0.4335  0.3017 -0.6827
 5813TIP3   OH217395  -0.022   0.070   4.661  0.0441  0.0417 -0.1476
 5813TIP3    H117396   0.059   0.102   4.622 -0.9459  1.0541 -1.5058
 5813TIP3    H217397  -0.008  -0.023   4.673  1.0823  0.0347 -1.2258
 5814TIP3   OH217398   2.649   4.844   1.255  0.1219 -0.3829 -0.4963
 5814TIP3    H117399   2.667   4.760   1.212  0.1073 -0.0082 -1.2519
 5814TIP3    H217400   2.640   4.906   1.183  0.2927  0.3025  0.0620
 5815TIP3   OH217401   7.215   5.896   6.170  0.0846 -0.5848 -0.1316
 5815TIP3    H117402   7.290   5.943   6.207 -1.4025 -0.3845  3.0297
 5815TIP3    H217403   7.208   5.928   6.080  1.7587  1.9451  0.5201
 5816TIP3   OH217404   7.291   4.306   5.112  0.1456 -0.7119  0.1365
 5816TIP3    H117405   7.232   4.243   5.153 -1.0888  0.1671 -0.2310
 5816TIP3    H217406   7.247   4.390   5.122  0.6640 -0.2212 -1.3811
 5817TIP3   OH217407   2.020   4.965   0.585 -0.2481 -0.0803 -0.5122
 5817TIP3    H117408   2.047   5.016   0.509  0.3884  0.0891 -0.1851
 5817TIP3    H217409   1.966   4.894   0.549 -0.8224  0.5985 -0.9996
 5818TIP3   OH217410   3.634   3.403   6.001  0.3203  0.1585  0.5451
 5818TIP3    H117411   3.623   3.335   5.935 -0.9659  1.2487 -0.4307
 5818TIP3    H217412   3.601   3.363   6.082  0.2413 -0.6045  0.1461
 5819TIP3   OH217413   7.833   4.519   2.985  0.2034  0.2694  0.0396
 5819TIP3    H117414   7.768   4.547   2.920 -0.1388  0.8021  0.5875
 5819TIP3    H217415   7.918   4.539   2.945 -0.0022  0.5455 -0.2669
 5820TIP3   OH217416   3.755   6.219   1.042 -0.3298 -0.8409  0.3957
 5820TIP3    H117417   3.744   6.195   1.134 -1.1490 -1.0143  0.2548
 5820TIP3    H217418   3.696   6.161   0.994  0.1624 -0.8203 -0.2526
 5821TIP3   OH217419   5.153   7.059   3.918 -0.0998 -0.8536 -0.1697
 5821TIP3    H117420   5.088   7.122   3.946  0.4424  0.0716 -0.9178
 5821TIP3    H217421   5.236   7.094   3.951  0.4384 -0.1882 -2.1129
 5822TIP3   OH217422   1.142   0.024   1.002  0.3803 -0.4305 -0.1912
 5822TIP3    H117423   1.062   0.044   1.051 -0.5222 -1.0003 -1.3886
 5822TIP3    H217424   1.132  -0.068   0.978  1.0943 -0.3256 -0.9017
 5823TIP3   OH217425   0.816   1.898   0.537  0.1205 -0.0918  1.1350
 5823TIP3    H117426   0.825   1.992   0.522  0.6471 -0.3441 -0.3038
 5823TIP3    H217427   0.806   1.861   0.450  0.2394 -1.4113  1.6627
 5824TIP3   OH217428   2.883   7.090   1.446 -0.3402 -0.2022 -0.1630
 5824TIP3    H117429   2.921   7.093   1.358 -2.3457  0.9400 -1.0560
 5824TIP3    H217430   2.823   7.015   1.444 -0.6419  0.0263  0.1266
 5825TIP3   OH217431   0.949   5.231   3.291  0.4572 -0.1900  0.8491
 5825TIP3    H117432   1.042   5.235   3.271  0.3635  2.5960  0.5948
 5825TIP3    H217433   0.945   5.214   3.385  1.2925  1.2742  1.1660
 5826TIP3   OH217434   3.425   5.691   0.501 -0.1114  0.4176 -0.1856
 5826TIP3    H117435   3.335   5.658   0.513  0.0927 -0.0415  0.1187
 5826TIP3    H217436   3.476   5.644   0.566  0.7678 -1.0122 -1.8315
 5827TIP3   OH217437   8.195   4.491   3.755 -0.4198  0.2548  0.3210
 5827TIP3    H117438   8.112   4.518   3.718 -0.0127 -1.8180 -2.4476
 5827TIP3    H217439   8.260   4.548   3.713 -0.0887 -1.1813 -1.2278
 5828TIP3   OH217440   6.827   0.902   3.390 -0.1975 -0.5264 -0.2174
 5828TIP3    H117441   6.883   0.954   3.448 -0.1676 -0.8889  0.0813
 5828TIP3    H217442   6.851   0.931   3.302  0.1874 -0.4041 -0.0748
 5829TIP3   OH217443   5.389   5.299   5.536 -0.1293 -0.1212 -0.0021
 5829TIP3    H117444   5.433   5.214   5.528  1.0861  0.6268 -1.9712
 5829TIP3    H217445   5.316   5.294   5.475 -0.6647 -0.0818  0.6235
 5830TIP3   OH217446   2.145   3.416   4.823  0.5300 -0.8768  0.3396
 5830TIP3    H117447   2.099   3.465   4.892  2.7555 -0.9741  2.0225
 5830TIP3    H217448   2.237   3.423   4.847  1.2572 -2.3038 -1.7893
 5831TIP3   OH217449   6.528   6.772   4.241  0.2246 -0.2740  0.5674
 5831TIP3    H117450   6.584   6.728   4.305 -0.4657 -1.2187  0.5486
 5831TIP3    H217451   6.458   6.709   4.223 -0.7861  0.8349  0.5135
 5832TIP3   OH217452   4.829   3.979   4.294 -0.0118  0.2631 -0.3294
 5832TIP3    H117453   4.844   4.070   4.270  2.5373  0.4633  1.6001
 5832TIP3    H217454   4.868   3.928   4.224 -1.5146  0.5886 -1.4558
 5833TIP3   OH217455   3.040   1.704   0.984  0.3239  0.2931  0.5529
 5833TIP3    H117456   2.983   1.651   1.040  1.4538 -0.2350  1.2458
 5833TIP3    H217457   2.985   1.776   0.954 -0.9380 -0.6682  0.4997
 5834TIP3   OH217458   1.584   0.677   3.319  0.1853  0.0435 -0.3467
 5834TIP3    H117459   1.609   0.648   3.407 -1.4602 -1.5705 -0.3602
 5834TIP3    H217460   1.579   0.597   3.268 -0.9921  0.7423 -1.3557
 5835TIP3   OH217461   3.739   2.081   0.316  0.3964  0.4235  0.0586
 5835TIP3    H117462   3.751   2.021   0.390 -1.4087 -0.3149 -0.2031
 5835TIP3    H217463   3.686   2.153   0.352 -1.6203 -0.5835 -0.7757
 5836TIP3   OH217464   3.333   1.983   2.061 -0.3195 -0.0575  0.8594
 5836TIP3    H117465   3.368   2.054   2.008  0.7009 -1.8451 -1.0275
 5836TIP3    H217466   3.401   1.915   2.057 -2.9061 -2.8172 -1.0526
 5837TIP3   OH217467   6.246   4.522   5.501 -0.5690 -0.3567 -0.2045
 5837TIP3    H117468   6.158   4.540   5.466 -0.5131 -2.3542 -1.5843
 5837TIP3    H217469   6.254   4.427   5.494  2.8935 -0.0701 -3.2732
 5838TIP3   OH217470   3.808   0.352   6.222 -0.1488 -0.2000  0.1555
 5838TIP3    H117471   3.727   0.356   6.171  0.5625  0.0976 -0.9891
 5838TIP3    H217472   3.836   0.260   6.216  1.3208  0.3114 -2.3123
 5839TIP3   OH217473   2.468   7.108   5.879 -0.1437  0.2470  0.5191
 5839TIP3    H117474   2.448   7.096   5.787  1.7687  2.3195 -0.2424
 5839TIP3    H217475   2.562   7.127   5.882 -0.6455  3.0795  2.5478
 5840TIP3   OH217476   4.062   7.302   1.888  0.0768  0.2984  0.3253
 5840TIP3    H117477   4.132   7.293   1.823 -0.4084 -0.2043 -0.1372
 5840TIP3    H217478   3.986   7.259   1.848 -0.6910  1.4266  0.5397
 5841TIP3   OH217479   6.103   6.283   4.223  0.2419 -0.3436  0.4495
 5841TIP3    H117480   6.008   6.292   4.228 -0.1400 -2.9156 -0.6155
 5841TIP3    H217481   6.127   6.330   4.143 -0.5395 -1.7953 -0.6954
 5842TIP3   OH217482   6.903   6.518   6.003  0.2958  0.2384  0.0770
 5842TIP3    H117483   6.857   6.502   6.086 -0.8393 -0.0671 -0.5910
 5842TIP3    H217484   6.968   6.585   6.025  0.5566 -0.3974  1.3873
 5843TIP3   OH217485   0.502   3.736   6.280  0.0395  0.6656  0.4267
 5843TIP3    H117486   0.488   3.651   6.239  0.1494  0.9700 -0.2499
 5843TIP3    H217487   0.593   3.758   6.261 -0.1149  1.1350  0.2059
 5844TIP3   OH217488   3.372   7.185   6.446  0.3443 -0.1389 -0.1789
 5844TIP3    H117489   3.279   7.170   6.461  0.3938  0.5423  0.8959
 5844TIP3    H217490   3.378   7.276   6.418  0.7638  0.1109  0.6833
 5845TIP3   OH217491   6.325   7.227   2.452  0.6844 -0.1497  0.1691
 5845TIP3    H117492   6.345   7.241   2.359  1.2271  2.1838  0.5644
 5845TIP3    H217493   6.263   7.154   2.453  1.5388 -0.9817 -1.9154
 5846TIP3   OH217494   3.581   2.793   1.945 -0.0512 -0.1335  0.2003
 5846TIP3    H117495   3.597   2.887   1.957  1.6993 -0.2347 -1.0109
 5846TIP3    H217496   3.530   2.788   1.864  0.4803 -0.2739 -0.1233
 5847TIP3   OH217497   1.871   6.880   0.949  0.7390  0.1406  0.2985
 5847TIP3    H117498   1.898   6.814   1.012  3.1747  0.2408 -0.5144
 5847TIP3    H217499   1.783   6.853   0.922  1.4934 -2.6049  0.2513
 5848TIP3   OH217500   6.441   6.143   5.767  0.9643 -0.0903 -0.4611
 5848TIP3    H117501   6.494   6.096   5.831  0.1552 -0.0281  0.2768
 5848TIP3    H217502   6.503   6.199   5.721  1.7656 -1.0994 -0.6378
 5849TIP3   OH217503   8.014   0.652   3.536 -0.2985  0.3159  0.1941
 5849TIP3    H117504   7.953   0.632   3.464  2.4199 -1.1545 -1.9152
 5849TIP3    H217505   8.079   0.709   3.497  1.3830 -0.6800  1.3986
 5850TIP3   OH217506   2.478   5.749   4.627 -0.0836 -0.1241 -0.5404
 5850TIP3    H117507   2.509   5.818   4.685  2.8439 -1.7517  0.0403
 5850TIP3    H217508   2.506   5.777   4.540  0.5941 -0.2638 -0.3785
 5851TIP3   OH217509   5.492   2.835   3.371 -0.0698 -0.0314  0.2184
 5851TIP3    H117510   5.403   2.866   3.389  0.3590  0.4496  1.5852
 5851TIP3    H217511   5.546   2.876   3.438  1.4169  0.7057 -1.3788
 5852TIP3   OH217512   3.150   4.747   3.903  0.0552  0.1064 -0.0032
 5852TIP3    H117513   3.131   4.667   3.854 -1.1400  0.4904 -0.2012
 5852TIP3    H217514   3.244   4.743   3.921  0.4079 -0.3564 -1.7884
 5853TIP3   OH217515   7.241   7.143   3.190  0.3071 -0.0951 -0.1921
 5853TIP3    H117516   7.207   7.125   3.103  0.2679 -1.3780  0.0718
 5853TIP3    H217517   7.176   7.200   3.230 -0.0634 -0.1402 -0.7195
 5854TIP3   OH217518   7.388   3.928   5.275  0.0125 -0.0440  0.7406
 5854TIP3    H117519   7.306   3.913   5.229  0.5008 -2.5707  0.5502
 5854TIP3    H217520   7.366   3.921   5.368 -0.1494  0.2849  0.7283
 5855TIP3   OH217521   7.461   2.295   4.003 -0.1496  0.5409 -0.2728
 5855TIP3    H117522   7.476   2.356   4.076 -0.4218  1.7300 -1.1693
 5855TIP3    H217523   7.367   2.301   3.986  0.2313  2.2048 -2.2746
 5856TIP3   OH217524   4.752   4.075   6.349  0.1377 -0.4233  0.0687
 5856TIP3    H117525   4.803   4.012   6.297  1.0285 -2.0284  2.6712
 5856TIP3    H217526   4.664   4.038   6.352 -0.3225  0.4946 -1.5273
 5857TIP3   OH217527   5.680   1.492   3.001  0.6344  0.3724  0.1823
 5857TIP3    H117528   5.713   1.502   3.091 -0.2784  0.4355  0.5215
 5857TIP3    H217529   5.660   1.581   2.972  0.2157  0.2918  0.2056
 5858TIP3   OH217530   4.966   6.716   5.572  0.0450 -0.0501  0.6789
 5858TIP3    H117531   4.975   6.641   5.630 -2.1951 -0.0100  1.1872
 5858TIP3    H217532   5.012   6.787   5.616  2.4749 -1.1447  0.0291
 5859TIP3   OH217533   6.953   4.344   3.070  0.1520 -0.6086 -0.0280
 5859TIP3    H117534   6.986   4.433   3.056 -0.8041 -0.5698 -2.6615
 5859TIP3    H217535   6.903   4.350   3.152 -0.1424  1.3676 -0.2971
 5860TIP3   OH217536   2.709   4.644   1.757 -0.1222 -0.3465 -0.1951
 5860TIP3    H117537   2.727   4.733   1.725  0.0931 -0.6964 -1.0909
 5860TIP3    H217538   2.723   4.649   1.851 -1.2485  0.8466 -0.0675
 5861TIP3   OH217539   5.033   6.419   0.626 -0.5259  0.5899 -0.0696
 5861TIP3    H117540   5.125   6.422   0.601 -0.6714 -0.0780 -0.7190
 5861TIP3    H217541   4.987   6.456   0.551 -0.7605  1.4951  0.4978
 5862TIP3   OH217542   5.970   0.444   2.512 -0.1003 -0.4210  0.3930
 5862TIP3    H117543   5.955   0.368   2.569  1.8147 -0.1159  1.3727
 5862TIP3    H217544   6.058   0.474   2.534  0.2265  0.4988 -1.8508
 5863TIP3   OH217545   6.908   6.368   2.342  0.1954  0.0143  0.5040
 5863TIP3    H117546   6.953   6.443   2.381  0.5708 -1.1907  2.5377
 5863TIP3    H217547   6.818   6.375   2.374 -0.2269  0.5363 -0.7529
 5864TIP3   OH217548   6.779   3.113   5.694 -0.3241  0.0932  0.6783
 5864TIP3    H117549   6.790   3.071   5.779  1.7159  2.2783  1.6143
 5864TIP3    H217550   6.739   3.198   5.714  1.1972  1.1122 -0.3586
 5865TIP3   OH217551   6.574   0.613   0.105  0.6376 -0.5363 -0.2421
 5865TIP3    H117552   6.663   0.618   0.071 -0.0813  0.3256 -2.1860
 5865TIP3    H217553   6.533   0.544   0.054 -0.1735  0.0147 -0.3635
 5866TIP3   OH217554   7.454   5.345   0.821  0.6556 -0.0941  0.0566
 5866TIP3    H117555   7.483   5.407   0.754  0.3554  0.3308  0.3152
 5866TIP3    H217556   7.483   5.259   0.789  1.0458  0.1742 -0.3187
 5867TIP3   OH217557   5.400   6.851   5.774 -0.2328 -0.5898 -0.7390
 5867TIP3    H117558   5.383   6.940   5.742  0.9054 -0.0032  0.1898
 5867TIP3    H217559   5.430   6.864   5.864 -3.2756 -2.1338  0.6601
 5868TIP3   OH217560   5.323   6.724   0.892  0.5018  0.1423 -0.4352
 5868TIP3    H117561   5.309   6.801   0.837 -4.3565  0.4194  0.7618
 5868TIP3    H217562   5.343   6.653   0.830 -0.3519  1.3028 -2.0971
 5869TIP3   OH217563   6.663   0.058   6.426  0.2065  0.1936 -0.5239
 5869TIP3    H117564   6.642   0.026   6.338  1.8497 -1.0882 -0.4954
 5869TIP3    H217565   6.747   0.018   6.446 -1.4300 -2.0180  2.8487
 5870TIP3   OH217566   5.897   6.831   5.002  0.4402 -0.4584  0.3316
 5870TIP3    H117567   5.813   6.784   5.003  0.1655 -0.0269 -0.7671
 5870TIP3    H217568   5.917   6.841   4.909  1.8217 -0.7214  0.5856
 5871TIP3   OH217569   7.437   5.106   4.020 -0.1786  0.8106  0.6081
 5871TIP3    H117570   7.465   5.094   3.929 -1.2614 -0.4414  0.4021
 5871TIP3    H217571   7.433   5.017   4.056 -1.6418  1.1141  1.2779
 5872TIP3   OH217572   4.299   3.445   4.962  0.3632 -0.3004 -0.1762
 5872TIP3    H117573   4.311   3.484   5.049  1.6510 -1.3813  0.1548
 5872TIP3    H217574   4.310   3.519   4.902 -0.9785  0.5473  0.5616
 5873TIP3   OH217575   0.749   3.438   4.015  0.1161  0.4561  0.4944
 5873TIP3    H117576   0.797   3.421   4.097 -1.4778 -1.0311  1.1928
 5873TIP3    H217577   0.754   3.354   3.968 -0.1304  0.8927 -0.3168
 5874TIP3   OH217578   7.021   0.126   1.707 -0.2372  0.1048  0.8508
 5874TIP3    H117579   7.033   0.038   1.671  1.4326 -0.6827  3.1149
 5874TIP3    H217580   7.085   0.180   1.659 -2.3605  0.5541 -1.6876
 5875TIP3   OH217581   8.272   4.314   3.194 -0.1011 -0.5532 -0.1212
 5875TIP3    H117582   8.298   4.353   3.111  2.3453  1.5050  1.4648
 5875TIP3    H217583   8.197   4.367   3.223  1.4506  1.3058  0.7022
 5876TIP3   OH217584   1.361   5.145   4.765 -0.0552  0.3913  0.2785
 5876TIP3    H117585   1.425   5.215   4.780  1.7146 -0.8672 -1.0026
 5876TIP3    H217586   1.311   5.173   4.688  0.0870  0.6114  0.2670
 5877TIP3   OH217587   3.168   6.720   4.685 -0.3389  0.2918  0.5873
 5877TIP3    H117588   3.091   6.714   4.743 -1.7166  0.4667 -1.1524
 5877TIP3    H217589   3.159   6.645   4.626  0.1305  1.0566 -0.4763
 5878TIP3   OH217590   0.984   2.922   5.110 -0.7013 -0.0782 -0.1874
 5878TIP3    H117591   1.046   2.894   5.042 -0.7734  0.2035 -0.3734
 5878TIP3    H217592   1.033   2.985   5.163 -1.3936  1.6553 -1.5074
 5879TIP3   OH217593   2.965   0.754   1.488 -0.5025 -0.0098 -0.3458
 5879TIP3    H117594   3.012   0.838   1.484 -0.1915 -0.1209  0.6397
 5879TIP3    H217595   2.877   0.777   1.519 -0.6745  0.0351 -0.8519
 5880TIP3   OH217596   1.275   4.310   3.322 -0.6155  0.3259  0.2435
 5880TIP3    H117597   1.371   4.304   3.320 -0.7096 -2.2479  0.3399
 5880TIP3    H217598   1.257   4.403   3.306  1.8467  0.6683 -1.0529
 5881TIP3   OH217599   3.113   3.639   6.039  0.1560  0.4838  0.3335
 5881TIP3    H117600   3.095   3.566   6.098 -2.1513 -0.0013 -0.8691
 5881TIP3    H217601   3.207   3.634   6.022  0.1243 -1.9412  0.6138
 5882TIP3   OH217602   4.611   1.577   5.058  0.0396 -0.0847  0.3491
 5882TIP3    H117603   4.550   1.636   5.103 -1.2290 -0.7767 -0.4399
 5882TIP3    H217604   4.695   1.593   5.101 -0.1292  2.6920 -0.1778
 5883TIP3   OH217605   6.899   5.850   2.275  0.2967 -0.7688  0.0806
 5883TIP3    H117606   6.973   5.898   2.310 -0.5007 -0.8198  1.9325
 5883TIP3    H217607   6.865   5.799   2.349 -0.9764 -1.5145 -0.9572
 5884TIP3   OH217608   3.507   1.800   2.775 -0.2108 -0.0519  0.1685
 5884TIP3    H117609   3.459   1.736   2.722  0.1066  0.6834 -1.0299
 5884TIP3    H217610   3.456   1.806   2.856 -2.1938  0.7346 -1.0707
 5885TIP3   OH217611   3.957   0.220   0.787 -0.0804  0.0943 -0.0488
 5885TIP3    H117612   3.918   0.232   0.874  0.9728 -0.0696  0.4550
 5885TIP3    H217613   3.970   0.125   0.779  0.5714  0.1859 -0.0609
 5886TIP3   OH217614   2.954   4.714   3.251  0.9397 -0.0361 -0.5553
 5886TIP3    H117615   2.881   4.714   3.189  1.1462 -0.2377 -0.7962
 5886TIP3    H217616   2.928   4.778   3.318  1.0704  0.7589 -1.2489
 5887TIP3   OH217617   2.041   2.577   2.166  0.5947 -0.1314  0.2880
 5887TIP3    H117618   2.047   2.665   2.205 -0.9303 -0.0674  0.4672
 5887TIP3    H217619   2.102   2.579   2.093  0.7234  1.0274  0.3972
 5888TIP3   OH217620   4.957   0.949   4.508 -0.2871  0.0631 -0.6166
 5888TIP3    H117621   5.005   1.029   4.488  0.8699 -0.2775  0.6563
 5888TIP3    H217622   4.867   0.967   4.478 -0.2462  2.1127  0.3290
 5889TIP3   OH217623   4.426   6.936   4.079 -0.2880 -0.0169  0.3645
 5889TIP3    H117624   4.366   6.861   4.077  0.7199 -0.8278 -0.5725
 5889TIP3    H217625   4.473   6.927   4.162  0.4592 -0.9504 -0.1467
 5890TIP3   OH217626   1.853   5.706   5.730 -0.9776  0.0812  0.3344
 5890TIP3    H117627   1.878   5.616   5.752 -1.3438  0.2566  1.5150
 5890TIP3    H217628   1.799   5.735   5.804 -1.7223  0.9203 -0.5093
 5891TIP3   OH217629   2.706   4.009   4.646  0.3978  0.6965 -0.1573
 5891TIP3    H117630   2.678   4.091   4.687  0.9682 -0.8226  3.7314
 5891TIP3    H217631   2.695   3.943   4.715  2.2792 -2.0671 -2.2779
 5892TIP3   OH217632   3.313   3.706   4.993  0.8193 -0.9225 -0.8720
 5892TIP3    H117633   3.336   3.723   4.902 -0.5085 -0.8966 -1.2196
 5892TIP3    H217634   3.280   3.789   5.026  0.3072 -1.1959 -0.6863
 5893TIP3   OH217635   5.383   1.582   2.620  0.3071  0.5628  0.3064
 5893TIP3    H117636   5.355   1.540   2.701  2.2005  2.6681  2.1886
 5893TIP3    H217637   5.306   1.577   2.563 -0.5753 -2.4455  1.5371
 5894TIP3   OH217638   2.780   3.770   3.220  0.3473  0.2819  0.0324
 5894TIP3    H117639   2.849   3.777   3.285  0.2332  1.3550  0.0610
 5894TIP3    H217640   2.738   3.857   3.220  0.3340  0.3044 -1.4501
 5895TIP3   OH217641   3.785   0.214   1.529  0.1134  0.0711 -0.1835
 5895TIP3    H117642   3.852   0.282   1.528  0.9982 -0.7662 -1.3695
 5895TIP3    H217643   3.816   0.150   1.593 -0.1673  0.2598  0.1426
 5896TIP3   OH217644   3.778   5.103   3.637  0.0873  0.0373 -0.0636
 5896TIP3    H117645   3.819   5.182   3.674  0.3270 -0.5373  0.9194
 5896TIP3    H217646   3.808   5.103   3.545 -0.1257  1.2183 -0.1599
 5897TIP3   OH217647   1.430   4.436   1.858  0.0766 -0.3084 -0.6424
 5897TIP3    H117648   1.335   4.447   1.858  0.0718  0.3917  1.8402
 5897TIP3    H217649   1.463   4.508   1.803 -0.7958  0.2246 -0.4828
 5898TIP3   OH217650   1.313   5.144   5.274  0.3234 -0.7963 -0.9238
 5898TIP3    H117651   1.299   5.120   5.365 -1.3760  1.2321 -0.5571
 5898TIP3    H217652   1.368   5.075   5.238 -0.3823 -2.5449  1.1725
 5899TIP3   OH217653   5.676   7.297   2.923  0.2459  0.5033 -0.0493
 5899TIP3    H117654   5.645   7.383   2.894 -0.1367  1.4465  2.8469
 5899TIP3    H217655   5.771   7.301   2.911  0.1469  0.9635 -0.7811
 5900TIP3   OH217656   5.453   5.317   2.341 -0.0817  0.1931 -0.1288
 5900TIP3    H117657   5.414   5.233   2.316 -0.4187  0.4352 -0.4062
 5900TIP3    H217658   5.427   5.378   2.272  1.3311  0.2076 -0.6726
 5901TIP3   OH217659   6.500   2.533   5.169 -0.0453 -0.0888  0.3239
 5901TIP3    H117660   6.431   2.530   5.234  0.8504  0.2060  1.3191
 5901TIP3    H217661   6.556   2.606   5.196  0.5522 -0.1932 -0.5582
 5902TIP3   OH217662   4.780   1.878   5.824 -0.1574  0.3474 -0.0749
 5902TIP3    H117663   4.843   1.834   5.767  1.0314 -1.8637  2.7152
 5902TIP3    H217664   4.724   1.808   5.856  0.1803  1.2101  2.5897
 5903TIP3   OH217665   7.397   5.225   2.997 -0.3134 -0.5892 -0.1797
 5903TIP3    H117666   7.374   5.234   3.089 -1.4878  1.2343 -0.5880
 5903TIP3    H217667   7.338   5.285   2.952  0.3570 -1.2972 -2.1109
 5904TIP3   OH217668   2.406   0.012   2.034 -0.1652 -0.6475 -0.3183
 5904TIP3    H117669   2.321   0.054   2.042 -0.3600 -1.0430 -0.2541
 5904TIP3    H217670   2.463   0.061   2.093 -0.1329  0.1491 -0.9991
 5905TIP3   OH217671   5.599   0.390   5.778  0.3317  0.3708  0.1910
 5905TIP3    H117672   5.532   0.376   5.711  0.9718  0.1968 -0.4221
 5905TIP3    H217673   5.591   0.315   5.836  0.3270  0.0963 -0.1648
 5906TIP3   OH217674   3.895   2.750   2.832 -0.2714  0.1833  0.0916
 5906TIP3    H117675   3.894   2.654   2.827  1.3453  0.0147  2.0965
 5906TIP3    H217676   3.863   2.770   2.920 -1.5669  1.5887 -0.6441
 5907TIP3   OH217677   0.773   1.835   1.400  0.1966  0.1054 -0.0208
 5907TIP3    H117678   0.756   1.749   1.439 -1.6218  0.9301  1.1216
 5907TIP3    H217679   0.868   1.847   1.411  0.1362 -0.7598  2.0149
 5908TIP3   OH217680   6.101   0.541   6.464  0.0569  0.2239 -0.0486
 5908TIP3    H117681   6.163   0.611   6.441  0.7382 -0.0079  0.9982
 5908TIP3    H217682   6.156   0.465   6.482 -0.5055  0.0552  1.0690
 5909TIP3   OH217683   4.901   1.326   2.377  0.2555  0.1123 -0.0702
 5909TIP3    H117684   4.861   1.411   2.357  1.0505  0.5124 -0.0228
 5909TIP3    H217685   4.939   1.338   2.464 -0.1693 -0.4962  0.1984
 5910TIP3   OH217686   0.269   4.062   4.127 -0.2115 -0.3393  0.0847
 5910TIP3    H117687   0.362   4.040   4.125  0.2799  1.3254  1.5745
 5910TIP3    H217688   0.240   4.050   4.037  1.6860  0.0008 -0.6281
 5911TIP3   OH217689   5.297   5.407   1.284  0.1017 -0.2178  0.5020
 5911TIP3    H117690   5.342   5.490   1.301 -0.4920  0.5293 -1.3192
 5911TIP3    H217691   5.320   5.385   1.194  2.1257 -3.3173  1.5925
 5912TIP3   OH217692   5.836   0.603   1.713 -0.2809  0.3596  0.3515
 5912TIP3    H117693   5.913   0.562   1.754 -0.7092  0.3095  1.1210
 5912TIP3    H217694   5.819   0.681   1.765  0.2905  1.3498 -0.8772
 5913TIP3   OH217695   0.706   6.473   3.777 -0.9240 -0.2699 -0.2003
 5913TIP3    H117696   0.647   6.526   3.831 -1.1049  0.2670 -0.9168
 5913TIP3    H217697   0.693   6.504   3.688 -0.1704 -0.7229 -0.4844
 5914TIP3   OH217698   1.583   4.023   1.563 -0.0969 -0.7449  0.3775
 5914TIP3    H117699   1.575   4.031   1.658 -0.6063  0.0241  0.2853
 5914TIP3    H217700   1.556   3.934   1.543 -2.7026 -0.0980  0.7067
 5915TIP3   OH217701   2.348   1.942   4.656  0.0612  0.2316 -0.9035
 5915TIP3    H117702   2.340   1.943   4.752  0.0927  4.0949 -0.7877
 5915TIP3    H217703   2.259   1.960   4.625  0.1528 -0.5239 -1.6390
 5916TIP3   OH217704   1.480   0.123   2.389 -0.2920  0.0295 -0.4096
 5916TIP3    H117705   1.507   0.157   2.303 -2.1016  1.1361 -0.5889
 5916TIP3    H217706   1.385   0.113   2.383 -0.2577 -1.4571  0.9450
 5917TIP3   OH217707   5.956   3.930   1.782 -0.1136  0.7201  0.2489
 5917TIP3    H117708   6.032   3.966   1.737 -0.5573  1.5753  0.1738
 5917TIP3    H217709   5.917   3.870   1.718  1.9475 -1.8282  1.1691
 5918TIP3   OH217710   0.412   2.800   5.154  0.4402 -0.0888  0.0723
 5918TIP3    H117711   0.448   2.877   5.198 -0.1830  0.4423 -0.3308
 5918TIP3    H217712   0.440   2.809   5.063 -0.9631  0.5178 -0.3282
 5919TIP3   OH217713   3.028   1.242   3.573  0.1842  0.3000  0.0621
 5919TIP3    H117714   2.988   1.321   3.610  0.8757  1.4845 -1.5748
 5919TIP3    H217715   3.117   1.269   3.551 -0.1047 -0.3771 -2.1791
 5920TIP3   OH217716   2.334   4.070   1.989 -0.1964  0.1808 -0.0222
 5920TIP3    H117717   2.300   3.993   1.943 -0.5269 -0.5882  1.4503
 5920TIP3    H217718   2.401   4.035   2.048 -0.6329  0.9519  0.9563
 5921TIP3   OH217719   2.635   4.932   2.854 -0.1705  0.4165  0.2066
 5921TIP3    H117720   2.590   5.002   2.807  0.6566 -0.6463 -2.3195
 5921TIP3    H217721   2.581   4.855   2.841  0.5646 -0.1080  0.2310
 5922TIP3   OH217722   1.352   2.088   5.917  0.2736 -0.6634 -0.0491
 5922TIP3    H117723   1.416   2.017   5.924  1.1196  0.0603 -0.2959
 5922TIP3    H217724   1.352   2.112   5.824 -1.8127 -1.9420 -0.4597
 5923TIP3   OH217725   4.299   0.959   1.497  0.8291 -0.1749  0.3020
 5923TIP3    H117726   4.331   0.876   1.531 -1.1399 -0.6816  1.0446
 5923TIP3    H217727   4.355   1.025   1.538  1.9584 -1.0788  0.2575
 5924TIP3   OH217728   4.864   0.059   5.911  0.1964  0.3500 -0.1901
 5924TIP3    H117729   4.888   0.151   5.925  1.7943  0.1792 -1.4768
 5924TIP3    H217730   4.782   0.063   5.861 -0.3762  1.0390  0.7668
 5925TIP3   OH217731   4.643   4.143   2.205 -0.2575  0.2282 -0.1652
 5925TIP3    H117732   4.737   4.163   2.202  0.1833 -1.7368 -0.7222
 5925TIP3    H217733   4.607   4.183   2.126  0.3830 -0.1601 -0.6658
 5926TIP3   OH217734   0.724   3.799   6.737 -0.0823  0.2968  0.3650
 5926TIP3    H117735   0.693   3.809   6.827 -0.3275  0.1542  0.2970
 5926TIP3    H217736   0.782   3.723   6.741  1.4661  1.4526  0.8025
 5927TIP3   OH217737   2.298   3.413   2.176 -0.0777  0.1624  0.0774
 5927TIP3    H117738   2.313   3.381   2.265  0.3703 -1.3079 -0.5019
 5927TIP3    H217739   2.263   3.337   2.129 -1.5802  1.2677 -0.6969
 5928TIP3   OH217740   1.759   0.481   5.439 -0.1910 -0.6355 -0.4826
 5928TIP3    H117741   1.709   0.529   5.505 -0.6910 -0.5939 -0.8799
 5928TIP3    H217742   1.799   0.408   5.487  1.6309  0.8650  0.3854
 5929TIP3   OH217743   1.190   2.622   3.408 -0.2905 -0.2203 -0.0694
 5929TIP3    H117744   1.242   2.692   3.447 -0.1317 -1.4041  1.9796
 5929TIP3    H217745   1.235   2.542   3.433 -2.0866 -1.1937  0.1912
 5930TIP3   OH217746   1.895   4.145   4.243 -0.3242 -1.0381 -0.7029
 5930TIP3    H117747   1.915   4.123   4.152 -2.8721  1.4814 -2.0370
 5930TIP3    H217748   1.808   4.108   4.258  0.2608 -1.8637  0.9576
 5931TIP3   OH217749   7.893   4.610   3.736 -0.6948 -0.0837  0.0753
 5931TIP3    H117750   7.921   4.582   3.649 -0.0429 -0.4806  0.4024
 5931TIP3    H217751   7.961   4.673   3.764 -1.0168  0.2091  0.2087
 5932TIP3   OH217752   1.567   6.062   0.038  0.0252 -0.4089  0.3116
 5932TIP3    H117753   1.554   6.069   0.133  0.8653 -0.3713  0.4294
 5932TIP3    H217754   1.492   6.108   0.001  0.2216  0.4885  0.9773
 5933TIP3   OH217755   0.460   6.556   6.176 -0.0359 -0.3333 -0.0116
 5933TIP3    H117756   0.482   6.468   6.206 -0.1826 -0.3224  0.1230
 5933TIP3    H217757   0.409   6.594   6.246  1.5035  0.4939  0.7131
 5934TIP3   OH217758   0.266   2.715   0.614  0.4275 -0.0436  0.4212
 5934TIP3    H117759   0.240   2.698   0.524  0.1350  0.9909  0.2937
 5934TIP3    H217760   0.338   2.653   0.631 -1.9446 -2.9253  0.7587
 5935TIP3   OH217761   8.108   6.067   0.897 -0.1758  0.4008  0.3355
 5935TIP3    H117762   8.098   6.022   0.981  1.4654  1.4903  1.1657
 5935TIP3    H217763   8.087   6.159   0.917  0.2071  0.6594 -0.4411
 5936TIP3   OH217764   7.324   5.747   5.718  0.6127  0.8553  0.5540
 5936TIP3    H117765   7.411   5.737   5.680  0.4095  2.6119 -0.4596
 5936TIP3    H217766   7.264   5.731   5.645  0.0962  0.5041  1.0470
 5937TIP3   OH217767   0.161   6.701   5.807  0.1740 -0.0236 -0.1514
 5937TIP3    H117768   0.223   6.761   5.848  1.1210 -0.5321 -0.8199
 5937TIP3    H217769   0.103   6.674   5.879 -2.2282  3.9177 -0.3089
 5938TIP3   OH217770   6.771   4.812   1.418 -0.4969  0.1993 -0.1406
 5938TIP3    H117771   6.852   4.826   1.369  0.6710  0.8156  1.8643
 5938TIP3    H217772   6.754   4.718   1.408  1.2623 -0.2427  0.5070
 5939TIP3   OH217773   8.044   0.474   4.912 -0.6040  0.6274 -0.2964
 5939TIP3    H117774   8.092   0.404   4.868 -0.0814  0.7278  0.0911
 5939TIP3    H217775   8.103   0.550   4.906 -1.1544  1.0243 -0.6934
 5940TIP3   OH217776   3.095   2.160   0.952 -0.2806  0.4301 -0.1218
 5940TIP3    H117777   3.060   2.234   0.903 -0.5648 -1.5666 -3.1775
 5940TIP3    H217778   3.020   2.122   0.997 -0.6906  0.3533 -0.8585
 5941TIP3   OH217779   5.930   0.441   5.922  0.7994  0.0482 -0.4754
 5941TIP3    H117780   5.979   0.393   5.989 -2.2523 -0.9400  1.2815
 5941TIP3    H217781   5.895   0.517   5.969  0.1795  0.3875 -1.4676
 5942TIP3   OH217782   3.641   4.890   2.763 -0.2988 -0.9851 -0.0038
 5942TIP3    H117783   3.557   4.880   2.718  0.1127 -0.3207 -0.9468
 5942TIP3    H217784   3.626   4.963   2.823 -0.0005  0.1171 -1.2144
 5943TIP3   OH217785   0.548   6.790   6.654  0.2713  0.1724  0.2959
 5943TIP3    H117786   0.572   6.716   6.597  1.1627  0.4961  0.2320
 5943TIP3    H217787   0.473   6.758   6.704  0.4943 -0.6923  0.1003
 5944TIP3   OH217788   3.638   4.787   3.747 -0.7248  0.2786  0.0993
 5944TIP3    H117789   3.722   4.832   3.760  0.2165 -0.9054 -1.4853
 5944TIP3    H217790   3.573   4.858   3.744  0.5373  1.4389 -1.0277
 5945TIP3   OH217791   6.917   2.538   0.664 -0.2490 -0.2977 -0.0306
 5945TIP3    H117792   6.858   2.475   0.622  0.3073 -0.3854 -0.7130
 5945TIP3    H217793   6.990   2.545   0.603  0.2336  0.1447  0.5916
 5946TIP3   OH217794   4.465   5.362   2.233 -0.4194 -0.0557  0.3992
 5946TIP3    H117795   4.516   5.371   2.152  0.5426  2.0319  1.1406
 5946TIP3    H217796   4.529   5.376   2.303 -1.1062 -2.4442  1.6003
 5947TIP3   OH217797   7.787   1.482   1.362 -0.2025  0.0939 -0.3024
 5947TIP3    H117798   7.742   1.476   1.278  1.2339 -0.1463 -1.0851
 5947TIP3    H217799   7.717   1.490   1.426 -1.4236 -1.7828 -1.3302
 5948TIP3   OH217800   3.004   0.577   4.571 -0.2108 -0.1880  0.1626
 5948TIP3    H117801   3.063   0.630   4.625  1.0896 -1.1943 -0.2131
 5948TIP3    H217802   3.049   0.572   4.487  0.0511 -2.4281  0.3937
 5949TIP3   OH217803   0.786   5.348   1.808  0.0471  0.7613 -0.3180
 5949TIP3    H117804   0.791   5.255   1.830  2.0937  1.0630  0.7562
 5949TIP3    H217805   0.816   5.352   1.717  1.1102  0.4428 -0.0021
 5950TIP3   OH217806   6.182   7.549   3.266  0.1190  0.2434 -0.3538
 5950TIP3    H117807   6.198   7.456   3.247  1.6890  0.0944  1.3395
 5950TIP3    H217808   6.143   7.584   3.186 -0.6588 -1.8957 -0.9878
 5951TIP3   OH217809   4.224   3.820   2.891  0.4428 -0.3477 -0.3203
 5951TIP3    H117810   4.261   3.735   2.916  0.7415  0.1497  0.9938
 5951TIP3    H217811   4.131   3.802   2.878  0.2015 -0.6000  1.5058
 5952TIP3   OH217812   0.905   5.695   1.404  0.1052 -0.0821 -0.0534
 5952TIP3    H117813   0.852   5.764   1.444  1.1724 -0.3169  1.8553
 5952TIP3    H217814   0.947   5.651   1.478  1.0695 -1.4517 -1.3689
 5953TIP3   OH217815   7.769   3.220   3.292 -0.5274 -0.4029  0.0993
 5953TIP3    H117816   7.695   3.234   3.233 -1.5053  0.9443  1.5512
 5953TIP3    H217817   7.797   3.308   3.317  0.7310 -0.9176  0.5865
 5954TIP3   OH217818   6.197   3.903   5.347 -0.7573  0.5835  0.0735
 5954TIP3    H117819   6.102   3.904   5.342 -0.7126 -0.4635 -1.7934
 5954TIP3    H217820   6.217   3.827   5.402 -0.9703  1.5214  1.5178
 5955TIP3   OH217821   0.871   7.269   4.750  0.5374 -0.2868 -0.2123
 5955TIP3    H117822   0.814   7.256   4.826 -0.8581  0.4248 -1.0822
 5955TIP3    H217823   0.813   7.307   4.684  2.0675  0.5604 -1.1130
 5956TIP3   OH217824   2.812   6.583   3.946  0.0200 -0.1871 -0.2873
 5956TIP3    H117825   2.785   6.527   3.874 -0.1318  0.1469 -0.4956
 5956TIP3    H217826   2.902   6.557   3.965 -0.2286 -0.8630 -0.0198
 5957TIP3   OH217827   6.569   2.770   1.308 -0.1736 -0.0735  0.2806
 5957TIP3    H117828   6.549   2.823   1.385  1.7539 -1.5850  1.9191
 5957TIP3    H217829   6.619   2.696   1.342  2.8532  0.3858 -2.6713
 5958TIP3   OH217830   6.670   6.569   1.006  0.0569 -0.0924  0.2463
 5958TIP3    H117831   6.596   6.517   0.977 -0.0630  0.2339 -0.0448
 5958TIP3    H217832   6.648   6.659   0.979  0.2846  0.0977  0.6814
 5959TIP3   OH217833   0.711   0.357   1.397 -0.5074 -0.0443 -0.3080
 5959TIP3    H117834   0.724   0.414   1.321  1.0789  0.0846  0.0269
 5959TIP3    H217835   0.663   0.411   1.460  1.4131  1.1506  0.2080
 5960TIP3   OH217836   3.804   7.040   2.155  0.0774 -0.0735  0.6640
 5960TIP3    H117837   3.788   7.017   2.246  1.9876 -3.4317  0.3222
 5960TIP3    H217838   3.899   7.033   2.145 -0.0380  0.6871 -1.4757
 5961TIP3   OH217839   5.500   6.435   2.891  0.5472  0.1850  0.7107
 5961TIP3    H117840   5.414   6.452   2.853 -0.0360  0.8688  2.2508
 5961TIP3    H217841   5.493   6.347   2.928 -0.0317  0.7972  2.1453
 5962TIP3   OH217842   2.707   4.439   5.786 -0.1712  0.0239 -0.2532
 5962TIP3    H117843   2.675   4.526   5.810 -0.7892 -0.3477  0.3059
 5962TIP3    H217844   2.728   4.446   5.693  0.7675  1.0524  0.0181
 5963TIP3   OH217845   1.314   1.051   5.880  0.3842  0.4818  0.2873
 5963TIP3    H117846   1.283   1.126   5.932  0.2612  0.1589  0.6827
 5963TIP3    H217847   1.408   1.049   5.896  0.2489 -0.0281  1.0409
 5964TIP3   OH217848   5.800   2.333   0.693  0.0224  0.3560  0.2190
 5964TIP3    H117849   5.707   2.347   0.708  0.0168 -0.1517  0.7282
 5964TIP3    H217850   5.828   2.406   0.638 -0.7279  0.3720 -0.1421
 5965TIP3   OH217851   2.280   5.897   2.954  0.3198 -0.5855 -0.2006
 5965TIP3    H117852   2.374   5.915   2.952  0.2022  0.1629 -2.9515
 5965TIP3    H217853   2.267   5.848   3.035  2.7798  0.7558  1.1295
 5966TIP3   OH217854   4.407   2.519   3.126  0.6378 -0.0100  0.2171
 5966TIP3    H117855   4.355   2.528   3.207  0.2854 -1.0315  0.1216
 5966TIP3    H217856   4.473   2.588   3.132 -0.0349  0.5966  0.8833
 5967TIP3   OH217857   2.156   7.698   0.905  0.1767 -0.1002  0.0648
 5967TIP3    H117858   2.094   7.719   0.835  0.3857 -0.2745 -0.1774
 5967TIP3    H217859   2.120   7.740   0.983 -0.1375 -0.0284 -0.1168
 5968TIP3   OH217860   2.823   2.359   4.642  0.4329  0.3374 -0.5876
 5968TIP3    H117861   2.863   2.272   4.632 -0.8429 -0.3273 -0.0938
 5968TIP3    H217862   2.800   2.385   4.553 -0.5347 -0.5083 -0.6004
 5969TIP3   OH217863   1.201   2.363   1.934  0.4260  0.1756 -0.2391
 5969TIP3    H117864   1.278   2.382   1.988 -0.2843 -1.2164  1.3595
 5969TIP3    H217865   1.128   2.362   1.996 -0.6262 -0.2295 -1.4384
 5970TIP3   OH217866   2.378   2.730   1.135  0.2052 -0.5899  0.8121
 5970TIP3    H117867   2.366   2.811   1.184 -0.0627  0.1207 -0.3844
 5970TIP3    H217868   2.319   2.739   1.060  1.0764 -1.3520  0.0120
 5971TIP3   OH217869   0.471   3.883   3.225 -0.4190 -0.9048  0.2285
 5971TIP3    H117870   0.506   3.865   3.313 -1.7412 -1.6915  0.6162
 5971TIP3    H217871   0.421   3.805   3.203 -1.5995  0.0270 -0.4804
 5972TIP3   OH217872   6.880   5.709   1.746  0.2116 -0.2481  0.0440
 5972TIP3    H117873   6.906   5.698   1.838 -0.0413  1.4891  0.3601
 5972TIP3    H217874   6.940   5.776   1.712  0.9832 -1.5991 -1.3825
 5973TIP3   OH217875   8.210   5.333   6.016 -0.8378  0.6835  0.2097
 5973TIP3    H117876   8.180   5.399   5.953 -2.0989 -1.0176 -1.0737
 5973TIP3    H217877   8.240   5.260   5.962  1.3947  0.5031  1.5742
 5974TIP3   OH217878   4.003   2.382   4.464  0.2196  0.6971 -0.5964
 5974TIP3    H117879   4.072   2.374   4.399  0.8828 -0.9360  0.2291
 5974TIP3    H217880   3.978   2.291   4.483 -0.8128  1.1828  0.5105
 5975TIP3   OH217881   7.284   5.143   1.497 -0.2157  0.1709  0.1837
 5975TIP3    H117882   7.309   5.051   1.509  0.6276  0.6538  2.6149
 5975TIP3    H217883   7.339   5.174   1.426  0.7012 -0.7700  0.4613
 5976TIP3   OH217884   6.418   5.154   1.575  0.1959 -0.4514  0.4266
 5976TIP3    H117885   6.363   5.113   1.508  0.1979  0.6301 -0.2686
 5976TIP3    H217886   6.362   5.157   1.652  0.0828 -1.4264  0.4018
 5977TIP3   OH217887   3.651   2.069   3.460  0.4829  0.1584 -0.0064
 5977TIP3    H117888   3.710   2.102   3.528 -2.1897  0.5420  2.3056
 5977TIP3    H217889   3.585   2.020   3.508 -1.2028 -0.0988 -2.4363
 5978TIP3   OH217890   6.131   0.067   2.871 -0.4513 -0.0281 -0.0342
 5978TIP3    H117891   6.071   0.136   2.897 -0.1842  0.4514 -0.6852
 5978TIP3    H217892   6.081  -0.014   2.884 -1.2203  0.3575 -0.5202
 5979TIP3   OH217893   8.154   2.454   6.566  0.1348  0.5612  0.6539
 5979TIP3    H117894   8.066   2.481   6.591 -0.0724  0.2680  0.2603
 5979TIP3    H217895   8.160   2.475   6.473  0.8106  1.4177  0.8854
 5980TIP3   OH217896   0.727   2.230   3.245  0.2724  0.2576 -0.0758
 5980TIP3    H117897   0.793   2.165   3.269 -0.8083 -1.7177 -2.1354
 5980TIP3    H217898   0.777   2.298   3.199  1.1372 -0.2337  0.1051
 5981TIP3   OH217899   2.668   7.419   6.187  0.4856  0.3471  0.2801
 5981TIP3    H117900   2.647   7.447   6.099 -1.0842 -1.1021  0.1443
 5981TIP3    H217901   2.587   7.381   6.221  1.5528 -0.8628  1.6412
 5982TIP3   OH217902   3.895   6.449   1.288 -0.3479  0.1300 -0.5632
 5982TIP3    H117903   3.965   6.410   1.340 -0.1752  0.2993 -0.6678
 5982TIP3    H217904   3.935   6.467   1.203  0.3783  3.0201  0.2718
 5983TIP3   OH217905   1.723   1.707   4.814 -0.1399 -0.2062  0.3289
 5983TIP3    H117906   1.681   1.727   4.897  0.3065 -0.8525  0.7209
 5983TIP3    H217907   1.758   1.618   4.825  1.9855  0.5495  0.3118
 5984TIP3   OH217908   4.565   7.275   4.876  0.1205 -0.8988  0.1066
 5984TIP3    H117909   4.563   7.334   4.801 -1.4797  0.9756  1.5118
 5984TIP3    H217910   4.642   7.219   4.861  0.6586  0.3288 -2.1744
 5985TIP3   OH217911   5.668   0.163   5.915  0.3407  0.4332 -0.9630
 5985TIP3    H117912   5.700   0.167   6.005 -0.9703 -0.7467 -0.4226
 5985TIP3    H217913   5.739   0.120   5.866  0.7864  0.4925 -0.3708
 5986TIP3   OH217914   0.263   0.140   4.495 -0.7238 -0.1665  0.1955
 5986TIP3    H117915   0.243   0.059   4.449 -1.1025 -0.4277  0.8136
 5986TIP3    H217916   0.280   0.113   4.585 -0.5961  0.4113  0.3467
 5987TIP3   OH217917   6.147   1.159   0.035 -0.3439  0.2715  0.2379
 5987TIP3    H117918   6.192   1.113  -0.037 -4.1745 -0.7097 -1.8002
 5987TIP3    H217919   6.102   1.090   0.083  0.0991  1.2198  2.0996
 5988TIP3   OH217920   1.704   2.190   3.649  0.0779  0.6394 -0.3152
 5988TIP3    H117921   1.671   2.277   3.671 -0.4846  0.9923 -2.3801
 5988TIP3    H217922   1.797   2.194   3.671 -0.4531  0.7505  2.3432
 5989TIP3   OH217923   5.534   5.195   0.190 -0.4078 -0.8896  0.2684
 5989TIP3    H117924   5.554   5.116   0.240  1.4550 -0.2966  0.5200
 5989TIP3    H217925   5.599   5.195   0.120 -0.4848  0.3518  0.1897
 5990TIP3   OH217926   6.924   3.449   3.391  0.4880 -0.7445  0.4361
 5990TIP3    H117927   6.927   3.384   3.320 -0.4686  0.6793 -0.9673
 5990TIP3    H217928   7.011   3.489   3.389 -0.4257  1.3995 -2.0944
 5991TIP3   OH217929   1.522   1.696   0.882  0.1754  0.5336  0.2206
 5991TIP3    H117930   1.600   1.724   0.834 -1.1470  2.0558 -1.1335
 5991TIP3    H217931   1.531   1.736   0.969  1.6381 -0.6439  0.6675
 5992TIP3   OH217932   7.091   2.588   0.460  0.6856  0.0434  0.2915
 5992TIP3    H117933   7.051   2.674   0.445  1.8913  0.4206 -0.8963
 5992TIP3    H217934   7.088   2.545   0.375  0.3323 -1.0102  0.8168
 5993TIP3   OH217935   0.001   1.264   2.887 -0.2676 -0.2984 -0.1634
 5993TIP3    H117936  -0.026   1.312   2.965  1.7174 -0.9897  1.0313
 5993TIP3    H217937   0.038   1.332   2.829  2.5777 -0.2153  1.5383
 5994TIP3   OH217938   2.942   1.527   0.765 -0.4344 -0.0855  0.4087
 5994TIP3    H117939   2.958   1.547   0.857 -0.0529  0.9725  0.1279
 5994TIP3    H217940   3.029   1.507   0.729 -0.4126  0.6749  0.0210
 5995TIP3   OH217941   4.487   2.254   5.380  0.0308 -0.1019  0.0471
 5995TIP3    H117942   4.574   2.215   5.381 -0.2841 -0.8358 -0.4515
 5995TIP3    H217943   4.490   2.321   5.312  1.2696  2.4635  2.4173
 5996TIP3   OH217944   7.627   4.083   4.484 -0.3111  0.1655 -0.3234
 5996TIP3    H117945   7.543   4.125   4.468  0.4662  1.2430 -1.8409
 5996TIP3    H217946   7.658   4.057   4.397  0.7447 -0.5599  0.2506
 5997TIP3   OH217947   3.479   1.548   3.664 -0.3546  0.0227 -0.1788
 5997TIP3    H117948   3.520   1.615   3.608 -0.6339 -0.7159 -1.3072
 5997TIP3    H217949   3.385   1.566   3.657 -0.3539  0.3704  0.6478
 5998TIP3   OH217950   5.251   5.706   4.294  0.1026 -0.7079 -0.2192
 5998TIP3    H117951   5.223   5.704   4.202  0.2802  1.2059 -0.3683
 5998TIP3    H217952   5.182   5.660   4.341 -1.0453  0.0358 -1.1043
 5999TIP3   OH217953   6.121   7.613   1.558 -0.8633 -0.2780 -0.1761
 5999TIP3    H117954   6.134   7.701   1.593 -0.3836 -0.6227  0.5363
 5999TIP3    H217955   6.049   7.577   1.610 -0.2578 -0.7331  0.3602
 6000TIP3   OH217956   1.357   1.631   3.359 -0.1175 -0.3158 -0.6587
 6000TIP3    H117957   1.443   1.604   3.325  0.6150 -0.6781  1.3320
 6000TIP3    H217958   1.366   1.724   3.376  0.7797 -0.7545  1.7687
 6001TIP3   OH217959   3.379   7.465   1.701  0.5443 -0.7731 -0.1204
 6001TIP3    H117960   3.409   7.555   1.716  2.5427 -1.5347  0.7316
 6001TIP3    H217961   3.309   7.452   1.765  0.3477  0.1043 -0.1434
 6002TIP3   OH217962   0.531   7.624   6.407 -0.1513 -0.1828  0.0302
 6002TIP3    H117963   0.450   7.621   6.460 -0.5471 -0.3346 -0.5721
 6002TIP3    H217964   0.500   7.631   6.317  0.5181 -0.1258 -0.1977
 6003TIP3   OH217965   0.926   3.110   0.922 -0.1658 -0.4495  0.1099
 6003TIP3    H117966   0.831   3.102   0.910 -0.3584 -0.5033  1.4911
 6003TIP3    H217967   0.953   3.176   0.858 -1.1501 -0.3611 -0.2329
 6004TIP3   OH217968   0.147   2.714   5.100 -0.0177 -0.2384 -0.2098
 6004TIP3    H117969   0.229   2.754   5.125 -0.7584  0.3479  1.4311
 6004TIP3    H217970   0.100   2.782   5.053 -0.2521  0.0085  0.3713
 6005TIP3   OH217971   0.694   3.690   5.310  0.8111  0.8344 -0.4738
 6005TIP3    H117972   0.675   3.765   5.366  1.0275 -0.3521  1.2676
 6005TIP3    H217973   0.653   3.615   5.355 -0.6533  0.0770 -2.8818
 6006TIP3   OH217974   4.563   1.328   4.505  0.2748 -0.7231 -0.4988
 6006TIP3    H117975   4.528   1.257   4.451  2.4073 -0.6553 -2.0864
 6006TIP3    H217976   4.550   1.297   4.595 -2.8284 -1.1065 -0.9690
 6007TIP3   OH217977   7.718   0.509   1.967 -0.5711  0.2337  0.1817
 6007TIP3    H117978   7.650   0.444   1.951 -0.2962  0.2887 -1.3814
 6007TIP3    H217979   7.777   0.501   1.893 -0.5388  2.2823 -0.0894
 6008TIP3   OH217980   1.702   5.011   6.543  0.0746  0.0329  0.1867
 6008TIP3    H117981   1.655   4.946   6.490 -0.3234  0.4296  0.0495
 6008TIP3    H217982   1.703   4.973   6.631 -1.0247  0.2878  0.3167
 6009TIP3   OH217983   1.872   0.972   5.535 -0.1981 -0.2048  0.0173
 6009TIP3    H117984   1.877   1.039   5.467  0.5331  0.3277  0.5831
 6009TIP3    H217985   1.782   0.978   5.568 -0.3340  0.0333 -0.3974
 6010TIP3   OH217986   1.245   3.839   1.446  0.1742  0.6193  0.6430
 6010TIP3    H117987   1.339   3.824   1.443  0.2402  1.0638  0.3480
 6010TIP3    H217988   1.235   3.934   1.436 -0.3155  0.5418  0.3514
 6011TIP3   OH217989   7.444   7.114   2.855 -0.1282 -0.1035  0.1635
 6011TIP3    H117990   7.505   7.188   2.860 -0.2777  0.0945 -0.7074
 6011TIP3    H217991   7.359   7.152   2.879 -0.2891  0.1251 -0.7403
 6012TIP3   OH217992   4.498   0.489   3.327  0.0433 -0.2614 -0.4503
 6012TIP3    H117993   4.411   0.516   3.355  0.4192  1.1804 -0.6021
 6012TIP3    H217994   4.543   0.465   3.408 -0.8744 -2.3478 -0.4767
 6013TIP3   OH217995   6.927   6.859   2.611  0.1980 -0.6036  0.1070
 6013TIP3    H117996   6.833   6.860   2.629  0.5968 -0.2797  2.5822
 6013TIP3    H217997   6.947   6.950   2.589 -0.2167 -0.9044 -1.6923
 6014TIP3   OH217998   8.058   1.120   3.657  0.1479 -0.1847 -0.6075
 6014TIP3    H117999   7.964   1.101   3.663 -0.4539  2.3905 -0.6516
 6014TIP3    H218000   8.066   1.177   3.580  1.7683 -0.3384 -0.5920
 6015TIP3   OH218001   0.552   1.523   4.053 -0.3171 -0.0636 -0.2693
 6015TIP3    H118002   0.638   1.489   4.030  0.0872  0.7968 -0.0301
 6015TIP3    H218003   0.522   1.466   4.124  0.8909  0.8081  0.9948
 6016TIP3   OH218004   1.596   6.925   1.946  0.0657  0.3234  0.2027
 6016TIP3    H118005   1.567   6.935   2.037 -0.9300  1.0463 -0.1705
 6016TIP3    H218006   1.649   7.003   1.929  1.3192 -0.4299  0.5274
 6017TIP3   OH218007   7.331   0.931   0.667  0.1735  0.0057 -0.4833
 6017TIP3    H118008   7.272   0.994   0.707 -1.0495 -1.8918  0.8712
 6017TIP3    H218009   7.403   0.922   0.730 -0.5849 -1.2556  0.2508
 6018TIP3   OH218010   7.614   3.599   0.078 -0.4161  0.0663 -0.0992
 6018TIP3    H118011   7.560   3.678   0.078 -1.2405 -0.4413 -2.1146
 6018TIP3    H218012   7.645   3.590  -0.012  1.2331 -0.8891  0.5118
 6019TIP3   OH218013   6.448   7.521   2.251  0.2378  0.2787  0.0623
 6019TIP3    H118014   6.389   7.572   2.196  0.9485  1.6972  0.5342
 6019TIP3    H218015   6.457   7.437   2.207  0.1710  1.0902 -1.5739
 6020TIP3   OH218016   3.821   5.318   3.039 -0.1994 -0.5053  0.3762
 6020TIP3    H118017   3.915   5.336   3.041  0.1583 -2.1285 -0.0320
 6020TIP3    H218018   3.789   5.345   3.125  0.1109  2.4587 -0.3277
 6021TIP3   OH218019   1.016   2.304   5.749 -0.0451 -0.2526  0.2291
 6021TIP3    H118020   1.088   2.304   5.813  0.7684 -2.1107 -0.5967
 6021TIP3    H218021   1.003   2.211   5.729 -0.7034  0.2402 -1.8256
 6022TIP3   OH218022   4.563   6.718   6.082  0.0425  0.4912  0.2397
 6022TIP3    H118023   4.552   6.813   6.087  0.1863  0.6057 -1.2700
 6022TIP3    H218024   4.480   6.683   6.115 -0.7623  1.1837 -0.9820
 6023TIP3   OH218025   2.983   1.733   6.781 -0.1660 -0.0137 -0.6076
 6023TIP3    H118026   2.985   1.718   6.687 -0.8652  1.0718 -0.8097
 6023TIP3    H218027   3.070   1.707   6.811 -0.2634 -1.3051 -1.3917
 6024TIP3   OH218028   4.354   1.523   2.367 -0.0104 -0.3921 -0.0463
 6024TIP3    H118029   4.393   1.466   2.433 -1.1733 -0.8056  0.3034
 6024TIP3    H218030   4.327   1.601   2.415 -0.1176 -0.3439 -0.1824
 6025TIP3   OH218031   8.105   3.159   5.384  0.1801  0.9986  0.1570
 6025TIP3    H118032   8.016   3.177   5.416 -0.4665  2.0816 -2.0437
 6025TIP3    H218033   8.160   3.166   5.462 -1.4439  2.1071  1.2818
 6026TIP3   OH218034   4.488   3.823   0.760 -0.6740 -0.1756 -0.1695
 6026TIP3    H118035   4.401   3.799   0.790 -0.3375 -0.5878  0.5027
 6026TIP3    H218036   4.521   3.884   0.826 -0.5122  0.1009 -0.5028
 6027TIP3   OH218037   5.162   3.563   3.478  0.3945 -0.0382  0.7392
 6027TIP3    H118038   5.112   3.556   3.560 -1.4379  1.0231 -0.2303
 6027TIP3    H218039   5.150   3.654   3.451  1.5377 -0.2061 -0.3853
 6028TIP3   OH218040   0.524   7.241   6.332 -0.3296  0.2520 -0.0960
 6028TIP3    H118041   0.603   7.294   6.341 -1.1380  1.1994  2.6088
 6028TIP3    H218042   0.452   7.303   6.343 -1.3923 -0.9137 -0.2192
 6029TIP3   OH218043   4.274   1.929   0.352 -0.0854 -0.9208  0.1314
 6029TIP3    H118044   4.322   1.846   0.360  1.2071 -0.1769  0.3917
 6029TIP3    H218045   4.330   1.983   0.296 -0.8038 -0.1317  0.1621
 6030TIP3   OH218046   0.897   3.594   1.509 -0.1163  0.5803 -0.7628
 6030TIP3    H118047   0.965   3.530   1.488 -1.0262  0.0021 -2.0634
 6030TIP3    H218048   0.928   3.676   1.471 -0.1320  0.3230 -1.3369
 6031TIP3   OH218049   3.675   2.798   1.559  0.0146  0.3719 -0.1058
 6031TIP3    H118050   3.732   2.729   1.524 -0.2149 -0.1448  0.5195
 6031TIP3    H218051   3.620   2.824   1.485 -0.8152 -1.0695 -0.0336
 6032TIP3   OH218052   4.173   4.840   5.634 -0.3874  0.6694  0.0215
 6032TIP3    H118053   4.077   4.840   5.624 -0.4839  0.3935  0.8276
 6032TIP3    H218054   4.195   4.932   5.649 -0.2120  1.1275 -2.6512
 6033TIP3   OH218055   1.234   1.137   4.362  0.1118  0.9826 -0.2024
 6033TIP3    H118056   1.267   1.216   4.406 -1.6050  1.2517  0.7116
 6033TIP3    H218057   1.163   1.106   4.419  0.5982 -1.1210 -0.6518
 6034TIP3   OH218058   4.225   2.117   4.790 -0.0762  0.3819 -0.0457
 6034TIP3    H118059   4.136   2.147   4.807 -1.0344 -1.9272 -0.5702
 6034TIP3    H218060   4.270   2.193   4.755 -2.1899  1.3193 -0.9069
 6035TIP3   OH218061   4.497   3.013   4.253 -0.1030 -0.2075  0.1335
 6035TIP3    H118062   4.553   3.091   4.250 -0.2778 -0.0935 -1.6319
 6035TIP3    H218063   4.535   2.954   4.188 -2.4397  0.2243 -1.7882
 6036TIP3   OH218064   6.870   3.685   1.284  0.1428  0.5331  0.5589
 6036TIP3    H118065   6.829   3.700   1.370 -0.2749 -0.8548  0.6242
 6036TIP3    H218066   6.956   3.726   1.292 -0.0800  0.8595  1.4739
 6037TIP3   OH218067   6.388   1.784   3.733 -0.5599 -0.3275  0.2831
 6037TIP3    H118068   6.358   1.707   3.684 -1.9766 -0.4940  1.3450
 6037TIP3    H218069   6.459   1.820   3.680 -2.9324  0.3448 -2.6819
 6038TIP3   OH218070   0.027   5.192   1.217  0.2685 -0.8231  0.4933
 6038TIP3    H118071   0.039   5.245   1.296  1.4225  1.0329 -0.8494
 6038TIP3    H218072   0.086   5.118   1.229  1.2215 -0.0182  0.9350
 6039TIP3   OH218073   6.664   4.746   3.080 -0.5678 -0.3940 -0.0499
 6039TIP3    H118074   6.672   4.785   2.993 -0.6030 -1.8056 -0.7078
 6039TIP3    H218075   6.570   4.737   3.093 -0.6743  1.8484  1.1008
 6040TIP3   OH218076   4.948   2.782   3.880 -0.1553  0.2425  0.5889
 6040TIP3    H118077   5.028   2.745   3.918  1.1213  2.1495 -0.1198
 6040TIP3    H218078   4.977   2.863   3.838 -2.2323  0.2378 -0.9531
 6041TIP3   OH218079   5.780   4.179   1.177 -0.1777 -0.8202 -0.1221
 6041TIP3    H118080   5.692   4.144   1.167 -0.2513 -0.9579  0.8972
 6041TIP3    H218081   5.774   4.269   1.144 -0.6120 -0.9326 -0.3542
 6042TIP3   OH218082   3.330   2.846   3.499 -0.2444 -0.0494  0.4385
 6042TIP3    H118083   3.406   2.875   3.449 -0.2047  0.8934  1.0149
 6042TIP3    H218084   3.317   2.755   3.473  0.6962 -0.0294 -0.1367
 6043TIP3   OH218085   5.371   2.209   0.907  0.0416  0.5816 -0.2451
 6043TIP3    H118086   5.434   2.142   0.932  0.1688 -0.1050 -2.2799
 6043TIP3    H218087   5.321   2.226   0.988  2.1921  0.5199  1.1858
 6044TIP3   OH218088   5.748   5.647   0.411  0.1429  0.2971 -0.2095
 6044TIP3    H118089   5.805   5.683   0.479  0.3664  1.0543 -0.7790
 6044TIP3    H218090   5.796   5.571   0.377  0.3468  0.3290  0.0042
 6045TIP3   OH218091   5.111   5.177   5.454  0.2464  0.4067 -0.1451
 6045TIP3    H118092   5.095   5.100   5.508 -0.9144  1.4660  1.0936
 6045TIP3    H218093   5.063   5.159   5.373 -0.9589  0.2746  0.5704
 6046TIP3   OH218094   4.793   0.132   4.744 -0.4467  0.3277  0.3985
 6046TIP3    H118095   4.866   0.194   4.742  0.6181 -0.8631  0.9778
 6046TIP3    H218096   4.759   0.137   4.833  0.0392 -0.3532  0.6280
 6047TIP3   OH218097   0.482   2.062   1.668 -0.1261  0.1389 -0.2778
 6047TIP3    H118098   0.438   2.145   1.647 -0.5719  0.0519  0.2784
 6047TIP3    H218099   0.424   2.020   1.731  0.6176 -0.1134  0.2556
 6048TIP3   OH218100   2.573   5.875   2.425 -0.2304  0.3772  0.4290
 6048TIP3    H118101   2.553   5.968   2.425  0.2969  0.4969 -0.0374
 6048TIP3    H218102   2.644   5.865   2.361  0.0919 -0.2573  0.8604
 6049TIP3   OH218103   2.337   3.651   1.508 -0.4107  0.0188  0.1654
 6049TIP3    H118104   2.300   3.732   1.473 -1.6847  0.1509  1.6946
 6049TIP3    H218105   2.428   3.673   1.527 -0.6265  0.9654  0.1657
 6050TIP3   OH218106   6.476   5.461   5.876 -0.9002 -0.1483 -0.3045
 6050TIP3    H118107   6.571   5.459   5.873 -0.9273 -1.8299 -1.4200
 6050TIP3    H218108   6.455   5.540   5.927  1.0510  0.7110 -0.7403
 6051TIP3   OH218109   2.272   7.447   4.540  0.0908  0.1449 -0.4000
 6051TIP3    H118110   2.218   7.526   4.546  0.5865  0.3960  1.6148
 6051TIP3    H218111   2.286   7.421   4.631  1.3663 -1.2869 -0.9640
 6052TIP3   OH218112   2.228   0.960   3.405  0.2890 -0.5958  0.3988
 6052TIP3    H118113   2.267   0.985   3.489  2.1326  1.0593 -0.8535
 6052TIP3    H218114   2.264   0.874   3.386  1.2577 -0.2320  0.5283
 6053TIP3   OH218115   6.136   5.180   0.796  0.3103  0.4592 -0.1322
 6053TIP3    H118116   6.128   5.275   0.806 -0.8719  0.3191  0.4274
 6053TIP3    H218117   6.052   5.153   0.760  1.2500 -0.1891 -1.9766
 6054TIP3   OH218118   2.570   7.356   2.493 -0.1235  0.3956  0.1388
 6054TIP3    H118119   2.637   7.383   2.430  0.3920 -0.1466  0.4462
 6054TIP3    H218120   2.545   7.267   2.465 -2.1910  1.3071 -1.1883
 6055TIP3   OH218121   7.353   2.784   2.915  0.3102 -0.0899  0.7119
 6055TIP3    H118122   7.394   2.822   2.993  0.7015 -1.1700  1.0511
 6055TIP3    H218123   7.372   2.847   2.845  3.2325 -0.8566  0.6749
 6056TIP3   OH218124   4.356   3.656   1.516  0.2627 -0.2285  0.2554
 6056TIP3    H118125   4.296   3.723   1.548 -1.1418 -1.7646  0.9974
 6056TIP3    H218126   4.427   3.654   1.581  0.1532  0.3006  0.3959
 6057TIP3   OH218127   3.221   4.928   0.050  0.3165 -0.0534  0.2798
 6057TIP3    H118128   3.266   4.844   0.040 -0.0773 -0.0336 -2.2993
 6057TIP3    H218129   3.128   4.906   0.047  0.1638  0.5760 -2.8349
 6058TIP3   OH218130   3.043   2.026   2.808 -0.9946 -0.5353 -0.2741
 6058TIP3    H118131   2.993   2.080   2.747 -0.9211 -1.6028 -1.3104
 6058TIP3    H218132   3.099   1.971   2.752 -0.6925 -1.3220  0.7609
 6059TIP3   OH218133   4.469   0.205   0.512  0.1738  0.5455  0.3736
 6059TIP3    H118134   4.472   0.170   0.601 -1.1240 -2.2056 -0.5567
 6059TIP3    H218135   4.376   0.208   0.490  0.5012  0.0700 -1.2636
 6060TIP3   OH218136   1.264   0.716   5.013  0.3874  0.1599 -0.0438
 6060TIP3    H118137   1.205   0.692   4.942  0.2528 -1.7160  0.6421
 6060TIP3    H218138   1.207   0.754   5.080  0.4990  1.8086 -0.8308
 6061TIP3   OH218139   3.592   4.121   1.325 -0.0797 -0.8743  0.1626
 6061TIP3    H118140   3.602   4.212   1.296 -0.1919  0.6486  4.3016
 6061TIP3    H218141   3.497   4.108   1.330 -0.1114 -1.9113 -2.0258
 6062TIP3   OH218142   5.590   4.048   3.755  0.1081 -0.0689 -0.8604
 6062TIP3    H118143   5.682   4.076   3.755 -0.1349  0.8583  1.0400
 6062TIP3    H218144   5.552   4.091   3.678  1.5192 -1.5338 -2.4700
 6063TIP3   OH218145   5.146   2.390   2.935 -0.0061  0.5356 -0.5792
 6063TIP3    H118146   5.227   2.367   2.980  0.4283  0.1161 -1.5465
 6063TIP3    H218147   5.175   2.429   2.852 -0.7140 -2.8320 -2.6044
 6064TIP3   OH218148   0.985   1.581   6.317 -0.2406  0.1890 -0.3924
 6064TIP3    H118149   1.000   1.673   6.298 -0.2190  0.0056 -1.3332
 6064TIP3    H218150   0.992   1.537   6.232 -1.2769 -0.5397 -0.1333
 6065TIP3   OH218151   1.425   1.458   1.019 -0.0409  0.0236 -0.0355
 6065TIP3    H118152   1.472   1.510   0.955 -1.9341  0.5600 -1.0627
 6065TIP3    H218153   1.413   1.373   0.977 -0.8651  0.2237 -0.2285
 6066TIP3   OH218154   3.526   4.192   4.192  0.2076  0.2471 -0.7127
 6066TIP3    H118155   3.485   4.275   4.168 -0.0815  0.4871  0.5309
 6066TIP3    H218156   3.556   4.155   4.109 -1.2068  0.7613 -1.4932
 6067TIP3   OH218157   5.184   3.210   0.844  0.0536  0.4304  0.1544
 6067TIP3    H118158   5.184   3.114   0.833  0.3780  0.2735  1.4106
 6067TIP3    H218159   5.113   3.227   0.905  1.3610  0.7411  1.6820
 6068TIP3   OH218160   4.265   4.275   6.394  0.3536  0.4529 -0.5691
 6068TIP3    H118161   4.343   4.312   6.435 -0.1856  1.0978 -0.0824
 6068TIP3    H218162   4.286   4.270   6.301  0.5951  1.6386 -0.6019
 6069TIP3   OH218163   0.302   3.011   0.639  0.3910  0.4332 -0.1260
 6069TIP3    H118164   0.398   3.020   0.637  0.3966  0.2882 -0.5516
 6069TIP3    H218165   0.287   2.917   0.635  0.2592  0.3512  1.4583
 6070TIP3   OH218166   2.348   3.748   5.944 -0.7545 -0.0310  0.4465
 6070TIP3    H118167   2.326   3.773   6.033 -0.1183 -1.5271  1.0620
 6070TIP3    H218168   2.282   3.682   5.920 -0.4760 -0.1910  0.1014
 6071TIP3   OH218169   0.995   2.647   2.070  0.1345  0.2297  0.2036
 6071TIP3    H118170   0.922   2.701   2.101 -0.9294 -1.6929  1.2738
 6071TIP3    H218171   1.003   2.578   2.135  2.7763  0.1933 -0.0376
 6072TIP3   OH218172   6.844   2.001   2.483 -0.2833 -0.5249 -0.3615
 6072TIP3    H118173   6.752   1.998   2.508  0.1708  2.1626  2.1236
 6072TIP3    H218174   6.844   1.991   2.388 -3.3630  1.6133 -0.7040
 6073TIP3   OH218175   5.780   4.816   4.480 -0.0661 -0.1964  0.8381
 6073TIP3    H118176   5.733   4.850   4.404  0.0475 -0.9645  0.4117
 6073TIP3    H218177   5.747   4.726   4.490  2.4028 -1.3362 -0.4469
 6074TIP3   OH218178   0.669   4.053   5.300  0.7856 -0.7029  0.1436
 6074TIP3    H118179   0.688   4.137   5.343  2.3787 -0.5339 -0.7991
 6074TIP3    H218180   0.610   4.075   5.228  1.6360 -0.2797 -0.4399
 6075TIP3   OH218181   3.957   0.238   2.563 -0.2505 -0.6507  0.8120
 6075TIP3    H118182   3.898   0.247   2.637  0.2996 -1.6083  1.3734
 6075TIP3    H218183   3.915   0.289   2.493 -0.0936  1.4358  2.1501
 6076TIP3   OH218184   1.379   3.224   0.958 -0.0669  0.6490 -0.3993
 6076TIP3    H118185   1.420   3.160   1.016  0.3051 -0.1984 -1.5596
 6076TIP3    H218186   1.449   3.251   0.899 -1.0457 -0.5697 -2.1998
 6077TIP3   OH218187   7.387   4.429   2.476 -0.0978 -0.2329 -0.1300
 6077TIP3    H118188   7.422   4.452   2.562  2.5530 -0.2765 -1.1038
 6077TIP3    H218189   7.347   4.510   2.444  0.8411  0.4096  0.2705
 6078TIP3   OH218190   7.583   5.108   1.050  0.7581  0.0680  0.2648
 6078TIP3    H118191   7.620   5.189   1.085  0.0112 -0.1870  1.7083
 6078TIP3    H218192   7.640   5.039   1.083  2.3484  0.0539 -2.2753
 6079TIP3   OH218193   6.691   4.730   5.054 -0.1669 -0.7319 -0.2091
 6079TIP3    H118194   6.667   4.822   5.054  0.2578 -0.4757  3.3504
 6079TIP3    H218195   6.618   4.686   5.097  0.3086 -1.8145 -0.4698
 6080TIP3   OH218196   0.175   6.528   2.931 -0.5002  0.1360 -0.0406
 6080TIP3    H118197   0.212   6.604   2.976 -0.9400 -0.4520  1.3920
 6080TIP3    H218198   0.120   6.486   2.997  0.8355 -2.2274 -0.3093
 6081TIP3   OH218199   0.904   5.868   1.839 -0.1511  0.6362  0.6165
 6081TIP3    H118200   0.815   5.888   1.811  0.5453  3.0009 -0.1218
 6081TIP3    H218201   0.959   5.902   1.769  1.3669 -0.6037  1.1485
 6082TIP3   OH218202   2.012   2.076   0.612 -0.7375  0.2360  0.1236
 6082TIP3    H118203   1.948   2.108   0.549 -0.1468 -1.4088 -1.3750
 6082TIP3    H218204   2.071   2.021   0.561 -0.1742 -1.0985  2.1045
 6083TIP3   OH218205   7.710   2.308   3.311  0.1090 -0.0521  0.0045
 6083TIP3    H118206   7.786   2.289   3.365 -0.8563 -1.3348  0.9835
 6083TIP3    H218207   7.637   2.315   3.373 -1.2803 -2.8815 -1.1104
 6084TIP3   OH218208   0.091   3.921   6.391  0.3157 -0.0771 -0.1467
 6084TIP3    H118209   0.186   3.924   6.403  0.2867  1.5573 -0.1865
 6084TIP3    H218210   0.074   3.980   6.318 -0.7859  0.1105  0.2387
 6085TIP3   OH218211   6.014   0.183   6.265  0.1648 -0.3247 -0.2968
 6085TIP3    H118212   5.928   0.206   6.231 -0.2879 -1.4264  0.0647
 6085TIP3    H218213   6.057   0.136   6.194  1.4263  2.2288 -1.3545
 6086TIP3   OH218214   3.474   2.930   5.238  0.5967 -0.1547 -0.4697
 6086TIP3    H118215   3.438   2.869   5.173 -0.0054  1.3251 -1.5605
 6086TIP3    H218216   3.512   3.001   5.186  1.5202  0.2944  0.7742
 6087TIP3   OH218217   2.099   5.503   2.970  0.3394 -0.2397 -0.4325
 6087TIP3    H118218   2.068   5.572   2.911  0.6490 -2.1746 -2.9888
 6087TIP3    H218219   2.194   5.511   2.970  0.2857  1.1092  1.6367
 6088TIP3   OH218220   6.014   4.632   3.023  0.2371  0.7601  0.2315
 6088TIP3    H118221   5.947   4.566   3.003  2.2874 -1.0145 -1.2484
 6088TIP3    H218222   5.965   4.711   3.042 -2.3417 -0.9648  1.2945
 6089TIP3   OH218223   2.739   6.626   2.548 -0.4779  0.0727 -0.2619
 6089TIP3    H118224   2.822   6.664   2.577 -0.6972  0.2268  0.1746
 6089TIP3    H218225   2.672   6.686   2.580 -0.8432 -0.7720  0.6078
 6090TIP3   OH218226   5.116   2.035   5.752  0.0711 -0.1062 -0.0416
 6090TIP3    H118227   5.066   2.103   5.708  1.4484  0.3317 -0.9780
 6090TIP3    H218228   5.146   1.978   5.682  1.2350 -0.1227  0.4466
 6091TIP3   OH218229   8.041   5.468   3.682 -0.8263 -0.0557 -0.1324
 6091TIP3    H118230   8.127   5.443   3.648 -1.1177 -0.9699 -0.2160
 6091TIP3    H218231   8.000   5.386   3.706 -1.0472  0.4866  1.4664
 6092TIP3   OH218232   2.146   6.102   2.503 -0.1222  0.5176  0.5132
 6092TIP3    H118233   2.132   6.083   2.596  0.5744 -0.9200  0.3437
 6092TIP3    H218234   2.126   6.020   2.458 -0.1805  1.1153 -0.5891
 6093TIP3   OH218235   3.746   7.073   2.733  0.0867 -0.2510 -0.1573
 6093TIP3    H118236   3.664   7.064   2.781 -1.7982  0.9167 -2.9098
 6093TIP3    H218237   3.737   7.156   2.686  1.5202 -1.5358 -2.9095
 6094TIP3   OH218238   1.557   0.636   6.272  0.3248 -0.3504 -0.5089
 6094TIP3    H118239   1.478   0.620   6.324  1.0199 -0.1501  0.6499
 6094TIP3    H218240   1.618   0.568   6.302  1.7449  1.5289  1.1228
 6095TIP3   OH218241   1.078   5.730   3.075  0.0025  0.1910 -0.4341
 6095TIP3    H118242   1.006   5.672   3.048  1.1754 -1.4572 -0.1673
 6095TIP3    H218243   1.052   5.816   3.042 -2.5918 -0.1062  0.5289
 6096TIP3   OH218244   6.303   7.425   6.303 -0.2206  0.0062 -0.0011
 6096TIP3    H118245   6.242   7.352   6.293  0.6764 -0.6134 -1.2320
 6096TIP3    H218246   6.389   7.385   6.294  0.2762  1.2479 -1.0076
 6097TIP3   OH218247   7.759   0.851   3.358 -0.2753  0.4972 -0.6696
 6097TIP3    H118248   7.833   0.912   3.366 -0.6884  1.0853 -1.2611
 6097TIP3    H218249   7.799   0.769   3.328  0.7259 -0.4861  2.8740
 6098TIP3   OH218250   3.131   0.944   5.959  0.9749 -0.1643 -0.1002
 6098TIP3    H118251   3.094   0.856   5.956  1.4989 -0.3724 -1.0339
 6098TIP3    H218252   3.226   0.930   5.958  1.0627  0.4035 -0.5417
 6099TIP3   OH218253   5.101   1.681   3.218 -0.2031  0.0656 -0.6457
 6099TIP3    H118254   5.074   1.656   3.130 -0.9479 -0.1043 -0.3763
 6099TIP3    H218255   5.173   1.622   3.240 -2.0414 -2.0040  0.0570
 6100TIP3   OH218256   2.073   4.029   6.605 -0.1801  0.3882 -0.0066
 6100TIP3    H118257   2.000   4.091   6.600 -0.1991  0.3086 -1.1819
 6100TIP3    H218258   2.037   3.952   6.650 -0.4357  0.8464  0.5788
 6101TIP3   OH218259   1.017   3.584   1.991  0.5404  0.0165 -0.1241
 6101TIP3    H118260   0.931   3.617   1.966  0.5124  0.9226  1.1153
 6101TIP3    H218261   1.060   3.566   1.907 -0.0703  1.6121 -0.8275
 6102TIP3   OH218262   6.144   4.474   2.281 -0.6581 -0.4838  0.2457
 6102TIP3    H118263   6.168   4.436   2.365  0.6224 -0.0267  0.1066
 6102TIP3    H218264   6.135   4.567   2.298 -0.4702 -0.3998 -0.1191
 6103TIP3   OH218265   5.213   5.058   1.428  0.1031 -0.0224  0.0855
 6103TIP3    H118266   5.206   5.056   1.333  0.1951  1.1158  0.0472
 6103TIP3    H218267   5.307   5.067   1.445  0.1072 -0.4179  0.2966
 6104TIP3   OH218268   2.333   1.295   3.969 -0.0943 -0.1580  0.0120
 6104TIP3    H118269   2.242   1.281   3.942  0.8087 -1.9213 -2.5355
 6104TIP3    H218270   2.342   1.246   4.050 -1.4217  0.0786  0.3179
 6105TIP3   OH218271   2.824   3.965   1.574  0.3119  0.2037 -0.3264
 6105TIP3    H118272   2.788   4.036   1.626  0.4207  2.1176 -2.6979
 6105TIP3    H218273   2.918   3.966   1.593  0.5572  1.7428 -1.4062
 6106TIP3   OH218274   7.547   4.617   3.083 -0.0685 -0.0396 -0.4372
 6106TIP3    H118275   7.517   4.583   2.999  0.7182 -1.4530 -0.1894
 6106TIP3    H218276   7.535   4.712   3.077  0.9484  0.0056 -2.5405
 6107TIP3   OH218277   5.717   6.319   2.205  0.4777  0.0521  0.3154
 6107TIP3    H118278   5.682   6.248   2.151  0.9748 -0.0770  0.1581
 6107TIP3    H218279   5.640   6.370   2.231 -0.1554 -1.7073  2.1653
 6108TIP3   OH218280   7.903   7.191   2.599  0.2163  0.0540  0.1237
 6108TIP3    H118281   7.866   7.186   2.511  1.0825  0.6322 -0.3013
 6108TIP3    H218282   7.888   7.282   2.626  0.0398 -0.0959  0.5336
 6109TIP3   OH218283   2.325   7.357   2.176  0.8214 -0.6828  0.5955
 6109TIP3    H118284   2.377   7.280   2.150  0.7902  0.0259 -1.8667
 6109TIP3    H218285   2.375   7.432   2.145 -0.3331  0.1571  0.6808
 6110TIP3   OH218286   5.325   2.264   5.210  0.1556 -0.0692  0.0729
 6110TIP3    H118287   5.380   2.217   5.147  1.2781  0.8363  0.3412
 6110TIP3    H218288   5.357   2.355   5.206  0.8055 -0.1340  2.4912
 6111TIP3   OH218289   8.073   4.754   1.324 -0.1105 -0.1039 -0.3667
 6111TIP3    H118290   7.993   4.739   1.273 -0.9609  0.4101  0.7558
 6111TIP3    H218291   8.060   4.841   1.363  0.3516 -0.6201  0.9793
 6112TIP3   OH218292   2.367   0.908   0.504 -0.4565 -0.2722 -0.0482
 6112TIP3    H118293   2.301   0.956   0.455 -0.3070  0.5238  0.5145
 6112TIP3    H218294   2.447   0.957   0.492 -0.5033  0.1930  1.3326
 6113TIP3   OH218295   2.032   2.941   3.917 -0.0796 -0.2922 -0.2580
 6113TIP3    H118296   1.944   2.920   3.950 -0.4703 -0.4348 -1.3681
 6113TIP3    H218297   2.088   2.932   3.994 -1.3823  2.4638  1.1762
 6114TIP3   OH218298   2.839   1.004   3.710 -0.4114 -0.7667 -0.2114
 6114TIP3    H118299   2.834   1.089   3.667  2.2375  0.0126  0.8476
 6114TIP3    H218300   2.748   0.972   3.710 -1.2318  1.2894 -2.0548
 6115TIP3   OH218301   2.801   4.875   5.006 -0.0540 -0.5980 -0.4607
 6115TIP3    H118302   2.888   4.907   4.982  0.2024 -1.2775 -0.4494
 6115TIP3    H218303   2.812   4.781   5.021 -0.7570 -0.6664 -0.2995
 6116TIP3   OH218304   4.926   1.322   6.285  0.4629 -0.1509  0.2152
 6116TIP3    H118305   4.946   1.403   6.333 -2.9129  0.4310  0.8442
 6116TIP3    H218306   4.955   1.339   6.196 -0.8472  2.1237  0.1542
 6117TIP3   OH218307   7.772   3.632   3.807  0.7147  0.0167 -0.0986
 6117TIP3    H118308   7.708   3.634   3.877 -0.6200 -1.5402 -1.2099
 6117TIP3    H218309   7.804   3.542   3.805 -0.0579 -0.2651 -2.1122
 6118TIP3   OH218310   7.561   1.535   4.134 -0.1986 -0.2810  0.0089
 6118TIP3    H118311   7.486   1.582   4.170 -1.5476 -2.0414 -0.3380
 6118TIP3    H218312   7.594   1.592   4.064 -0.4206  1.0804  0.9730
 6119TIP3   OH218313   4.931   4.058   1.685 -0.1671  0.1115 -0.1593
 6119TIP3    H118314   4.976   4.032   1.765  1.5929  0.4325 -1.0093
 6119TIP3    H218315   4.873   4.130   1.713 -0.0443 -0.1852  0.9206
 6120TIP3   OH218316   3.178   0.425   3.910 -0.0312  0.0278  0.6896
 6120TIP3    H118317   3.107   0.431   3.973 -1.5459  0.9951 -1.0153
 6120TIP3    H218318   3.196   0.331   3.903 -0.2666 -0.1310  2.0596
 6121TIP3   OH218319   7.899   3.270   4.577 -0.1920 -0.0174 -0.3764
 6121TIP3    H118320   7.857   3.270   4.492  0.8888 -1.4444 -0.9570
 6121TIP3    H218321   7.986   3.305   4.561  0.1774 -0.7137  0.0315
 6122TIP3   OH218322   1.314   3.318   3.680  0.0220  0.3902 -0.0852
 6122TIP3    H118323   1.311   3.412   3.700 -1.0880  0.6720 -1.4421
 6122TIP3    H218324   1.223   3.289   3.686  0.3230 -0.5528  0.0585
 6123TIP3   OH218325   5.148   7.294   5.903  0.0030  0.2537 -0.1250
 6123TIP3    H118326   5.099   7.235   5.846  0.7116  0.0362 -0.5131
 6123TIP3    H218327   5.109   7.282   5.989 -0.8742  0.3541 -0.4973
 6124TIP3   OH218328   7.927   2.516   6.715 -0.2178  0.1096  0.4298
 6124TIP3    H118329   7.917   2.607   6.685 -1.2846 -0.1109  0.0735
 6124TIP3    H218330   7.894   2.517   6.805 -3.0633 -0.4726 -0.5124
 6125TIP3   OH218331   4.438   3.862   3.236 -1.0197 -0.5855 -0.5728
 6125TIP3    H118332   4.413   3.913   3.159 -0.9507 -0.4303 -0.4938
 6125TIP3    H218333   4.408   3.915   3.310  0.9155  0.3753 -0.4107
 6126TIP3   OH218334   8.055   5.321   6.759 -0.3933 -0.5318  0.0953
 6126TIP3    H118335   8.038   5.382   6.831  0.3325 -0.9887  0.6630
 6126TIP3    H218336   7.996   5.350   6.689  1.4830  2.2864 -0.5120
 6127TIP3   OH218337   6.369   3.017   2.206  0.2275 -0.1318 -0.0974
 6127TIP3    H118338   6.355   3.097   2.257  0.8220 -2.1341  3.6040
 6127TIP3    H218339   6.451   3.032   2.159  1.2529  0.9082  1.8733
 6128TIP3   OH218340   1.897   1.178   0.170  0.2646  0.0702 -0.4745
 6128TIP3    H118341   1.950   1.256   0.187 -0.4313  0.5004 -0.2212
 6128TIP3    H218342   1.863   1.153   0.255  0.3867 -0.4512 -0.5731
 6129TIP3   OH218343   1.830   3.360   1.500 -0.0127  0.0819 -0.1579
 6129TIP3    H118344   1.821   3.288   1.562 -1.0212  0.1719 -0.1858
 6129TIP3    H218345   1.755   3.416   1.516  1.5391  1.9912  0.9188
 6130TIP3   OH218346   7.688   7.061   3.150 -0.1626  0.2055 -0.3595
 6130TIP3    H118347   7.704   7.056   3.056 -0.6222  0.9918 -0.4905
 6130TIP3    H218348   7.631   7.138   3.160  1.1116  1.0487  0.7175
 6131TIP3   OH218349   5.705   3.861   0.303  0.3543 -0.7994 -0.4152
 6131TIP3    H118350   5.683   3.777   0.343 -1.4414  0.4072  1.3384
 6131TIP3    H218351   5.621   3.901   0.284  1.1050  1.3743  0.5502
 6132TIP3   OH218352   2.022   2.159   3.151  0.0939  0.3897  0.5017
 6132TIP3    H118353   1.964   2.206   3.091  1.4132 -0.0196 -1.1582
 6132TIP3    H218354   2.095   2.218   3.165 -0.3540  0.6332  2.0668
 6133TIP3   OH218355   1.889   7.031   4.065  0.0973  0.3137 -0.0214
 6133TIP3    H118356   1.902   7.126   4.065 -1.5686  0.6080  1.4614
 6133TIP3    H218357   1.968   6.995   4.025  0.9182  2.3019 -0.2840
 6134TIP3   OH218358   3.927   5.034   4.708 -0.3191  0.5961  0.0269
 6134TIP3    H118359   3.989   5.014   4.637 -0.5159  2.1814 -0.6443
 6134TIP3    H218360   3.873   4.956   4.716 -0.8699  0.6687 -2.2210
 6135TIP3   OH218361   3.169   0.757   4.861 -0.1233  0.5307 -0.4409
 6135TIP3    H118362   3.190   0.732   4.771 -0.6374 -1.3566 -0.0825
 6135TIP3    H218363   3.252   0.749   4.909 -0.4168 -1.5398 -0.1580
 6136TIP3   OH218364   0.241   0.841   5.751 -0.2925 -0.1716 -0.0706
 6136TIP3    H118365   0.252   0.778   5.679 -0.6201 -0.7706  0.3890
 6136TIP3    H218366   0.323   0.834   5.801  0.7470  1.6465 -1.4347
 6137TIP3   OH218367   2.064   1.210   3.517 -0.2569 -0.0878 -0.3578
 6137TIP3    H118368   1.998   1.244   3.577  0.5122  0.2359  0.3417
 6137TIP3    H218369   2.109   1.142   3.568  0.9816  0.7926 -0.2166
 6138TIP3   OH218370   0.136   4.367   0.039  0.0106 -0.6665  0.1615
 6138TIP3    H118371   0.188   4.356  -0.040  1.3505 -0.2865  0.9455
 6138TIP3    H218372   0.106   4.458   0.036  0.8570 -0.3626  0.5236
 6139TIP3   OH218373   1.384   3.584   2.654  0.0182  0.2068  0.4899
 6139TIP3    H118374   1.383   3.668   2.699  1.2825  2.1559 -2.7139
 6139TIP3    H218375   1.313   3.590   2.590 -0.4644 -1.6008  0.8012
 6140TIP3   OH218376   0.552   3.908   4.421 -0.1900 -0.3770  0.5265
 6140TIP3    H118377   0.532   3.872   4.507 -0.8776 -0.8007  0.1969
 6140TIP3    H218378   0.634   3.957   4.434 -0.4561 -0.1577  1.4876
 6141TIP3   OH218379   6.796   1.094   5.758  0.2449  0.6091 -0.5641
 6141TIP3    H118380   6.856   1.020   5.756 -0.6407 -0.1319 -0.8586
 6141TIP3    H218381   6.815   1.143   5.678 -0.0569 -0.0528 -1.0512
 6142TIP3   OH218382   2.451   5.239   4.842  0.1934 -0.1295  0.2975
 6142TIP3    H118383   2.382   5.305   4.850 -1.6366 -1.9876  0.4299
 6142TIP3    H218384   2.499   5.264   4.763 -1.6540  0.2955 -0.7423
 6143TIP3   OH218385   2.656   6.466   4.909  0.0477  0.0611 -0.6666
 6143TIP3    H118386   2.696   6.492   4.992 -0.5805 -0.6855 -0.1217
 6143TIP3    H218387   2.636   6.373   4.920 -0.9795  0.2033 -1.2744
 6144TIP3   OH218388   6.259   6.605   1.779 -0.3648 -0.4478  0.5119
 6144TIP3    H118389   6.276   6.534   1.718 -1.7913  0.0145 -0.4676
 6144TIP3    H218390   6.186   6.574   1.833 -1.2610  0.3811 -0.1798
 6145TIP3   OH218391   6.108   1.108   0.422 -0.3143 -0.2567 -0.7371
 6145TIP3    H118392   6.200   1.116   0.449 -0.7314  0.1452  0.6593
 6145TIP3    H218393   6.112   1.060   0.340  1.0850 -1.3460 -0.0929
 6146TIP3   OH218394   5.991   5.489   4.671 -0.2958 -0.2227 -0.4001
 6146TIP3    H118395   5.917   5.504   4.730 -1.6623  0.2939 -2.1642
 6146TIP3    H218396   6.012   5.576   4.636  1.0751 -0.3834 -0.0578
 6147TIP3   OH218397   1.988   6.668   4.865  0.2209 -0.2731 -0.2436
 6147TIP3    H118398   1.929   6.688   4.937  1.9744  1.9099  0.6988
 6147TIP3    H218399   2.006   6.753   4.824  2.0502 -0.9732 -0.9827
 6148TIP3   OH218400   4.185   3.322   2.336 -0.5310 -0.4139 -0.6974
 6148TIP3    H118401   4.151   3.411   2.343 -0.4806 -0.5481  2.9498
 6148TIP3    H218402   4.279   3.332   2.323 -0.0987  0.2360  2.2517
 6149TIP3   OH218403   6.368   2.093   3.080 -0.5090 -0.1966  0.1667
 6149TIP3    H118404   6.351   2.151   3.005 -1.9205 -0.1736  0.4714
 6149TIP3    H218405   6.463   2.082   3.081 -0.2616  1.5471 -0.3207
 6150TIP3   OH218406   0.195   4.840   0.985  0.0149 -0.3074 -0.0660
 6150TIP3    H118407   0.221   4.911   1.043  0.6361  0.1304 -0.8527
 6150TIP3    H218408   0.221   4.760   1.031  0.7117  0.0427  0.1548
 6151TIP3   OH218409   1.762   3.081   4.901 -0.0833  0.2399  0.7066
 6151TIP3    H118410   1.828   3.093   4.833  0.3442  0.7530  1.2010
 6151TIP3    H218411   1.707   3.010   4.869 -0.5724  1.2204 -0.6884
 6152TIP3   OH218412   0.257   5.268   1.402 -0.7029  0.0208 -0.1292
 6152TIP3    H118413   0.260   5.352   1.356  2.1467  0.3209  0.4488
 6152TIP3    H218414   0.319   5.278   1.474  0.0184 -2.6956 -0.2789
 6153TIP3   OH218415   2.753   5.008   1.914  0.4733 -0.5493 -0.2944
 6153TIP3    H118416   2.782   5.082   1.861  1.5891 -0.3421  0.5635
 6153TIP3    H218417   2.734   5.046   2.000  0.7202 -1.1971  0.0514
 6154TIP3   OH218418   3.609   0.002   0.991 -0.2012  0.1439  0.5531
 6154TIP3    H118419   3.519  -0.031   0.990 -0.4992  0.9240  0.9255
 6154TIP3    H218420   3.622   0.038   0.903 -0.0505 -0.4812  0.3138
 6155TIP3   OH218421   7.901   7.156   5.877 -0.1484  0.3004 -0.3906
 6155TIP3    H118422   7.958   7.137   5.951 -0.7620 -0.1887 -0.0313
 6155TIP3    H218423   7.947   7.224   5.827  0.9534 -0.4133 -0.3707
 6156TIP3   OH218424   5.656   1.481   5.881 -0.1269 -0.4237  0.2502
 6156TIP3    H118425   5.637   1.454   5.791 -0.4095 -0.9298  0.4580
 6156TIP3    H218426   5.676   1.574   5.874 -1.6978 -0.0932 -0.1176
 6157TIP3   OH218427   1.226   0.970   4.662  0.7122  0.7608 -0.4207
 6157TIP3    H118428   1.162   0.996   4.596  0.4328 -0.9787 -0.8689
 6157TIP3    H218429   1.176   0.966   4.743 -0.0663 -1.6270 -0.9458
 6158TIP3   OH218430   5.482   7.653   6.342  0.4784  0.3895  0.2023
 6158TIP3    H118431   5.565   7.606   6.348  0.4670  0.4480  0.9913
 6158TIP3    H218432   5.415   7.586   6.352  0.3215 -0.0814 -3.1650
 6159TIP3   OH218433   6.811   3.327   0.107  0.2995  0.3372 -0.1366
 6159TIP3    H118434   6.748   3.346   0.176 -0.5135  1.6532 -1.1862
 6159TIP3    H218435   6.849   3.243   0.131  0.0030  0.7287  1.8619
 6160TIP3   OH218436   0.771   2.946   2.941  0.0801  0.1159 -0.1165
 6160TIP3    H118437   0.771   2.857   2.978 -0.7796 -0.3991 -1.2665
 6160TIP3    H218438   0.682   2.978   2.957 -0.6887 -0.5338 -2.5201
 6161TIP3   OH218439   6.636   2.151   3.544 -0.0652 -1.0500 -0.4245
 6161TIP3    H118440   6.596   2.215   3.603  1.0058 -1.3484  0.6757
 6161TIP3    H218441   6.576   2.144   3.470  0.1826  1.8563 -1.0064
 6162TIP3   OH218442   4.250   4.247   2.640 -0.1849 -0.5192  0.2732
 6162TIP3    H118443   4.183   4.178   2.632  0.3698 -1.1457  0.8453
 6162TIP3    H218444   4.286   4.255   2.552  0.3689 -1.6181  0.3889
 6163TIP3   OH218445   6.778   3.752   5.820  0.5561  0.1504  0.1007
 6163TIP3    H118446   6.702   3.708   5.858 -0.8646  0.9142 -1.6894
 6163TIP3    H218447   6.796   3.825   5.880 -0.9866  0.7392 -0.1083
 6164TIP3   OH218448   3.864   1.915   1.148 -0.4588  0.2199 -0.0280
 6164TIP3    H118449   3.826   1.835   1.184 -0.3864  0.6096  0.9419
 6164TIP3    H218450   3.926   1.945   1.215  1.7306 -0.5013 -1.6388
 6165TIP3   OH218451   0.426   3.506   3.427  0.2498 -0.2367 -0.0572
 6165TIP3    H118452   0.415   3.449   3.351 -2.1948 -0.8165  0.6382
 6165TIP3    H218453   0.390   3.456   3.500 -1.0971  1.7962  0.7594
 6166TIP3   OH218454   0.291   7.690   4.004  0.6557 -0.1115  0.9536
 6166TIP3    H118455   0.204   7.683   4.044 -0.2080 -0.5781 -0.9384
 6166TIP3    H218456   0.340   7.617   4.041 -0.1036 -0.5251  1.1699
 6167TIP3   OH218457   6.924   6.366   0.581 -0.4140  0.5665 -0.4045
 6167TIP3    H118458   6.967   6.439   0.535 -1.1976  2.1823  1.2729
 6167TIP3    H218459   6.902   6.403   0.667  0.0645 -1.9851  0.8924
 6168TIP3   OH218460   1.778   0.679   6.502 -0.2721 -0.0289 -0.0342
 6168TIP3    H118461   1.872   0.684   6.481 -0.8890 -0.0795 -3.2917
 6168TIP3    H218462   1.752   0.591   6.475 -1.3512  0.1179  0.4805
 6169TIP3   OH218463   6.958   2.155   2.689 -0.0660 -0.1974 -0.1471
 6169TIP3    H118464   6.882   2.096   2.682 -0.8233  0.8797 -1.6263
 6169TIP3    H218465   7.014   2.129   2.615  1.9986 -2.2148  1.9574
 6170TIP3   OH218466   5.136   3.837   0.084 -0.4502  0.0480  0.0603
 6170TIP3    H118467   5.070   3.815   0.150  1.3433  1.9012  2.6256
 6170TIP3    H218468   5.117   3.927   0.059  1.0233  0.6104  0.8301
 6171TIP3   OH218469   2.484   4.831   3.876  0.2861  0.4425 -0.3259
 6171TIP3    H118470   2.565   4.878   3.893  1.8192 -2.0489 -0.2947
 6171TIP3    H218471   2.472   4.837   3.781 -0.0807  1.6533 -0.2211
 6172TIP3   OH218472   3.292   4.364   5.041  0.5006 -0.5084  0.0286
 6172TIP3    H118473   3.374   4.413   5.051  0.3636 -0.1944 -0.3377
 6172TIP3    H218474   3.230   4.428   5.006  0.0292 -0.6874  0.5273
 6173TIP3   OH218475   5.674   6.118   1.612  0.4692 -0.3255  0.2741
 6173TIP3    H118476   5.595   6.073   1.581  1.1741 -1.6740  0.3165
 6173TIP3    H218477   5.738   6.104   1.542  1.0138 -0.2706  0.7516
 6174TIP3   OH218478   3.853   1.960   6.572 -0.0564 -0.1620 -0.0625
 6174TIP3    H118479   3.782   1.928   6.627  0.1830 -0.0063  0.3438
 6174TIP3    H218480   3.929   1.964   6.630  0.3226 -0.4684 -0.5258
 6175TIP3   OH218481   3.572   4.254   2.535 -0.0419  0.0584  0.5937
 6175TIP3    H118482   3.538   4.195   2.467  0.8085 -0.1387  0.3237
 6175TIP3    H218483   3.592   4.196   2.608  0.4022  0.0691  0.4808
 6176TIP3   OH218484   8.199   1.854   5.696 -0.1707 -0.1649  0.6119
 6176TIP3    H118485   8.231   1.896   5.616  0.4337 -2.9157 -0.7320
 6176TIP3    H218486   8.249   1.894   5.767 -0.4975  2.1278 -0.3867
 6177TIP3   OH218487   4.923   3.707   2.237 -0.1300 -0.1375  0.6698
 6177TIP3    H118488   4.938   3.651   2.313  1.1526 -1.2542 -0.3505
 6177TIP3    H218489   4.983   3.673   2.171  1.1063  2.8237  0.1600
 6178TIP3   OH218490   8.090   7.812   6.063 -0.0412  0.3429  0.1125
 6178TIP3    H118491   8.031   7.738   6.077 -2.0157  2.0578  1.4359
 6178TIP3    H218492   8.144   7.786   5.988 -1.8747 -1.6789 -0.6010
 6179TIP3   OH218493   3.445   2.226   2.393  0.0357  0.0640 -0.1449
 6179TIP3    H118494   3.421   2.136   2.373 -0.2978  0.0893  0.1338
 6179TIP3    H218495   3.374   2.258   2.449  0.9423  0.0056  1.0642
 6180TIP3   OH218496   2.462   1.590   6.715 -0.6068  0.1214  0.2919
 6180TIP3    H118497   2.456   1.513   6.771 -0.5497  0.2022  0.4090
 6180TIP3    H218498   2.547   1.628   6.737  0.8611 -1.5278 -1.9729
 6181TIP3   OH218499   0.300   1.968   1.871 -0.3429  0.2917  0.0131
 6181TIP3    H118500   0.233   2.035   1.884 -0.3777  0.1336  0.6828
 6181TIP3    H218501   0.376   2.001   1.919  0.5756  1.1806 -1.9255
 6182TIP3   OH218502   1.553   4.233   0.545 -0.2123 -0.2431 -0.6811
 6182TIP3    H118503   1.507   4.305   0.587 -1.0642 -1.7265  1.0783
 6182TIP3    H218504   1.483   4.171   0.521  0.6143 -1.1622 -0.7616
 6183TIP3   OH218505   3.275   3.074   1.141 -0.0859 -0.3279 -1.0600
 6183TIP3    H118506   3.370   3.072   1.154 -0.0559 -1.3520 -1.3288
 6183TIP3    H218507   3.245   2.987   1.168 -0.8340 -0.3081 -1.7873
 6184TIP3   OH218508   5.565   4.239   3.542 -0.3325 -0.3413 -0.2595
 6184TIP3    H118509   5.564   4.324   3.585  0.7084 -0.9979  1.1760
 6184TIP3    H218510   5.618   4.251   3.464  0.7856  0.0804  0.5470
 6185TIP3   OH218511   0.097   6.643   0.245 -0.2222  0.0491  0.3859
 6185TIP3    H118512   0.071   6.555   0.220 -0.9540  0.0612  1.0603
 6185TIP3    H218513   0.067   6.652   0.336  2.7045 -0.1510  1.4859
 6186TIP3   OH218514   5.065   1.186   5.461 -0.6719 -0.0411 -0.6174
 6186TIP3    H118515   5.005   1.232   5.520 -0.4225  1.1193 -1.2274
 6186TIP3    H218516   5.029   1.098   5.453 -0.5106 -0.3638  1.5511
 6187TIP3   OH218517   5.955   2.350   5.709  0.1936  0.0651  0.0355
 6187TIP3    H118518   5.860   2.349   5.716  0.2238  0.9895  0.7739
 6187TIP3    H218519   5.987   2.335   5.798  0.7254  0.6251 -0.0517
 6188TIP3   OH218520   3.251   5.032   6.765  0.1865  0.6884 -0.3599
 6188TIP3    H118521   3.308   5.090   6.715  1.1301  1.3464  1.3659
 6188TIP3    H218522   3.306   4.955   6.784 -0.1857  0.4039 -0.4266
 6189TIP3   OH218523   5.642   7.590   3.850  0.3620  0.1057  0.5432
 6189TIP3    H118524   5.602   7.551   3.772  0.2508 -0.6256  0.9572
 6189TIP3    H218525   5.734   7.601   3.827  0.5462 -1.0478  0.6458
 6190TIP3   OH218526   4.457   0.308   3.623 -0.2082  0.3065  0.1956
 6190TIP3    H118527   4.417   0.281   3.540 -0.8793  0.2324  0.5392
 6190TIP3    H218528   4.440   0.402   3.627 -0.2386  0.2970  0.2828
 6191TIP3   OH218529   1.557   1.019   4.216  0.3780  0.2627 -0.1980
 6191TIP3    H118530   1.557   0.927   4.244  3.2208  0.2167  0.0027
 6191TIP3    H218531   1.465   1.042   4.207 -0.4650 -2.0213  1.6397
 6192TIP3   OH218532   1.175   1.637   1.403 -0.0526 -0.0535 -0.1098
 6192TIP3    H118533   1.202   1.646   1.494 -1.1129 -0.9178  0.3012
 6192TIP3    H218534   1.092   1.683   1.398 -0.7069 -1.2282 -0.2913
 6193TIP3   OH218535   6.444   3.231   6.613  0.7705 -0.3213 -0.3358
 6193TIP3    H118536   6.460   3.324   6.595  1.8441 -0.6466 -1.1250
 6193TIP3    H218537   6.366   3.231   6.669 -1.8915  0.8330 -3.7141
 6194TIP3   OH218538   5.715   4.502   2.803 -0.1970 -0.4525 -0.2396
 6194TIP3    H118539   5.627   4.490   2.840 -0.0503 -1.5174 -0.2228
 6194TIP3    H218540   5.701   4.557   2.726 -0.9463 -0.9935 -0.5026
 6195TIP3   OH218541   5.420   2.339   4.247 -0.2683 -0.3965  0.0454
 6195TIP3    H118542   5.367   2.277   4.197 -1.0068 -0.6495  1.1048
 6195TIP3    H218543   5.490   2.286   4.284 -0.8929 -0.6204  0.9415
 6196TIP3   OH218544   2.037   7.385   2.284  0.3937 -0.6543 -0.1062
 6196TIP3    H118545   2.062   7.477   2.293  0.6979 -0.5981 -1.3385
 6196TIP3    H218546   2.114   7.344   2.244 -0.3449 -1.1024 -1.1085
 6197TIP3   OH218547   7.154   0.188   2.358  0.8185  0.3483 -0.2232
 6197TIP3    H118548   7.194   0.262   2.403  0.7888 -0.1094  0.5814
 6197TIP3    H218549   7.122   0.224   2.276 -1.3253  1.7983  1.1357
 6198TIP3   OH218550   3.545   0.340   1.157 -0.0007 -0.3032  0.2197
 6198TIP3    H118551   3.565   0.403   1.226 -1.1923  0.4491 -0.0806
 6198TIP3    H218552   3.602   0.265   1.175  0.4005  0.2644  1.4352
 6199TIP3   OH218553   4.100   4.358   5.037  0.2940 -0.6217  0.0901
 6199TIP3    H118554   4.185   4.381   4.999  0.7460 -2.1450  0.0892
 6199TIP3    H218555   4.037   4.384   4.971  0.7602  0.4457  0.0490
 6200TIP3   OH218556   2.054   1.362   6.521  0.3289  0.4205  0.0355
 6200TIP3    H118557   1.976   1.346   6.574 -0.2974 -0.6041 -1.1529
 6200TIP3    H218558   2.027   1.430   6.460 -0.2850 -1.2394 -1.6207
 6201TIP3   OH218559   5.662   1.964   4.115  0.0235 -0.0254  0.1363
 6201TIP3    H118560   5.678   2.052   4.149 -0.0908 -0.3420  1.0396
 6201TIP3    H218561   5.683   1.970   4.022 -0.9996  1.2260 -0.0424
 6202TIP3   OH218562   6.683   5.051   6.103  0.7522 -0.0023 -0.5577
 6202TIP3    H118563   6.768   5.017   6.131 -0.2074 -2.0541  0.0834
 6202TIP3    H218564   6.653   4.987   6.038  0.2957  1.4710 -1.8536
 6203TIP3   OH218565   1.637   1.968   2.466  0.5518 -0.0845 -0.0035
 6203TIP3    H118566   1.710   2.028   2.457  0.4160  0.1719  0.5605
 6203TIP3    H218567   1.670   1.884   2.434  1.8903 -0.5853  2.4103
 6204TIP3   OH218568   4.976   6.981   1.699  0.3364 -0.0909 -0.1928
 6204TIP3    H118569   5.066   6.949   1.692  0.2748 -0.3784  0.2766
 6204TIP3    H218570   4.951   7.002   1.609  1.5760  1.9425 -0.1127
 6205TIP3   OH218571   6.059   2.919   1.866 -0.1601 -0.7098 -0.3981
 6205TIP3    H118572   6.135   2.976   1.883 -1.7507  1.5495 -0.3861
 6205TIP3    H218573   6.026   2.896   1.953 -1.1216  0.7167 -0.3453
 6206TIP3   OH218574   0.910   1.986   3.207  0.2333  0.2781 -0.9198
 6206TIP3    H118575   0.964   1.946   3.275 -1.5075 -0.8796 -0.1418
 6206TIP3    H218576   0.836   1.926   3.197  0.4849  0.3474 -3.9680
 6207TIP3   OH218577   3.346   3.822   5.607  0.1836  0.0898 -0.4669
 6207TIP3    H118578   3.307   3.902   5.642 -0.1772  0.3197 -1.3668
 6207TIP3    H218579   3.294   3.751   5.646  0.3600  0.2993  0.1535
 6208TIP3   OH218580   1.960   5.006   4.083 -0.3114  0.1223  0.1089
 6208TIP3    H118581   1.918   4.958   4.012 -2.2175 -1.6944  2.2840
 6208TIP3    H218582   2.012   4.940   4.129 -2.0995  0.2653  2.5186
 6209TIP3   OH218583   5.135   2.043   0.566  0.3213  0.6161  0.6961
 6209TIP3    H118584   5.053   2.027   0.518  1.2362  0.2091 -0.7748
 6209TIP3    H218585   5.117   2.123   0.617 -0.8550  0.7716  0.0745
 6210TIP3   OH218586   6.881   5.259   4.864 -0.1614  0.3894  0.3441
 6210TIP3    H118587   6.975   5.251   4.876 -0.3156 -2.1367  0.3407
 6210TIP3    H218588   6.871   5.323   4.793  1.5822  0.0337 -0.2571
 6211TIP3   OH218589   7.821   7.498   4.538 -0.2706  0.2973 -0.0301
 6211TIP3    H118590   7.856   7.562   4.600 -0.6555  1.1392 -0.6571
 6211TIP3    H218591   7.737   7.471   4.576  0.3736 -0.6462  0.7604
 6212TIP3   OH218592   7.290   3.903   3.681 -0.2120  0.3247 -0.0240
 6212TIP3    H118593   7.376   3.881   3.647 -0.9214  0.9772 -2.4575
 6212TIP3    H218594   7.290   3.998   3.688 -0.7513  0.3402 -0.1420
 6213TIP3   OH218595   1.576   1.315   1.464  0.1617 -0.1048 -0.1446
 6213TIP3    H118596   1.613   1.336   1.550  0.5320 -0.4919 -0.2067
 6213TIP3    H218597   1.614   1.230   1.441 -1.0650 -0.7048 -0.0349
 6214TIP3   OH218598   5.419   2.638   0.630  0.4668 -0.0720 -0.5457
 6214TIP3    H118599   5.408   2.727   0.663  0.2570 -0.3415  0.1360
 6214TIP3    H218600   5.390   2.582   0.703  0.5851 -0.6929 -0.9703
 6215TIP3   OH218601   3.180   5.699   5.662  0.6502 -0.0296 -0.9585
 6215TIP3    H118602   3.149   5.737   5.581 -0.6278  0.5773 -0.2214
 6215TIP3    H218603   3.166   5.767   5.728  1.0216 -0.7427 -0.1166
 6216TIP3   OH218604   0.973   7.342   4.214 -0.5336  0.2414  0.2843
 6216TIP3    H118605   0.979   7.395   4.134  1.7656 -2.6860 -1.7306
 6216TIP3    H218606   1.026   7.388   4.278 -0.5066  1.5100 -0.6220
 6217TIP3   OH218607   5.308   5.986   5.856  0.2500 -0.5666 -0.3913
 6217TIP3    H118608   5.368   5.957   5.787 -0.0338  0.6814 -1.1886
 6217TIP3    H218609   5.359   6.048   5.908 -0.4074  0.7980 -1.3029
 6218TIP3   OH218610   0.167   0.033   6.232 -0.4491  0.0124  0.0710
 6218TIP3    H118611   0.149   0.083   6.312  2.4022 -0.4247  1.0918
 6218TIP3    H218612   0.122  -0.051   6.245  0.5663 -0.3287  1.5991
 6219TIP3   OH218613   1.234   5.451   4.799  0.5375  0.2697  0.0291
 6219TIP3    H118614   1.308   5.465   4.859  0.9596  2.1715 -0.8656
 6219TIP3    H218615   1.190   5.373   4.834  1.5363  0.5188  2.0239
 6220TIP3   OH218616   0.937   1.214   0.460  1.0050 -0.2409 -0.7024
 6220TIP3    H118617   0.899   1.234   0.374  0.7452  0.1450 -0.5004
 6220TIP3    H218618   0.881   1.145   0.495 -0.7906  1.6518  0.4378
 6221TIP3   OH218619   2.222   2.381   2.283  0.2772  0.1363  0.0292
 6221TIP3    H118620   2.159   2.427   2.339 -0.3481 -0.1967 -0.3912
 6221TIP3    H218621   2.169   2.344   2.213  0.8320 -0.8819  0.1342
 6222TIP3   OH218622   3.952   1.409   2.278 -0.0774 -0.0065  0.1426
 6222TIP3    H118623   3.880   1.357   2.243 -0.7493  0.5401  0.6778
 6222TIP3    H218624   4.027   1.349   2.279  0.3295  0.2950 -3.3463
 6223TIP3   OH218625   1.923   1.500   2.438  0.1580 -0.1575 -0.2852
 6223TIP3    H118626   1.982   1.497   2.513 -0.2951 -0.1563  0.0786
 6223TIP3    H218627   1.853   1.438   2.460 -1.1423  1.4186  0.3010
 6224TIP3   OH218628   6.246   4.209   3.837  0.0087 -0.2639  0.1984
 6224TIP3    H118629   6.275   4.258   3.914  1.7009  0.3496 -0.7702
 6224TIP3    H218630   6.206   4.275   3.781  0.8267 -0.2590 -0.4024
 6225TIP3   OH218631   3.616   2.356   3.014 -0.3487  0.3814  0.6706
 6225TIP3    H118632   3.614   2.357   2.918 -0.5175  0.2837  0.6721
 6225TIP3    H218633   3.535   2.400   3.040  0.1533  1.2442  0.7757
 6226TIP3   OH218634   7.124   0.299   1.476  0.6394  0.2573 -0.0375
 6226TIP3    H118635   7.099   0.389   1.456 -0.1596  0.2805  0.9761
 6226TIP3    H218636   7.104   0.250   1.396  1.0680  0.9643 -0.5877
 6227TIP3   OH218637   7.897   4.830   0.237  0.4438  0.3063 -0.0878
 6227TIP3    H118638   7.814   4.872   0.260  0.2323 -0.2554  0.1925
 6227TIP3    H218639   7.958   4.903   0.225 -0.5501  0.8561 -2.2593
 6228TIP3   OH218640   3.336   6.857   5.701  0.1142  0.3503 -0.2140
 6228TIP3    H118641   3.339   6.938   5.649 -1.4781  0.7205  0.2172
 6228TIP3    H218642   3.277   6.878   5.774  0.7337 -0.7915  0.6453
 6229TIP3   OH218643   8.273   6.778   1.730  0.5795 -0.0658  0.3173
 6229TIP3    H118644   8.272   6.696   1.780  0.1581 -1.1208 -1.3349
 6229TIP3    H218645   8.182   6.807   1.730  0.3459 -0.7147 -0.7753
 6230TIP3   OH218646   7.223   6.799   2.605  0.2351  0.2543 -0.5842
 6230TIP3    H118647   7.128   6.789   2.597 -0.0048  2.8912 -2.0939
 6230TIP3    H218648   7.250   6.837   2.522  2.6165 -0.2013 -0.0925
 6231TIP3   OH218649   3.312   5.235   5.878  0.3734  0.7410 -0.0092
 6231TIP3    H118650   3.247   5.166   5.890  1.1466 -0.0479 -0.3428
 6231TIP3    H218651   3.296   5.268   5.790 -0.4068  1.4393  0.3750
 6232TIP3   OH218652   2.451   5.827   6.452  0.6265  0.2582  0.1319
 6232TIP3    H118653   2.383   5.853   6.515  1.0121 -0.6390  0.9549
 6232TIP3    H218654   2.477   5.739   6.481  3.0004  1.0329  0.6084
 6233TIP3   OH218655   6.757   1.029   6.472 -0.3283  0.0610 -0.6503
 6233TIP3    H118656   6.696   1.061   6.406 -1.3608 -1.2368 -0.3663
 6233TIP3    H218657   6.777   0.939   6.444  2.0064  0.6471 -1.1022
 6234TIP3   OH218658   7.841   5.558   3.335  0.5556  0.3189 -0.1331
 6234TIP3    H118659   7.794   5.484   3.374  1.6824 -0.4728 -0.2353
 6234TIP3    H218660   7.817   5.633   3.389  0.7533 -0.4378  1.0289
 6235TIP3   OH218661   0.743   6.115   0.324  0.4452 -0.0484  0.0659
 6235TIP3    H118662   0.744   6.166   0.405  0.0229 -0.2968  0.2279
 6235TIP3    H218663   0.654   6.080   0.319  0.7845 -0.9260  0.0597
 6236TIP3   OH218664   7.896   2.581   5.080  0.2357 -0.4809  0.5160
 6236TIP3    H118665   7.961   2.590   5.010 -1.0968  0.5138 -0.6327
 6236TIP3    H218666   7.848   2.501   5.059  0.2463 -0.5234  0.6505
 6237TIP3   OH218667   7.748   7.376   3.306 -0.3560 -0.1449 -0.0047
 6237TIP3    H118668   7.716   7.332   3.385  0.5946 -2.8875 -1.0289
 6237TIP3    H218669   7.671   7.422   3.271 -0.9484  0.5693  2.0913
 6238TIP3   OH218670   6.706   0.507   3.317 -0.0213 -0.2590 -0.3315
 6238TIP3    H118671   6.763   0.530   3.390  1.2221 -1.4161 -0.9094
 6238TIP3    H218672   6.620   0.542   3.342 -0.0706 -2.0972  2.5029
 6239TIP3   OH218673   5.162   5.920   5.263  0.1231  0.2171  0.0792
 6239TIP3    H118674   5.204   5.849   5.215 -1.1531 -0.5825  0.0942
 6239TIP3    H218675   5.144   5.884   5.350  1.2734  1.2400  0.7770
 6240TIP3   OH218676   5.522   6.260   3.261 -0.0197  0.0421  0.3677
 6240TIP3    H118677   5.606   6.241   3.302 -0.2281 -0.7432  0.4342
 6240TIP3    H218678   5.473   6.178   3.266  0.0546 -0.1842 -1.7019
 6241TIP3   OH218679   7.057   7.578   1.421 -0.3454  0.1257  0.4043
 6241TIP3    H118680   7.138   7.605   1.463  1.2744 -1.6549 -1.3348
 6241TIP3    H218681   7.032   7.653   1.367 -0.4313  1.0401  1.6692
 6242TIP3   OH218682   7.511   4.721   5.334 -0.0356  0.3904  0.1390
 6242TIP3    H118683   7.554   4.735   5.250 -1.2347 -1.1554 -0.8032
 6242TIP3    H218684   7.530   4.800   5.385  1.2595  1.0787 -1.3340
 6243TIP3   OH218685   0.171   0.901   1.201  0.0738  0.4891  0.5497
 6243TIP3    H118686   0.241   0.962   1.178  0.1510  0.2515  0.1398
 6243TIP3    H218687   0.213   0.815   1.202 -0.1483  0.3788  0.6066
 6244TIP3   OH218688   3.286   3.453   5.114 -1.2212  0.3020 -0.4181
 6244TIP3    H118689   3.288   3.543   5.081  0.1481  0.3642 -0.2061
 6244TIP3    H218690   3.372   3.440   5.153 -2.0677 -0.4494  1.3100
 6245TIP3   OH218691   5.924   5.931   6.592  0.2353 -0.0646 -0.0851
 6245TIP3    H118692   5.970   5.888   6.520 -1.4238 -1.5606 -0.3427
 6245TIP3    H218693   5.993   5.967   6.646  1.6927 -1.6527 -0.7622
 6246TIP3   OH218694   4.284   1.115   3.088  0.1283  0.3348  0.5799
 6246TIP3    H118695   4.192   1.111   3.116 -0.2090  1.1375 -0.3577
 6246TIP3    H218696   4.306   1.025   3.064 -0.0317 -0.0904  1.9107
 6247TIP3   OH218697   4.602   1.904   3.460 -0.5279 -0.5313 -0.5029
 6247TIP3    H118698   4.532   1.846   3.432  0.3246 -1.6338 -0.4112
 6247TIP3    H218699   4.639   1.863   3.538 -0.2532  0.4140 -0.1141
 6248TIP3   OH218700   4.792   6.344   6.677 -0.1066  0.4490  0.1368
 6248TIP3    H118701   4.795   6.418   6.739 -1.4001 -0.0489  0.8248
 6248TIP3    H218702   4.883   6.314   6.673  0.7469  2.8635 -1.2001
 6249TIP3   OH218703   3.728   5.734   4.109 -1.0372  0.0788 -0.1950
 6249TIP3    H118704   3.761   5.797   4.173  0.7712 -2.1055  1.1821
 6249TIP3    H218705   3.692   5.788   4.039  1.7392  2.6739  0.1876
 6250TIP3   OH218706   0.714   0.551   5.699 -0.0510  0.4142  0.0348
 6250TIP3    H118707   0.725   0.526   5.790  0.3156  0.6894  0.0673
 6250TIP3    H218708   0.775   0.496   5.651 -0.0791  0.4309 -0.0208
 6251TIP3   OH218709   6.523   7.678   0.652  0.2274 -0.3031 -0.0218
 6251TIP3    H118710   6.449   7.658   0.710 -1.0111 -0.0761 -1.4585
 6251TIP3    H218711   6.510   7.770   0.628 -0.0437 -0.7357 -1.6555
 6252TIP3   OH218712   1.174   4.361   4.495 -0.3128  0.2168  0.0214
 6252TIP3    H118713   1.141   4.314   4.418 -1.2813 -0.2929  0.7218
 6252TIP3    H218714   1.268   4.367   4.481 -0.3363 -0.8096 -0.7006
 6253TIP3   OH218715   7.966   2.129   6.566  0.3940  0.1231 -0.1207
 6253TIP3    H118716   7.985   2.145   6.658 -0.9186 -0.7150  0.3286
 6253TIP3    H218717   7.948   2.034   6.561  0.8683  0.0702 -1.3133
 6254TIP3   OH218718   3.177   4.900   5.471  0.0381  0.6444  0.2405
 6254TIP3    H118719   3.103   4.961   5.473 -0.8108 -0.3510  0.0989
 6254TIP3    H218720   3.144   4.821   5.515  1.2716  0.4533  0.8568
 6255TIP3   OH218721   7.514   1.731   6.458  0.1021  0.2375 -0.3374
 6255TIP3    H118722   7.534   1.804   6.515 -0.3773 -0.8272  1.2679
 6255TIP3    H218723   7.588   1.726   6.397  0.4222  1.6580 -0.0805
 6256TIP3   OH218724   4.711   7.112   2.431 -0.1719  0.3159  0.2286
 6256TIP3    H118725   4.659   7.034   2.410  0.2964  0.2834 -0.8405
 6256TIP3    H218726   4.793   7.078   2.465  0.3738  0.3131 -1.0522
 6257TIP3   OH218727   6.174   2.469   1.441 -0.5066 -0.0387 -0.4249
 6257TIP3    H118728   6.086   2.446   1.412 -0.3823  0.0525 -0.8757
 6257TIP3    H218729   6.200   2.540   1.383  0.4009 -0.9797 -1.2063
 6258TIP3   OH218730   7.437   3.546   1.108  0.2241 -0.3264  0.7910
 6258TIP3    H118731   7.365   3.607   1.091 -0.4199 -0.9526  1.2030
 6258TIP3    H218732   7.515   3.600   1.105  0.0338 -0.0517 -2.3584
 6259TIP3   OH218733   3.901   0.604   1.828  0.2820 -0.2617 -0.4874
 6259TIP3    H118734   3.955   0.682   1.819  0.7307 -0.4968  0.1198
 6259TIP3    H218735   3.914   0.576   1.919 -3.0952  1.3397  0.6410
 6260TIP3   OH218736   3.768   6.359   3.178 -0.2097 -0.0259 -0.1428
 6260TIP3    H118737   3.809   6.388   3.260 -0.3094 -0.5169  0.0856
 6260TIP3    H218738   3.684   6.406   3.175 -0.0429  0.2762 -0.1520
 6261TIP3   OH218739   3.583   2.326   4.962 -0.1701  0.0143  0.3631
 6261TIP3    H118740   3.539   2.279   5.033 -1.5518  0.3041 -0.2803
 6261TIP3    H218741   3.649   2.379   5.006 -0.1103 -0.8101  1.3033
 6262TIP3   OH218742   7.144   4.734   6.709  0.9021 -0.6672  0.2942
 6262TIP3    H118743   7.087   4.810   6.718 -0.0669 -1.5123  1.5586
 6262TIP3    H218744   7.084   4.662   6.688  1.8183 -1.0799 -1.0429
 6263TIP3   OH218745   5.302   7.433   6.616  0.5518 -0.9750  0.1339
 6263TIP3    H118746   5.348   7.413   6.534  1.8258  0.1443  0.5285
 6263TIP3    H218747   5.371   7.465   6.674 -0.3337 -1.7467  1.6539
 6264TIP3   OH218748   3.179   0.117   5.122 -0.2552  0.4574  0.3592
 6264TIP3    H118749   3.210   0.070   5.199 -1.2266 -0.7398  0.0526
 6264TIP3    H218750   3.084   0.105   5.123 -0.2183 -0.4378 -1.5166
 6265TIP3   OH218751   6.843   4.854   2.592 -0.2367 -0.0556 -0.4828
 6265TIP3    H118752   6.866   4.789   2.525 -2.0153 -1.3808  0.1086
 6265TIP3    H218753   6.767   4.900   2.555 -0.1093  0.4339 -0.1395
 6266TIP3   OH218754   7.475   4.164   3.937  0.1567  0.1634 -0.4241
 6266TIP3    H118755   7.535   4.147   3.865 -1.0088  0.9180 -1.6360
 6266TIP3    H218756   7.432   4.247   3.913 -0.0462  0.5913  1.2924
 6267TIP3   OH218757   8.273   1.781   4.561  0.1399  0.7836 -0.6134
 6267TIP3    H118758   8.195   1.788   4.505 -0.3358  1.7077  0.1255
 6267TIP3    H218759   8.332   1.722   4.514 -1.4314 -0.7934 -0.7005
 6268TIP3   OH218760   3.389   6.605   6.558 -0.1387  0.6287  0.1648
 6268TIP3    H118761   3.404   6.516   6.591  1.0849  1.0312  0.7255
 6268TIP3    H218762   3.335   6.592   6.480  0.8325 -0.6886 -0.3302
 6269TIP3   OH218763   7.851   6.095   0.348 -0.4886 -0.0630 -0.2565
 6269TIP3    H118764   7.761   6.115   0.374 -0.1849  0.2865  0.5462
 6269TIP3    H218765   7.842   6.022   0.286 -1.2663 -0.6104  0.4769
 6270TIP3   OH218766   7.398   0.647   0.442 -0.5677 -0.3553  0.0728
 6270TIP3    H118767   7.450   0.651   0.523 -1.2377 -0.1521  0.5021
 6270TIP3    H218768   7.381   0.738   0.419 -1.6140 -0.4225  0.5240
 6271TIP3   OH218769   7.699   5.945   0.650 -0.0925  0.5734 -0.6827
 6271TIP3    H118770   7.645   6.001   0.706 -0.0456  1.5772 -1.6156
 6271TIP3    H218771   7.788   5.978   0.663  0.8485 -2.5025  2.6474
 6272TIP3   OH218772   6.968   1.166   4.544  0.2903  0.5384 -0.8161
 6272TIP3    H118773   6.925   1.080   4.536  0.0995  0.7596 -2.5235
 6272TIP3    H218774   7.037   1.164   4.477 -0.2556  2.0089 -1.4569
 6273TIP3   OH218775   5.623   2.829   4.291  0.0064  0.6113 -0.5233
 6273TIP3    H118776   5.533   2.799   4.278  0.6466 -2.0425  0.4796
 6273TIP3    H218777   5.666   2.812   4.207 -0.1438  0.8019 -0.6404
 6274TIP3   OH218778   3.830   4.872   0.764  0.2150  0.1940  0.0600
 6274TIP3    H118779   3.736   4.863   0.782 -0.2300  1.5006 -1.3482
 6274TIP3    H218780   3.871   4.804   0.817 -1.6178 -1.1636 -0.1494
 6275TIP3   OH218781   2.928   4.355   2.159  0.2654 -0.1213  0.1350
 6275TIP3    H118782   2.975   4.371   2.077  1.6353 -0.8028  0.7588
 6275TIP3    H218783   2.839   4.335   2.131  0.4258  0.7646 -1.1108
 6276TIP3   OH218784   4.505   4.640   6.493  0.2331  0.7379  0.0336
 6276TIP3    H118785   4.494   4.580   6.419  0.3548 -0.8576  1.2352
 6276TIP3    H218786   4.583   4.607   6.539 -0.6372  0.8047  1.6421
 6277TIP3   OH218787   5.421   3.559   3.337 -0.2696 -0.0565 -0.2830
 6277TIP3    H118788   5.340   3.513   3.358 -1.0807  1.6482  0.4711
 6277TIP3    H218789   5.489   3.509   3.382 -1.1568 -0.3405  0.7680
 6278TIP3   OH218790   6.602   3.247   3.719  0.1826  0.1465  0.2778
 6278TIP3    H118791   6.553   3.317   3.761 -1.7993  0.6287 -2.5557
 6278TIP3    H218792   6.682   3.289   3.687 -0.7822  1.0879 -0.9978
 6279TIP3   OH218793   2.018   1.674   5.853 -0.0436  0.0278 -0.0560
 6279TIP3    H118794   2.091   1.663   5.915 -0.1718  1.5216  0.4158
 6279TIP3    H218795   2.056   1.656   5.767  0.3089 -1.4083  0.3642
 6280TIP3   OH218796   7.721   7.754   6.442 -0.1972  0.2672 -0.0838
 6280TIP3    H118797   7.792   7.698   6.473  0.5239  0.7775 -0.7566
 6280TIP3    H218798   7.694   7.716   6.358 -0.2150  0.4831 -0.1791
 6281TIP3   OH218799   5.598   5.926   1.314 -0.1419  0.7649  0.2942
 6281TIP3    H118800   5.527   5.953   1.372 -0.2375 -0.8467  0.9977
 6281TIP3    H218801   5.675   5.971   1.348 -0.4993  1.1148  0.6528
 6282TIP3   OH218802   7.154   3.241   6.500 -0.2533  0.0775  0.2081
 6282TIP3    H118803   7.164   3.279   6.413 -0.7682 -3.3874 -1.5647
 6282TIP3    H218804   7.083   3.291   6.540 -1.1033  0.7855 -2.0297
 6283TIP3   OH218805   7.357   5.561   2.228 -0.0618  0.1665 -0.0245
 6283TIP3    H118806   7.425   5.627   2.239 -0.7925  1.0658 -0.6646
 6283TIP3    H218807   7.334   5.535   2.317  0.0892  0.9475  0.2509
 6284TIP3   OH218808   0.668   1.156   6.492 -0.1893 -0.0828  0.4067
 6284TIP3    H118809   0.693   1.226   6.432 -1.1875  0.4689  0.6214
 6284TIP3    H218810   0.749   1.136   6.540 -0.0975  1.5903  1.0162
 6285TIP3   OH218811   4.796   6.128   2.862  0.4937  0.2978  0.6014
 6285TIP3    H118812   4.811   6.058   2.798 -2.1600 -1.3085  1.5759
 6285TIP3    H218813   4.754   6.198   2.811  0.7372  0.0914  0.1132
 6286TIP3   OH218814   0.404   2.142   5.442 -0.3349  0.1191 -0.3432
 6286TIP3    H118815   0.399   2.198   5.520 -2.6359 -0.8758  0.3083
 6286TIP3    H218816   0.447   2.062   5.473 -2.1445 -0.6803  0.2385
 6287TIP3   OH218817   6.954   5.379   5.532  0.0277 -0.1788 -0.5461
 6287TIP3    H118818   6.887   5.324   5.573  0.7326 -0.5717  0.0859
 6287TIP3    H218819   6.997   5.321   5.469 -0.5761  0.2262 -1.3541
 6288TIP3   OH218820   5.981   6.366   1.329 -0.1027  0.3614  0.5907
 6288TIP3    H118821   5.944   6.448   1.296 -0.8862  0.2826  1.2452
 6288TIP3    H218822   5.949   6.300   1.268 -0.3373  0.4066  0.6640
 6289TIP3   OH218823   5.698   2.369   1.056  0.2836  0.1561 -0.2348
 6289TIP3    H118824   5.686   2.278   1.028  1.5188 -0.7768  2.0092
 6289TIP3    H218825   5.780   2.396   1.013  0.3728 -0.0913 -0.2257
 6290TIP3   OH218826   0.304   1.735   4.304 -0.8875  0.9298  0.0144
 6290TIP3    H118827   0.272   1.785   4.379 -1.1396  0.2974  0.3332
 6290TIP3    H218828   0.283   1.644   4.325  0.9438  0.5092  0.1531
 6291TIP3   OH218829   5.790   6.001   5.216 -0.3328 -0.0098  0.0094
 6291TIP3    H118830   5.698   6.005   5.190 -0.2059  0.9267 -0.3333
 6291TIP3    H218831   5.788   5.989   5.311 -0.8082 -0.0843 -0.0100
 6292TIP3   OH218832   6.259   1.596   1.038 -0.2167  0.8585 -0.3641
 6292TIP3    H118833   6.293   1.551   0.960 -1.7259  0.1909 -0.6663
 6292TIP3    H218834   6.331   1.592   1.100  0.1036 -1.0073 -0.7890
 6293TIP3   OH218835   1.815   6.179   2.346  0.0086  0.1892 -0.4227
 6293TIP3    H118836   1.790   6.242   2.278 -0.5079  1.0071  0.4877
 6293TIP3    H218837   1.779   6.216   2.427 -0.0481 -1.1323  0.1910
 6294TIP3   OH218838   5.140   3.275   2.813 -0.1006 -0.2117  0.0593
 6294TIP3    H118839   5.175   3.187   2.802  1.6955  0.5933 -1.2690
 6294TIP3    H218840   5.166   3.300   2.902  0.9645 -0.3817 -0.1911
 6295TIP3   OH218841   8.216   3.669   1.110 -0.4080  0.2605  0.1948
 6295TIP3    H118842   8.278   3.733   1.076 -1.2749  0.1226 -1.7976
 6295TIP3    H218843   8.170   3.637   1.033 -2.2943 -0.3379  1.4909
 6296TIP3   OH218844   0.828   5.534   0.213  0.1617 -0.1827 -0.5385
 6296TIP3    H118845   0.878   5.459   0.245 -0.6621 -0.7024 -0.4345
 6296TIP3    H218846   0.820   5.519   0.119 -1.0646 -0.9089 -0.3512
 6297TIP3   OH218847   5.310   7.243   2.372 -0.1222 -0.7067  0.1967
 6297TIP3    H118848   5.377   7.284   2.318  1.5319 -3.4216  0.0490
 6297TIP3    H218849   5.300   7.303   2.446  2.8134 -0.3572  0.4357
 6298TIP3   OH218850   4.428   4.204   1.344 -0.2164  0.6358 -0.4378
 6298TIP3    H118851   4.517   4.203   1.310 -0.3734  0.6639 -0.8667
 6298TIP3    H218852   4.435   4.169   1.433  0.4711  2.2825  0.1879
 6299TIP3   OH218853   6.365   1.768   2.316  0.0042 -0.0042 -0.4218
 6299TIP3    H118854   6.271   1.752   2.309 -0.3066  1.2675  0.4459
 6299TIP3    H218855   6.398   1.696   2.370 -0.3854 -0.6810 -1.0693
 6300TIP3   OH218856   7.861   1.909   5.075 -0.1749  0.5952 -0.7699
 6300TIP3    H118857   7.934   1.914   5.013 -0.3096  0.4324 -0.9449
 6300TIP3    H218858   7.901   1.923   5.161  0.0524  0.5760 -0.8718
 6301TIP3   OH218859   5.440   1.891   6.724  0.2720 -0.0363 -0.4789
 6301TIP3    H118860   5.391   1.859   6.800  1.6856  0.5889  0.7386
 6301TIP3    H218861   5.515   1.832   6.717  0.9757  0.8312 -0.4269
 6302TIP3   OH218862   1.754   4.785   2.139  0.4205  0.0723  0.0757
 6302TIP3    H118863   1.763   4.845   2.213  1.4519  0.5288 -0.4002
 6302TIP3    H218864   1.833   4.799   2.087 -0.0303 -0.6406 -0.8266
 6303TIP3   OH218865   3.574   6.988   0.861 -0.2303 -0.4047 -0.0498
 6303TIP3    H118866   3.516   7.036   0.919 -0.7867 -0.4599 -0.5529
 6303TIP3    H218867   3.520   6.967   0.785  0.3218 -0.8441 -0.3282
 6304TIP3   OH218868   3.247   4.304   1.875  0.4635 -0.6771  0.2101
 6304TIP3    H118869   3.257   4.394   1.844  0.4876 -1.0898 -1.0259
 6304TIP3    H218870   3.299   4.252   1.814  0.4242 -1.5370  0.8983
 6305TIP3   OH218871   7.602   5.790   6.667 -0.1950 -0.3332 -0.8171
 6305TIP3    H118872   7.536   5.746   6.720 -0.5797  0.6533 -0.4478
 6305TIP3    H218873   7.679   5.795   6.723 -0.7817  1.2330 -0.0723
 6306TIP3   OH218874   5.819   2.163   4.317  0.3198  0.0905  0.2231
 6306TIP3    H118875   5.748   2.129   4.372  1.5382  1.0062  2.4913
 6306TIP3    H218876   5.885   2.094   4.318 -0.4466 -0.7742 -1.9143
 6307TIP3   OH218877   4.447   6.995   2.764 -0.0503  0.1633  0.8662
 6307TIP3    H118878   4.445   6.934   2.691 -1.2087  0.0876  0.9375
 6307TIP3    H218879   4.384   7.063   2.741 -0.2764  0.2490  1.6916
 6308TIP3   OH218880   1.979   0.431   4.653  0.2207 -0.2418 -0.2861
 6308TIP3    H118881   1.888   0.461   4.651  0.3247  0.0614 -0.5223
 6308TIP3    H218882   1.973   0.341   4.685 -0.1285 -0.1013  0.0611
 6309TIP3   OH218883   3.590   6.414   0.367  0.1107  0.4842  0.5324
 6309TIP3    H118884   3.648   6.338   0.355 -1.5133 -0.5970 -1.0528
 6309TIP3    H218885   3.526   6.385   0.432 -0.4060  0.5518  0.0601
 6310TIP3   OH218886   0.964   5.602   0.647  0.5572 -0.5264 -0.4983
 6310TIP3    H118887   1.018   5.651   0.710  2.1776 -2.4528 -0.2879
 6310TIP3    H218888   0.876   5.637   0.659  1.5241  1.9985 -0.0555
 6311TIP3   OH218889   2.330   4.224   4.371 -0.2579  0.3600  0.3363
 6311TIP3    H118890   2.332   4.236   4.276  2.3591 -0.3250  0.2140
 6311TIP3    H218891   2.418   4.250   4.400 -0.1541 -1.7725  2.2275
 6312TIP3   OH218892   5.102   2.241   4.430  0.0437 -0.3657  0.0581
 6312TIP3    H118893   5.181   2.251   4.484 -1.6840  0.0586  2.7095
 6312TIP3    H218894   5.077   2.330   4.408 -0.1922 -0.4411  0.0205
 6313TIP3   OH218895   2.732   1.250   3.979  0.5541  0.4800 -0.1046
 6313TIP3    H118896   2.721   1.281   4.069 -0.3986  0.5438 -0.2308
 6313TIP3    H218897   2.822   1.274   3.956  0.4851  1.3621  0.4856
 6314TIP3   OH218898   6.059   1.515   1.243 -0.1286 -0.0279 -0.4911
 6314TIP3    H118899   6.118   1.453   1.285 -0.0601  0.4569  0.1451
 6314TIP3    H218900   6.107   1.545   1.166  0.6751  0.7163  0.2774
 6315TIP3   OH218901   2.524   5.081   4.552 -0.1432 -0.1373 -0.0930
 6315TIP3    H118902   2.460   5.024   4.593  1.5942  0.5003  3.9787
 6315TIP3    H218903   2.482   5.167   4.550 -0.3332 -0.2211  0.2227
 6316TIP3   OH218904   6.634   4.537   4.542 -0.5089  0.0201  0.2945
 6316TIP3    H118905   6.545   4.571   4.539 -1.0084 -1.3133 -1.1621
 6316TIP3    H218906   6.624   4.449   4.580 -0.2216 -1.1660 -2.2127
 6317TIP3   OH218907   0.236   4.591   4.907  0.3978 -0.6930  0.7050
 6317TIP3    H118908   0.237   4.687   4.905 -0.2037 -0.6703 -1.9481
 6317TIP3    H218909   0.144   4.568   4.899  0.6811 -1.4436 -0.7894
 6318TIP3   OH218910   6.023   7.378   1.009  0.2376  0.0309  0.1363
 6318TIP3    H118911   6.085   7.399   1.078 -0.6585 -0.2693  1.0550
 6318TIP3    H218912   5.948   7.339   1.054  0.0075 -1.0335 -1.0809
 6319TIP3   OH218913   4.006   3.442   6.548 -0.7162  0.4871  0.7164
 6319TIP3    H118914   3.971   3.520   6.590 -1.4948  0.9574 -0.7073
 6319TIP3    H218915   4.044   3.390   6.619 -0.4677  2.0049  1.7209
 6320TIP3   OH218916   0.846   4.092   2.144 -0.2773  0.2733 -0.1388
 6320TIP3    H118917   0.895   4.099   2.063  0.2556  0.4871  0.1972
 6320TIP3    H218918   0.807   4.004   2.142  1.2387 -0.4404  0.2136
 6321TIP3   OH218919   2.743   4.759   3.080 -0.4760 -0.0621  0.2131
 6321TIP3    H118920   2.733   4.839   3.028 -1.0342 -0.1423  0.1900
 6321TIP3    H218921   2.704   4.690   3.026 -0.6753 -0.2186  0.5522
 6322TIP3   OH218922   6.399   3.940   6.561  0.6368 -0.3178  0.4822
 6322TIP3    H118923   6.463   3.971   6.625  0.6585  3.9125 -1.2431
 6322TIP3    H218924   6.452   3.908   6.488  0.7971  0.5092  0.2188
 6323TIP3   OH218925   6.443   2.458   1.778 -0.2825  0.3565 -0.0351
 6323TIP3    H118926   6.429   2.496   1.865 -0.6619 -1.5458  0.7922
 6323TIP3    H218927   6.528   2.414   1.784 -0.8286 -0.7671 -0.2298
 6324TIP3   OH218928   1.670   2.297   6.274  0.7238  0.1385  0.7335
 6324TIP3    H118929   1.662   2.206   6.304 -1.6986  0.2108  0.5044
 6324TIP3    H218930   1.664   2.349   6.354  1.2088  0.1254  0.7788
 6325TIP3   OH218931   0.693   3.300   6.104  0.2076  0.1152 -0.1885
 6325TIP3    H118932   0.709   3.296   6.198 -1.5810 -0.0090  0.1553
 6325TIP3    H218933   0.779   3.286   6.064  1.3755  2.1106  1.4073
 6326TIP3   OH218934   1.503   1.866   5.849 -0.2582  0.4321  0.7830
 6326TIP3    H118935   1.569   1.882   5.782 -1.0201 -0.2903 -0.1562
 6326TIP3    H218936   1.554   1.836   5.925  0.6032  1.2218  0.5436
 6327TIP3   OH218937   5.943   6.565   5.748  0.4171  0.2090 -0.1687
 6327TIP3    H118938   5.878   6.633   5.761 -0.7048 -0.9462  0.4482
 6327TIP3    H218939   5.935   6.542   5.655 -1.4648 -1.2385  0.2785
 6328TIP3   OH218940   2.652   7.287   4.652 -0.0351  0.0091 -0.1995
 6328TIP3    H118941   2.683   7.200   4.678 -1.5192  0.1546  2.3852
 6328TIP3    H218942   2.676   7.344   4.725 -0.6180  1.4146 -1.0664
 6329TIP3   OH218943   2.892   6.839   2.695 -0.4393  0.2901 -0.2855
 6329TIP3    H118944   2.805   6.860   2.660 -1.2266 -1.6969  0.3259
 6329TIP3    H218945   2.953   6.886   2.639 -1.9160  2.2055 -0.3966
 6330TIP3   OH218946   6.089   7.350   3.970  0.0135 -0.4703  0.2056
 6330TIP3    H118947   6.066   7.282   3.906 -1.1793 -0.5997  0.7452
 6330TIP3    H218948   6.142   7.304   4.035  0.8457 -0.4370 -0.4196
 6331TIP3   OH218949   3.110   2.420   4.829  0.8351 -0.0512  0.0839
 6331TIP3    H118950   3.153   2.399   4.746 -0.4872  1.2928 -0.9922
 6331TIP3    H218951   3.034   2.473   4.804 -0.2037 -0.5137  2.0867
 6332TIP3   OH218952   2.456   2.453   0.924 -0.0028  0.1808  0.2885
 6332TIP3    H118953   2.452   2.404   0.842  2.8488 -0.2383  0.2836
 6332TIP3    H218954   2.478   2.387   0.990 -1.2642  0.6682  1.2305
 6333TIP3   OH218955   7.184   5.535   5.178 -0.4736 -0.3067 -0.1343
 6333TIP3    H118956   7.113   5.572   5.231  0.7810  2.1731 -0.0182
 6333TIP3    H218957   7.255   5.521   5.239  0.2335  0.4452 -0.7555
 6334TIP3   OH218958   6.585   7.283   3.718  0.1018 -0.0517  0.0357
 6334TIP3    H118959   6.588   7.376   3.694  1.6292 -0.5882 -2.2376
 6334TIP3    H218960   6.584   7.282   3.813  0.8346  2.2899  0.1217
 6335TIP3   OH218961   3.719   6.576   6.037  0.2949 -0.0434  0.1615
 6335TIP3    H118962   3.722   6.527   6.120 -0.3474  0.2273  0.3513
 6335TIP3    H218963   3.637   6.625   6.042  1.0665  1.2902  0.1080
 6336TIP3   OH218964   8.203   1.123   3.191  0.0869 -0.2902 -0.2549
 6336TIP3    H118965   8.219   1.200   3.136 -1.3415 -0.4886 -0.9890
 6336TIP3    H218966   8.289   1.099   3.223  0.5800  1.6471  0.0433
 6337TIP3   OH218967   3.174   4.067   2.787 -0.2264 -0.1438  0.3928
 6337TIP3    H118968   3.161   3.996   2.723 -0.0496  1.0480 -1.0204
 6337TIP3    H218969   3.089   4.110   2.793 -0.4369 -0.6763  1.5425
 6338TIP3   OH218970   2.911   2.752   1.667 -0.0172  0.7879  0.3861
 6338TIP3    H118971   2.829   2.755   1.716 -1.4394  0.9387 -1.8520
 6338TIP3    H218972   2.918   2.838   1.625  1.9468  1.2167  1.4243
 6339TIP3   OH218973   0.142   0.658   2.568  0.1605  0.1868  0.1646
 6339TIP3    H118974   0.189   0.730   2.526 -1.1899  0.8062 -0.3692
 6339TIP3    H218975   0.199   0.631   2.640 -0.0563  3.0422  1.5585
 6340TIP3   OH218976   0.148   2.560   1.073  0.2651  0.1920 -0.0845
 6340TIP3    H118977   0.150   2.634   1.012  1.6209  2.1069  2.1106
 6340TIP3    H218978   0.236   2.522   1.068  0.3041  0.2012  0.4584
 6341TIP3   OH218979   4.376   2.794   3.343  0.0149 -0.2396  0.1764
 6341TIP3    H118980   4.457   2.775   3.295 -0.6035 -0.5928 -0.7572
 6341TIP3    H218981   4.404   2.845   3.419  0.9965  0.6525 -0.7500
 6342TIP3   OH218982   2.290   4.570   2.769 -0.4147 -0.0476 -0.2460
 6342TIP3    H118983   2.205   4.555   2.809 -1.2639  0.3186 -1.8270
 6342TIP3    H218984   2.318   4.485   2.737 -0.0129 -0.2267  0.5437
 6343TIP3   OH218985   5.560   5.102   4.409  0.0890  0.1345  0.1123
 6343TIP3    H118986   5.654   5.115   4.399  0.0054  0.4560 -0.3198
 6343TIP3    H218987   5.522   5.190   4.397 -0.3379 -0.1483 -0.7678
 6344TIP3   OH218988   6.292   5.111   4.353  0.5153  0.2094  0.0407
 6344TIP3    H118989   6.277   5.018   4.340 -0.0068 -0.5090  4.4354
 6344TIP3    H218990   6.218   5.154   4.309 -0.0366 -1.5039 -0.7702
 6345TIP3   OH218991   3.214   7.541   3.601 -0.1239  0.1695 -0.1604
 6345TIP3    H118992   3.244   7.456   3.636  1.9212  0.4326 -1.1407
 6345TIP3    H218993   3.290   7.598   3.608 -0.5021  1.0409 -2.3848
 6346TIP3   OH218994   4.287   3.825   1.168  0.4529 -0.9267  0.0590
 6346TIP3    H118995   4.359   3.863   1.218  0.7036 -1.8575  0.4391
 6346TIP3    H218996   4.271   3.886   1.097  0.7424 -0.0604  0.7256
 6347TIP3   OH218997   7.236   6.540   6.121 -0.0205  0.4547 -0.5121
 6347TIP3    H118998   7.171   6.491   6.171 -0.1353  0.8629 -0.2524
 6347TIP3    H218999   7.273   6.602   6.185  2.4929 -1.4593  0.0964
 6348TIP3   OH219000   2.043   0.609   4.161  0.3567 -0.2118  0.0988
 6348TIP3    H119001   2.034   0.594   4.256  0.9327 -1.5035 -0.0218
 6348TIP3    H219002   2.007   0.529   4.122  1.4035 -0.2918 -0.7245
 6349TIP3   OH219003   8.269   0.340   2.726  0.1319 -0.4484 -0.7112
 6349TIP3    H119004   8.176   0.340   2.747  0.7650  1.0755  2.9540
 6349TIP3    H219005   8.273   0.351   2.631 -3.3820 -0.4503 -0.9694
 6350TIP3   OH219006   6.669   5.162   6.573  0.2344  0.3240  0.2011
 6350TIP3    H119007   6.749   5.214   6.571 -2.4802  5.0697  0.5644
 6350TIP3    H219008   6.652   5.141   6.482  1.0932  0.6200 -0.0373
 6351TIP3   OH219009   3.134   4.838   5.181 -0.2230 -0.4973 -0.4835
 6351TIP3    H119010   3.124   4.875   5.269 -0.4313  0.0707 -0.7422
 6351TIP3    H219011   3.159   4.747   5.197  0.2565 -0.2697  0.1658
 6352TIP3   OH219012   0.824   6.773   5.878  0.6290 -0.2010 -0.7083
 6352TIP3    H119013   0.784   6.687   5.865  2.5248 -0.8542 -2.9847
 6352TIP3    H219014   0.770   6.833   5.826 -0.1045 -0.1742  0.0652
 6353TIP3   OH219015   1.236   5.600   4.571 -0.2565 -0.2812 -0.5135
 6353TIP3    H119016   1.143   5.585   4.554 -0.3427  1.5342 -1.9717
 6353TIP3    H219017   1.258   5.538   4.640 -2.3023 -1.4365 -0.8260
 6354TIP3   OH219018   1.576   5.060   1.764 -0.5508  0.1226  0.0010
 6354TIP3    H119019   1.571   5.129   1.697 -0.8177  1.2731  1.1545
 6354TIP3    H219020   1.525   5.095   1.838  0.0377 -0.9384  0.9425
 6355TIP3   OH219021   5.039   4.694   1.091 -0.3260 -0.0576  0.4122
 6355TIP3    H119022   4.957   4.659   1.125  0.5680 -1.2594  1.4468
 6355TIP3    H219023   5.099   4.690   1.165  0.8639  0.1147 -0.5122
 6356TIP3   OH219024   4.592   2.901   4.008 -0.0802 -0.1200 -0.5090
 6356TIP3    H119025   4.598   2.995   3.992 -0.8584  0.2257  1.1046
 6356TIP3    H219026   4.503   2.878   3.984 -0.1032 -0.3071 -0.2461
 6357TIP3   OH219027   0.421   1.015   6.219 -0.2078  0.4943  0.1765
 6357TIP3    H119028   0.442   0.998   6.311 -2.1842  4.1200  1.5249
 6357TIP3    H219029   0.371   0.939   6.191 -1.6477  0.2643  2.9582
 6358TIP3   OH219030   7.719   5.873   5.267  0.4604 -0.4282  0.0360
 6358TIP3    H119031   7.807   5.872   5.227 -0.5239  1.1405 -2.3871
 6358TIP3    H219032   7.682   5.788   5.243  0.5126 -0.1860 -0.9540
 6359TIP3   OH219033   3.700   5.957   5.357  0.2596 -0.1035 -0.3439
 6359TIP3    H119034   3.682   5.962   5.263  0.5166 -2.6068 -0.6092
 6359TIP3    H219035   3.616   5.935   5.397  0.3243  0.1004 -0.0946
 6360TIP3   OH219036   4.980   4.970   4.438  0.0852 -0.2944 -0.6165
 6360TIP3    H119037   5.072   4.978   4.415  0.6156 -1.0663  1.0856
 6360TIP3    H219038   4.959   5.052   4.483 -0.3216  0.2350 -1.7202
 6361TIP3   OH219039   7.964   5.642   4.907  0.6263 -0.3966 -0.3869
 6361TIP3    H119040   8.029   5.575   4.928  0.0093 -0.5745  1.0396
 6361TIP3    H219041   7.953   5.692   4.988 -1.7474 -1.0032 -0.2775
 6362TIP3   OH219042   2.330   7.494   1.248 -0.4474 -0.3615 -0.1329
 6362TIP3    H119043   2.305   7.583   1.227  0.2672  0.8387  3.4553
 6362TIP3    H219044   2.259   7.461   1.302  0.2849 -1.1678  0.3690
 6363TIP3   OH219045   5.119   5.162   3.897 -0.1319 -0.1871  0.1853
 6363TIP3    H119046   5.030   5.135   3.875  0.0042 -0.1744 -0.3814
 6363TIP3    H219047   5.109   5.251   3.933 -0.4129 -0.4210  0.6935
 6364TIP3   OH219048   5.550   7.655   0.225  0.3146  0.0337 -0.0361
 6364TIP3    H119049   5.617   7.590   0.242  1.6097  1.3762  0.2562
 6364TIP3    H219050   5.598   7.738   0.218 -1.3806  1.1910  1.0940
 6365TIP3   OH219051   6.965   4.272   0.520 -0.0431 -0.9373  0.2305
 6365TIP3    H119052   7.018   4.328   0.576  1.5753 -2.1305 -0.0521
 6365TIP3    H219053   6.952   4.324   0.441  0.5726 -0.5646  0.3660
 6366TIP3   OH219054   1.314   2.837   3.548  0.3762 -0.1387  0.1449
 6366TIP3    H119055   1.309   2.813   3.641 -2.1808 -0.8627 -0.0933
 6366TIP3    H219056   1.248   2.906   3.538  0.1590 -0.5130 -1.2390
 6367TIP3   OH219057   5.996   3.534   3.052  0.4023 -0.4153  0.9352
 6367TIP3    H119058   5.910   3.495   3.065 -0.4808  1.9161  2.9606
 6367TIP3    H219059   6.014   3.521   2.959 -3.0166  0.5775 -0.0236
 6368TIP3   OH219060   7.934   0.038   1.248  0.6812  0.0061 -0.7686
 6368TIP3    H119061   7.957   0.123   1.212 -0.3177  0.0866 -1.2556
 6368TIP3    H219062   7.911  -0.016   1.172 -1.6211  0.2348 -0.3137
 6369TIP3   OH219063   8.075   5.621   3.057 -0.1769 -0.0850  0.8818
 6369TIP3    H119064   7.985   5.653   3.054 -0.1575  0.0983  1.7788
 6369TIP3    H219065   8.107   5.648   3.144 -0.1594 -2.5266  1.6938
 6370TIP3   OH219066   8.032   4.836   3.775  0.1163 -0.3530 -0.0745
 6370TIP3    H119067   7.984   4.880   3.705 -0.4260 -0.5931  0.1498
 6370TIP3    H219068   8.062   4.908   3.831 -0.6818 -0.2620  0.2345
 6371TIP3   OH219069   8.075   1.066   0.452 -0.2061 -0.4829  0.0527
 6371TIP3    H119070   7.980   1.077   0.447 -0.1199 -0.0658 -0.8308
 6371TIP3    H219071   8.094   1.061   0.546 -0.9527  0.8964  0.3070
 6372TIP3   OH219072   7.510   7.080   4.419  0.4375 -0.0086  0.4890
 6372TIP3    H119073   7.504   7.006   4.479  0.8598  0.2966  0.9158
 6372TIP3    H219074   7.592   7.066   4.372  0.6236  0.2875  0.7180
 6373TIP3   OH219075   0.986   4.128   5.097  0.1043  0.1935 -0.3501
 6373TIP3    H119076   1.058   4.185   5.122 -1.2143  2.1965 -0.9005
 6373TIP3    H219077   0.988   4.056   5.161  2.0974  0.5888  0.0778
 6374TIP3   OH219078   2.747   2.759   3.099 -0.0281 -0.4550 -0.6744
 6374TIP3    H119079   2.744   2.677   3.149  0.8151 -1.5150 -2.2563
 6374TIP3    H219080   2.818   2.809   3.140 -0.9718 -0.1953  0.7111
 6375TIP3   OH219081   4.903   1.884   3.591  0.0535 -0.1570 -0.2418
 6375TIP3    H119082   4.851   1.873   3.511 -0.9236 -0.3980  0.4106
 6375TIP3    H219083   4.987   1.842   3.571 -0.9518 -2.2054 -0.3935
 6376TIP3   OH219084   0.065   2.114   0.477  0.3005  1.1154 -0.1080
 6376TIP3    H119085   0.143   2.100   0.530  1.3978  2.4407 -1.3049
 6376TIP3    H219086   0.000   2.150   0.538  0.1343 -1.1696  1.1741
 6377TIP3   OH219087   3.423   6.704   3.885 -0.3849  0.0559  0.3715
 6377TIP3    H119088   3.478   6.663   3.952 -1.6571 -1.8094  0.3687
 6377TIP3    H219089   3.433   6.648   3.808 -1.8037 -0.0228  0.2066
 6378TIP3   OH219090   4.092   1.672   6.585  0.2241 -0.0059  0.6779
 6378TIP3    H119091   3.998   1.658   6.596  0.4135 -0.9458  1.1669
 6378TIP3    H219092   4.107   1.760   6.621 -0.5845  0.4805 -0.1335
 6379TIP3   OH219093   4.710   1.879   1.576 -0.3709 -0.0280  0.5596
 6379TIP3    H119094   4.648   1.927   1.632 -0.6373  0.1257  0.1384
 6379TIP3    H219095   4.767   1.947   1.540 -1.4102  0.1258 -0.8793
 6380TIP3   OH219096   7.312   1.332   2.987 -0.2898 -0.2666  0.1449
 6380TIP3    H119097   7.248   1.316   2.918  2.3362 -0.3746 -2.5099
 6380TIP3    H219098   7.303   1.257   3.046 -1.4488 -1.1768 -1.1083
 6381TIP3   OH219099   7.333   5.827   0.542  0.1663 -0.1137 -0.4724
 6381TIP3    H119100   7.424   5.803   0.522 -0.0322 -0.3364 -1.1553
 6381TIP3    H219101   7.309   5.774   0.617  0.3235 -0.7062 -0.8394
 6382TIP3   OH219102   0.723   2.649   3.099  0.3496  0.5340  0.2711
 6382TIP3    H119103   0.817   2.633   3.112  0.3311  0.2511  0.0724
 6382TIP3    H219104   0.680   2.580   3.149  0.2599  0.2761 -0.1572
 6383TIP3   OH219105   1.634   2.767   0.908 -0.0626  0.1225  0.4102
 6383TIP3    H119106   1.588   2.770   0.992 -0.2160 -1.2730  0.3869
 6383TIP3    H219107   1.592   2.696   0.860 -0.1079  1.0439 -0.9453
 6384TIP3   OH219108   5.037   0.344   0.324  0.7606  0.5522  0.0090
 6384TIP3    H119109   5.074   0.255   0.326  1.5433  0.7871 -1.8092
 6384TIP3    H219110   4.977   0.347   0.399 -0.7782 -2.1604 -0.9721
 6385TIP3   OH219111   0.506   6.080   2.876 -0.3231 -0.1947 -0.2704
 6385TIP3    H119112   0.543   6.028   2.805  0.2250  0.2140 -0.2889
 6385TIP3    H219113   0.512   6.170   2.846  0.8787  0.0876  0.7000
 6386TIP3   OH219114   0.484   5.496   2.202 -0.4437 -0.5231 -0.1684
 6386TIP3    H119115   0.416   5.544   2.155 -0.4057  0.0911  0.3911
 6386TIP3    H219116   0.534   5.563   2.248 -0.2895 -1.0844  0.4974
 6387TIP3   OH219117   2.944   0.803   4.385  0.6614 -0.2696 -0.0526
 6387TIP3    H119118   2.996   0.879   4.359 -2.4014  1.4824 -1.5720
 6387TIP3    H219119   2.915   0.824   4.474 -0.1473  0.3768 -0.4539
 6388TIP3   OH219120   5.647   3.705   4.043 -0.0729  0.6289 -0.5000
 6388TIP3    H119121   5.580   3.683   3.978 -0.6757  0.5421  0.1310
 6388TIP3    H219122   5.604   3.766   4.102  0.5398  0.8935 -0.3172
 6389TIP3   OH219123   4.036   6.995   2.417 -0.3671 -0.3870 -0.0397
 6389TIP3    H119124   4.063   6.965   2.330  1.1869  1.7215 -0.3623
 6389TIP3    H219125   3.949   7.031   2.404 -0.6136 -1.1080 -0.4607
 6390TIP3   OH219126   8.178   3.806   3.832 -0.1684 -0.3334  0.2788
 6390TIP3    H119127   8.243   3.877   3.840  1.0057 -1.2981 -0.4311
 6390TIP3    H219128   8.126   3.830   3.756 -0.6736  0.4477  0.8514
 6391TIP3   OH219129   5.079   5.404   5.691 -0.1561 -0.1629 -0.4387
 6391TIP3    H119130   5.155   5.447   5.732  0.2876 -0.4406 -0.9587
 6391TIP3    H219131   5.104   5.312   5.685 -1.6984 -0.8366  2.0549
 6392TIP3   OH219132   3.955   5.386   0.205 -0.1348 -0.5354  0.1278
 6392TIP3    H119133   3.916   5.451   0.263  1.3899  0.3962  0.1906
 6392TIP3    H219134   3.881   5.340   0.166 -1.2954  1.4436 -0.1320
 6393TIP3   OH219135   4.256   7.318   4.949 -0.2289  0.7970  0.1905
 6393TIP3    H119136   4.321   7.301   4.880 -1.7851  0.2145 -1.2081
 6393TIP3    H219137   4.282   7.260   5.021  0.1104 -0.3579 -0.8179
 6394TIP3   OH219138   0.698   7.559   2.718 -0.4836 -0.7387 -0.5072
 6394TIP3    H119139   0.687   7.641   2.670  0.2634  0.4530  1.2699
 6394TIP3    H219140   0.612   7.516   2.713 -1.0399  0.4011 -0.9879
 6395TIP3   OH219141   0.499   6.019   0.173  0.0049  0.5329 -0.2918
 6395TIP3    H119142   0.439   5.983   0.109  0.7034  0.3573 -0.8678
 6395TIP3    H219143   0.462   6.104   0.196  0.0192  0.8362 -1.3403
 6396TIP3   OH219144   5.568   3.492   1.130 -0.1025  0.4745 -0.3194
 6396TIP3    H119145   5.550   3.433   1.057 -0.6451  0.6600 -0.3416
 6396TIP3    H219146   5.548   3.441   1.208 -0.1996  0.5078 -0.3234
 6397TIP3   OH219147   5.660   0.901   1.453 -0.0935 -0.3313  0.1130
 6397TIP3    H119148   5.752   0.927   1.453  0.6400 -2.6545  0.6256
 6397TIP3    H219149   5.642   0.878   1.362  0.0915 -0.5954  0.1391
 6398TIP3   OH219150   6.318   1.718   4.407  0.1586  0.2184 -0.2746
 6398TIP3    H119151   6.239   1.754   4.366 -0.9746 -1.1147  0.6119
 6398TIP3    H219152   6.305   1.735   4.501  1.2833  0.6094 -0.1822
 6399TIP3   OH219153   7.291   4.999   1.245 -0.2041 -0.1086 -0.0824
 6399TIP3    H119154   7.305   5.072   1.184 -2.0236 -0.0994 -0.5461
 6399TIP3    H219155   7.377   4.985   1.286  0.1141  2.6000  0.3645
 6400TIP3   OH219156   3.469   6.977   1.546  0.3560 -0.2346  0.4230
 6400TIP3    H119157   3.424   6.896   1.520 -0.3849  0.3222 -0.0529
 6400TIP3    H219158   3.406   7.024   1.600  0.8230 -0.0113  0.7805
 6401TIP3   OH219159   4.030   5.890   1.525  0.5449  0.4268  0.4856
 6401TIP3    H119160   3.978   5.964   1.492 -0.8215  0.2271  2.0358
 6401TIP3    H219161   4.021   5.822   1.459  1.4102  1.4368 -0.7281
 6402TIP3   OH219162   6.017   3.980   3.226 -0.2154  0.3617 -0.0354
 6402TIP3    H119163   5.972   3.902   3.194 -1.3400  0.6983  0.6517
 6402TIP3    H219164   6.017   3.970   3.322 -0.1805  1.0964  0.0497
 6403TIP3   OH219165   4.539   7.596   2.891  0.6138 -0.1742 -0.2559
 6403TIP3    H119166   4.474   7.571   2.825 -0.7871  2.4608 -0.0271
 6403TIP3    H219167   4.507   7.556   2.972 -0.3441  0.4423 -0.3076
 6404TIP3   OH219168   5.897   6.360   6.194 -0.5927  0.2397 -0.1623
 6404TIP3    H119169   5.831   6.428   6.208 -1.7879 -0.6394 -1.3410
 6404TIP3    H219170   5.908   6.357   6.099 -2.1489 -2.6280 -0.3387
 6405TIP3   OH219171   3.227   6.651   6.313 -0.6463  0.2595  0.0367
 6405TIP3    H119172   3.149   6.708   6.314 -0.2600  0.8044  0.7940
 6405TIP3    H219173   3.204   6.580   6.254 -0.6591  1.8925 -2.0372
 6406TIP3   OH219174   3.293   1.830   5.800  0.1275 -0.0579  0.6288
 6406TIP3    H119175   3.273   1.924   5.808  0.2267  0.0844 -0.6413
 6406TIP3    H219176   3.386   1.824   5.819  0.2378  0.1871  0.1914
 6407TIP3   OH219177   2.293   1.493   2.233  0.5824 -0.4250  0.2646
 6407TIP3    H119178   2.365   1.459   2.287 -0.1393  0.2366  1.7074
 6407TIP3    H219179   2.336   1.536   2.160  1.6060 -1.2630  0.3460
 6408TIP3   OH219180   3.914   0.034   6.635  0.2163  0.3516 -0.3344
 6408TIP3    H119181   3.859   0.057   6.710 -0.1590 -1.6452  0.0786
 6408TIP3    H219182   3.980  -0.026   6.671 -1.2163 -2.3354 -1.8711
 6409TIP3   OH219183   7.260   4.184   3.666  0.0393  0.2197 -0.1770
 6409TIP3    H119184   7.228   4.244   3.600 -0.9243  0.5782  0.5899
 6409TIP3    H219185   7.335   4.228   3.705 -0.6421  0.9237  0.3588
 6410TIP3   OH219186   0.294   5.438   2.539  0.1738  0.1629  0.4790
 6410TIP3    H119187   0.362   5.388   2.583  0.3288 -1.3381 -1.3485
 6410TIP3    H219188   0.214   5.387   2.553  0.0997  0.0436 -0.3348
 6411TIP3   OH219189   4.700   2.095   5.474 -0.4473 -0.0732  0.0461
 6411TIP3    H119190   4.780   2.047   5.453  0.3287  2.5198 -3.8958
 6411TIP3    H219191   4.725   2.154   5.545  0.5676 -0.6563  0.1928
 6412TIP3   OH219192   3.989   4.530   1.657  0.2990  0.4754  0.4683
 6412TIP3    H119193   3.985   4.449   1.709 -2.9042 -0.5253 -1.0506
 6412TIP3    H219194   4.039   4.506   1.579  0.8474  0.4822  0.8166
 6413TIP3   OH219195   5.145   3.746   3.155 -0.3147  0.4141 -0.3505
 6413TIP3    H119196   5.127   3.815   3.092  0.5594  0.5604 -0.4610
 6413TIP3    H219197   5.181   3.674   3.103  1.7143  1.0337  0.0828
 6414TIP3   OH219198   5.591   1.623   5.463 -0.0167 -0.0749  0.2492
 6414TIP3    H119199   5.575   1.638   5.556  0.4331 -1.1395  0.5134
 6414TIP3    H219200   5.504   1.625   5.423 -0.1077  1.7202  0.4584
 6415TIP3   OH219201   4.961   5.663   5.690  0.6443 -0.5643  0.7198
 6415TIP3    H119202   4.997   5.577   5.667  0.6797 -0.1568 -0.8780
 6415TIP3    H219203   4.887   5.643   5.747  1.7004 -1.5549  1.8041
 6416TIP3   OH219204   6.911   3.232   0.807  0.5077  0.2801  0.0695
 6416TIP3    H119205   6.927   3.327   0.798  0.8134  0.2112 -0.1490
 6416TIP3    H219206   6.926   3.214   0.900  2.6404  0.0736 -0.2489
 6417TIP3   OH219207   2.429   3.100   3.245  0.5220 -0.2048  0.7440
 6417TIP3    H119208   2.502   3.084   3.186  0.7267  1.0867  0.6083
 6417TIP3    H219209   2.417   3.195   3.244 -0.3409 -0.2716  1.7404
 6418TIP3   OH219210   5.845   3.764   1.598 -0.2928 -0.4297  0.1632
 6418TIP3    H119211   5.834   3.770   1.503 -0.2358 -0.5543  0.1488
 6418TIP3    H219212   5.875   3.675   1.614  0.7637 -0.0851  0.1906
 6419TIP3   OH219213   6.427   0.578   2.785 -0.3911  0.5702 -0.2263
 6419TIP3    H119214   6.452   0.616   2.701 -0.4567 -0.4920 -0.7437
 6419TIP3    H219215   6.469   0.634   2.851  2.0960 -0.2819 -1.0192
 6420TIP3   OH219216   6.433   6.094   4.243  0.1859 -0.4738  0.0028
 6420TIP3    H119217   6.427   6.131   4.331 -0.0311 -0.3475 -0.0645
 6420TIP3    H219218   6.458   6.168   4.187 -0.9840 -0.2565 -0.2539
 6421TIP3   OH219219   8.028   0.143   6.166 -0.1511 -0.2840  0.0589
 6421TIP3    H119220   8.090   0.157   6.094 -2.0258  1.5543 -1.3337
 6421TIP3    H219221   7.957   0.091   6.127 -0.3435 -0.8614  1.1247
 6422TIP3   OH219222   5.343  -0.035   6.769  0.1906  0.4599 -0.4404
 6422TIP3    H119223   5.408   0.004   6.710  2.4050 -0.3565  1.2712
 6422TIP3    H219224   5.311   0.038   6.821  1.3913  0.6229  0.1144
 6423TIP3   OH219225   3.527   4.092   5.899  0.3677  0.0439  0.3499
 6423TIP3    H119226   3.445   4.077   5.946 -0.4241 -1.1204 -1.2958
 6423TIP3    H219227   3.555   4.179   5.926 -1.5184  0.5579  0.8013
 6424TIP3   OH219228   3.687   1.326   5.955 -0.0114 -0.0596 -0.0487
 6424TIP3    H119229   3.608   1.306   5.904 -0.6967 -1.2465  1.3933
 6424TIP3    H219230   3.725   1.240   5.975  0.2933  0.3723  1.3181
 6425TIP3   OH219231   7.712   0.631   2.438  0.9141 -0.0063  1.1388
 6425TIP3    H119232   7.665   0.580   2.372  0.7641  0.5779  0.7885
 6425TIP3    H219233   7.787   0.669   2.391  1.7585 -0.9422  1.6935
 6426TIP3   OH219234   5.894   5.577   2.464  0.2326  0.4345 -1.1224
 6426TIP3    H119235   5.897   5.561   2.370 -1.3182  0.2394 -1.1732
 6426TIP3    H219236   5.946   5.656   2.477  0.7776  0.2520 -2.0886
 6427TIP3   OH219237   3.445   0.456   3.852  0.5159 -0.1302  0.0028
 6427TIP3    H119238   3.478   0.379   3.897 -1.3877 -0.3181  1.1585
 6427TIP3    H219239   3.369   0.483   3.902  0.1215  1.4999 -1.3695
 6428TIP3   OH219240   6.775   3.937   3.694  0.5296  0.0687 -0.1115
 6428TIP3    H119241   6.836   4.010   3.682 -0.8760  1.0586 -1.6151
 6428TIP3    H219242   6.807   3.869   3.635  1.1035 -0.0584  0.3337
 6429TIP3   OH219243   2.065   4.298   0.117 -0.0572 -0.0901  0.2399
 6429TIP3    H119244   2.060   4.263   0.206 -0.3695 -0.5634  0.0417
 6429TIP3    H219245   1.975   4.291   0.084  0.2823 -1.0267 -0.5251
 6430TIP3   OH219246   6.422   3.879   1.512  0.2662  0.2130  0.5531
 6430TIP3    H119247   6.342   3.886   1.459  0.5703  2.5301  0.2621
 6430TIP3    H219248   6.403   3.929   1.592  1.6326  1.5267  0.1233
 6431TIP3   OH219249   8.142   2.993   4.368  0.3926 -0.0630  0.1502
 6431TIP3    H119250   8.120   3.082   4.342  0.3072  0.0960  0.7487
 6431TIP3    H219251   8.230   2.979   4.335  0.2398  0.0806 -0.3320
 6432TIP3   OH219252   1.553   4.688   2.666 -0.3866 -0.4340 -0.8384
 6432TIP3    H119253   1.519   4.777   2.661 -1.6437 -0.9529 -1.9624
 6432TIP3    H219254   1.618   4.683   2.596  0.8905  0.0511  0.2568
 6433TIP3   OH219255   8.078   3.997   6.225 -0.0138  0.1710  0.6983
 6433TIP3    H119256   8.148   4.046   6.181 -0.5555 -1.1181 -1.8056
 6433TIP3    H219257   8.042   4.058   6.289  0.1081  2.6628 -1.4448
 6434TIP3   OH219258   0.489   0.600   3.194 -0.5810 -0.3477 -0.4108
 6434TIP3    H119259   0.528   0.683   3.223 -1.6034  0.0241 -0.0650
 6434TIP3    H219260   0.427   0.625   3.125  0.8144 -1.0845 -2.0264
 6435TIP3   OH219261   3.757   6.943   3.294  0.2204 -0.6546  0.3805
 6435TIP3    H119262   3.734   6.985   3.212  1.8690  1.1152  0.7675
 6435TIP3    H219263   3.706   6.861   3.294 -1.6351  0.4146 -1.2616
 6436TIP3   OH219264   1.180   0.483   5.744 -0.5666  0.0735  0.7930
 6436TIP3    H119265   1.174   0.518   5.833  0.8264 -2.2368  1.8889
 6436TIP3    H219266   1.215   0.555   5.692  0.4421  0.9129  2.5461
 6437TIP3   OH219267   6.052   5.880   4.833 -0.1654 -0.1390 -0.1053
 6437TIP3    H119268   5.977   5.894   4.775  1.0522 -0.6216 -1.9029
 6437TIP3    H219269   6.129   5.891   4.776  1.0810 -1.6921  1.1676
 6438TIP3   OH219270   4.787   2.076   3.324  0.0219 -0.9272 -0.7410
 6438TIP3    H119271   4.730   2.011   3.366 -0.2071 -0.3262 -0.0935
 6438TIP3    H219272   4.826   2.030   3.250 -1.3340 -1.3638 -1.2258
 6439TIP3   OH219273   4.177   5.319   3.545  0.1271 -0.7332 -0.1124
 6439TIP3    H119274   4.272   5.316   3.536  0.0033 -0.6959 -1.5602
 6439TIP3    H219275   4.148   5.382   3.480 -0.8151  0.1181  1.0809
 6440TIP3   OH219276   1.298   4.645   2.905 -0.1737 -0.0283 -0.0891
 6440TIP3    H119277   1.361   4.693   2.959 -0.4587  1.1633 -0.7739
 6440TIP3    H219278   1.346   4.625   2.825 -0.1339 -0.6771  0.0941
 6441TIP3   OH219279   3.102   5.014   6.049  0.6894  0.0898  0.3017
 6441TIP3    H119280   3.194   5.018   6.076  0.7940 -1.2482  0.2329
 6441TIP3    H219281   3.103   4.968   5.965 -0.0540 -0.0940  0.3846
 6442TIP3   OH219282   7.399   0.129   3.915 -0.6309 -0.5270  0.4589
 6442TIP3    H119283   7.388   0.090   3.829  0.1612 -0.0874  0.1458
 6442TIP3    H219284   7.325   0.188   3.926 -1.0727 -1.0609  0.3471
 6443TIP3   OH219285   3.802   6.305   5.944 -0.6569 -0.2197 -0.2412
 6443TIP3    H119286   3.844   6.258   6.016  1.3851  1.1894 -0.4404
 6443TIP3    H219287   3.798   6.396   5.973  1.1522  0.5744 -2.2302
 6444TIP3   OH219288   2.843   3.353   1.306 -0.4214  0.5673 -0.2266
 6444TIP3    H119289   2.905   3.312   1.366  0.3443  0.4004 -1.1206
 6444TIP3    H219290   2.799   3.419   1.359 -0.0556  0.1477  0.6272
 6445TIP3   OH219291   5.786   1.232   2.968 -0.1320  0.1107  0.2155
 6445TIP3    H119292   5.691   1.219   2.961 -0.0503 -0.3404 -0.1395
 6445TIP3    H219293   5.801   1.245   3.061 -0.4258 -0.8841  0.4243
 6446TIP3   OH219294   0.077   6.592   1.529 -0.2226  0.2070 -0.1442
 6446TIP3    H119295   0.013   6.631   1.469 -2.0619 -3.1665 -0.6370
 6446TIP3    H219296   0.058   6.634   1.614 -0.0756  2.3750 -1.1195
 6447TIP3   OH219297   5.561   3.961   2.669 -0.0972 -0.2975 -0.1250
 6447TIP3    H119298   5.504   3.910   2.612 -1.7594  0.9385  0.3501
 6447TIP3    H219299   5.527   4.050   2.663  2.0451  0.5896 -0.1055
 6448TIP3   OH219300   5.815   3.647   1.163  0.5219  0.8276 -0.1067
 6448TIP3    H119301   5.836   3.604   1.245  2.6156  0.8108 -0.5979
 6448TIP3    H219302   5.738   3.601   1.130 -0.3962  0.8870  1.8394
 6449TIP3   OH219303   6.625   2.331   1.931 -0.0020 -0.2658  0.2989
 6449TIP3    H119304   6.552   2.320   1.992  1.3568  1.7606  2.4865
 6449TIP3    H219305   6.667   2.245   1.928 -1.1747 -0.8757  0.7912
 6450TIP3   OH219306   3.608   5.930   3.488 -0.1621  0.2366  0.2552
 6450TIP3    H119307   3.602   5.835   3.478  0.2475  0.2860 -0.5495
 6450TIP3    H219308   3.627   5.962   3.399  0.7980  0.9784  0.7137
 6451TIP3   OH219309   6.029   6.035   0.791  0.0727 -0.4189 -0.0833
 6451TIP3    H119310   5.979   6.036   0.873  0.4424 -2.0818  0.1857
 6451TIP3    H219311   6.063   6.125   0.783 -1.8525  0.3968  0.3745
 6452TIP3   OH219312   2.854   4.375   0.757  0.0040  0.1412  0.1380
 6452TIP3    H119313   2.808   4.421   0.686  1.2434 -0.4419 -1.0928
 6452TIP3    H219314   2.783   4.339   0.811 -1.0804 -1.5585 -2.2290
 6453TIP3   OH219315   6.848   3.977   5.536 -0.3053 -0.1883  0.2183
 6453TIP3    H119316   6.928   4.015   5.501 -1.1996 -0.0209 -1.8187
 6453TIP3    H219317   6.877   3.909   5.596  1.3428  0.3809  0.0996
 6454TIP3   OH219318   3.751   5.688   6.709  0.2298 -0.1176  0.2648
 6454TIP3    H119319   3.803   5.610   6.728  1.5127  0.7147  0.3167
 6454TIP3    H219320   3.806   5.740   6.650 -0.0691  1.2701  1.1431
 6455TIP3   OH219321   6.052   5.364   5.502 -0.2768 -0.5743 -0.0683
 6455TIP3    H119322   6.143   5.334   5.498 -0.3769 -0.7370 -1.4211
 6455TIP3    H219323   6.051   5.428   5.573  1.0144 -0.1631 -0.3938
 6456TIP3   OH219324   5.804   1.678   3.912 -0.3173 -0.3352  0.1868
 6456TIP3    H119325   5.799   1.757   3.857 -0.6430 -0.2150  0.3860
 6456TIP3    H219326   5.871   1.625   3.870  0.5108  0.4187  0.5267
 6457TIP3   OH219327   7.751   6.636   3.039 -0.1562  0.0521  0.6293
 6457TIP3    H119328   7.831   6.657   3.087 -0.6341  0.1168  1.4306
 6457TIP3    H219329   7.757   6.542   3.022  1.2532  0.4799 -1.5730
 6458TIP3   OH219330   0.674   1.588   2.945 -0.2304  0.4082  0.1557
 6458TIP3    H119331   0.648   1.680   2.945  0.3350  0.6440  2.8423
 6458TIP3    H219332   0.768   1.590   2.961  0.1040 -0.6620 -1.3935
 6459TIP3   OH219333   4.350   4.226   4.281  0.2558 -0.1555 -0.0534
 6459TIP3    H119334   4.396   4.309   4.293 -0.3994  0.0569  1.1383
 6459TIP3    H219335   4.418   4.159   4.290  0.2790  0.0946  2.7471
 6460TIP3   OH219336   7.997   5.934   3.935 -0.1476 -0.3381  0.1179
 6460TIP3    H119337   8.004   5.862   3.872  1.2279 -2.0901  2.1529
 6460TIP3    H219338   7.918   5.915   3.985  0.7240 -1.0045  1.2810
 6461TIP3   OH219339   6.314   6.722   6.412 -0.6068 -0.7117 -0.1069
 6461TIP3    H119340   6.381   6.661   6.444  0.2818 -0.7121 -1.8454
 6461TIP3    H219341   6.257   6.668   6.357  1.5139  0.2770 -3.5893
 6462TIP3   OH219342   5.413   4.093   5.184 -0.2898 -0.2980  0.5550
 6462TIP3    H119343   5.486   4.054   5.231 -1.1000 -0.3650  1.8142
 6462TIP3    H219344   5.369   4.018   5.143  1.1651 -0.1114 -1.4862
 6463TIP3   OH219345   7.427   1.570   3.098  0.4303  0.1945 -0.3561
 6463TIP3    H119346   7.386   1.492   3.060  0.8284 -1.2624  1.9799
 6463TIP3    H219347   7.517   1.568   3.065  0.4490 -0.3631 -0.2780
 6464TIP3   OH219348   3.879   5.478   5.116  0.2507 -0.5626  0.0775
 6464TIP3    H119349   3.916   5.528   5.189  2.2420  1.0847 -1.9064
 6464TIP3    H219350   3.950   5.420   5.089 -0.5260 -1.3017 -0.4031
 6465TIP3   OH219351   5.325   5.823   1.534  0.4478  0.2719  0.7053
 6465TIP3    H119352   5.345   5.915   1.552  2.2672 -0.0017  0.2910
 6465TIP3    H219353   5.307   5.785   1.620  2.1949  0.4966  1.2164
 6466TIP3   OH219354   3.495   6.480   3.745  0.4035 -0.4708 -0.2253
 6466TIP3    H119355   3.462   6.436   3.667 -2.6854  0.7805  0.2446
 6466TIP3    H219356   3.477   6.419   3.816 -0.8608  0.1647  0.0186
 6467TIP3   OH219357   0.135   0.744   1.507  0.2663 -0.4468 -0.4211
 6467TIP3    H119358   0.146   0.746   1.602 -0.4526 -0.3748 -0.3387
 6467TIP3    H219359   0.171   0.828   1.477  2.9885 -1.5249 -0.5083
 6468TIP3   OH219360   3.793   3.163   6.621  0.5352 -0.5979 -0.1092
 6468TIP3    H119361   3.821   3.169   6.530 -0.4393 -1.5025 -0.4954
 6468TIP3    H219362   3.868   3.128   6.668  2.1794  2.8045  0.0632
 6469TIP3   OH219363   2.225   6.879   1.401 -0.2149  0.2300 -0.2488
 6469TIP3    H119364   2.232   6.898   1.308 -0.6038 -0.4424 -0.4186
 6469TIP3    H219365   2.150   6.819   1.409  0.0140  0.0173  0.4509
 6470TIP3   OH219366   4.839   4.495   3.225  0.2608 -0.1004 -0.3776
 6470TIP3    H119367   4.809   4.498   3.316 -1.2530 -3.9408 -0.5613
 6470TIP3    H219368   4.895   4.417   3.221  1.9236  1.0843 -2.3770
 6471TIP3   OH219369   4.309   6.595   1.912 -0.0490 -0.1580 -0.2076
 6471TIP3    H119370   4.386   6.551   1.947 -0.6274 -1.8577 -0.9896
 6471TIP3    H219371   4.335   6.620   1.823 -0.3612 -0.6451 -0.4372
 6472TIP3   OH219372   5.293   4.391   4.560  0.7381 -0.0605 -0.3784
 6472TIP3    H119373   5.317   4.387   4.468  0.2024  0.4368 -0.5449
 6472TIP3    H219374   5.201   4.365   4.562  1.0280 -1.1105  0.1490
 6473TIP3   OH219375   7.065   2.232   5.293  0.6346 -0.0804 -0.5721
 6473TIP3    H119376   7.105   2.191   5.217  0.5116 -0.0070 -0.6754
 6473TIP3    H219377   7.139   2.270   5.341  0.6900  0.0486 -0.7603
 6474TIP3   OH219378   5.761   3.221   4.208 -0.6807  0.0363  0.1534
 6474TIP3    H119379   5.831   3.286   4.202 -0.6510 -0.0677 -0.8794
 6474TIP3    H219380   5.699   3.258   4.271  0.5495 -0.1287  1.5194
 6475TIP3   OH219381   3.400   1.033   4.133  0.2681 -0.3577  0.0143
 6475TIP3    H119382   3.413   1.128   4.140 -1.1781 -0.2273  1.8992
 6475TIP3    H219383   3.315   1.023   4.091  0.1605 -0.8004  0.3303
 6476TIP3   OH219384   5.957   3.767   0.419  0.3755  0.4533  0.0059
 6476TIP3    H119385   5.974   3.708   0.493  0.2484 -1.7820 -1.6458
 6476TIP3    H219386   5.929   3.709   0.348 -0.9334  2.6493 -1.3982
 6477TIP3   OH219387   7.082   0.296   3.394 -0.1649 -0.3820 -0.8541
 6477TIP3    H119388   7.164   0.268   3.434 -0.2611  0.2698 -0.1943
 6477TIP3    H219389   7.059   0.223   3.336  0.5580 -0.8413 -0.5902
 6478TIP3   OH219390   3.566   1.350   1.998  0.1518  0.0512  0.0831
 6478TIP3    H119391   3.593   1.367   1.908  0.7073 -0.7491  0.0883
 6478TIP3    H219392   3.480   1.308   1.991  0.4164 -0.4697 -0.1090
 6479TIP3   OH219393   4.568   2.718   4.334 -0.1219  0.1164  0.0216
 6479TIP3    H119394   4.476   2.693   4.325 -0.0540 -0.2016  0.1831
 6479TIP3    H219395   4.613   2.670   4.264 -0.0694  0.2230 -0.0184
 6480TIP3   OH219396   0.933   6.379   4.166 -0.0036 -0.3654 -0.3342
 6480TIP3    H119397   0.966   6.374   4.076 -2.2837 -1.5674 -1.1859
 6480TIP3    H219398   0.916   6.472   4.180  1.8610  0.0367 -0.5292
 6481TIP3   OH219399   5.205   6.797   4.023 -0.0174 -0.5449  0.5324
 6481TIP3    H119400   5.201   6.834   4.111  0.6823 -0.0980  0.3859
 6481TIP3    H219401   5.168   6.865   3.966  0.3362 -0.4761  0.3822
 6482TIP3   OH219402   3.700   1.897   6.122 -0.2596  0.3269 -0.0666
 6482TIP3    H119403   3.785   1.868   6.091  0.6925  0.3248  2.3185
 6482TIP3    H219404   3.719   1.958   6.194 -2.2420 -0.0767  0.8890
 6483TIP3   OH219405   4.220   2.829   3.761 -0.5352 -0.5961 -0.0038
 6483TIP3    H119406   4.141   2.883   3.757  0.2545  0.5419 -0.8340
 6483TIP3    H219407   4.287   2.881   3.716  0.6500 -1.6099  0.5356
 6484TIP3   OH219408   3.342   2.060   5.959 -0.4179 -0.1796  0.0421
 6484TIP3    H119409   3.388   2.135   5.920 -0.3242 -0.8220 -1.1589
 6484TIP3    H219410   3.397   1.985   5.936 -1.2360 -0.7755 -0.0176
 6485TIP3   OH219411   0.907   1.506   0.146  0.4949 -0.2923 -0.0508
 6485TIP3    H119412   0.928   1.494   0.053  0.2215  0.2248 -0.1798
 6485TIP3    H219413   0.916   1.418   0.183 -0.8445 -0.8235 -0.8704
 6486TIP3   OH219414   1.692   1.571   5.878 -0.4190 -0.4665  0.2338
 6486TIP3    H119415   1.734   1.604   5.799  1.7156 -1.5857  0.8307
 6486TIP3    H219416   1.684   1.647   5.935  0.5592 -0.1728 -0.0080
 6487TIP3   OH219417   3.166   3.610   5.693  0.2323  0.5950  0.5372
 6487TIP3    H119418   3.173   3.530   5.745  0.0107  0.7134  0.7470
 6487TIP3    H219419   3.091   3.594   5.635 -0.8527  1.2845  1.6952
 6488TIP3   OH219420   0.754   2.299   2.317  0.2027 -0.2830 -0.0959
 6488TIP3    H119421   0.660   2.288   2.330 -0.0167  3.0058  2.3048
 6488TIP3    H219422   0.762   2.339   2.230 -0.7154  0.2909  0.0776
 6489TIP3   OH219423   2.899   4.851   2.526 -0.2455 -0.2589  0.3667
 6489TIP3    H119424   2.931   4.842   2.616  0.6944  1.6072  0.2621
 6489TIP3    H219425   2.807   4.873   2.535  0.1235  1.1565  0.9608
 6490TIP3   OH219426   0.685   1.224   3.232 -0.8580 -0.3790 -0.3588
 6490TIP3    H119427   0.698   1.208   3.326 -1.8649 -2.9504 -0.5808
 6490TIP3    H219428   0.773   1.219   3.195 -0.4083  0.9791  0.4515
 6491TIP3   OH219429   3.529   5.875   5.735 -0.2153  0.1861  0.2564
 6491TIP3    H119430   3.557   5.956   5.778 -2.3335  1.2293 -0.2240
 6491TIP3    H219431   3.497   5.904   5.649 -0.3905 -1.2706 -0.1921
 6492TIP3   OH219432   1.511   6.387   6.611 -0.6626  0.3243 -0.1099
 6492TIP3    H119433   1.583   6.365   6.552  0.2004 -0.7016  1.2609
 6492TIP3    H219434   1.432   6.362   6.562  0.0801 -1.6958 -0.3922
 6493TIP3   OH219435   3.626   0.677   1.022 -0.6154 -0.2719  0.2069
 6493TIP3    H119436   3.710   0.720   1.041 -0.0004 -0.7070 -1.3824
 6493TIP3    H219437   3.615   0.614   1.093 -0.1282  0.5134  1.0102
 6494TIP3   OH219438   0.645   5.681   2.397  0.1295  0.1168  0.3744
 6494TIP3    H119439   0.664   5.770   2.367  2.9208 -0.0108  1.4939
 6494TIP3    H219440   0.713   5.662   2.462 -0.0061 -3.0763 -0.2511
 6495TIP3   OH219441   5.324   3.579   6.113 -0.0363  0.6748 -0.8863
 6495TIP3    H119442   5.373   3.631   6.050  0.6132  0.4803 -0.5523
 6495TIP3    H219443   5.376   3.584   6.194 -1.7622  2.4396  0.2039
 6496TIP3   OH219444   1.562   6.555   2.744 -0.6055 -0.2139 -0.2682
 6496TIP3    H119445   1.569   6.514   2.830  1.3717  1.2532  0.3339
 6496TIP3    H219446   1.497   6.625   2.757 -0.4074 -0.0780  0.0049
 6497TIP3   OH219447   2.336   5.772   1.981  0.4105  0.3023 -0.1231
 6497TIP3    H119448   2.336   5.776   2.077  1.0830  2.5704 -0.1745
 6497TIP3    H219449   2.253   5.811   1.955  0.1566 -0.4571 -0.4964
 6498TIP3   OH219450   6.164   6.094   2.851  0.3311 -0.3880  0.2231
 6498TIP3    H119451   6.092   6.146   2.816  1.9342  1.5946 -0.3177
 6498TIP3    H219452   6.220   6.075   2.776  1.3628 -0.2133  0.9249
 6499TIP3   OH219453   0.431   0.441   4.802 -0.0287  0.2579  0.5505
 6499TIP3    H119454   0.503   0.503   4.807  0.1626 -0.0729  2.2634
 6499TIP3    H219455   0.455   0.382   4.730  1.5265  0.0157  1.2373
 6500TIP3   OH219456   2.759   4.506   5.496 -0.4403 -0.6663 -0.0722
 6500TIP3    H119457   2.816   4.552   5.434 -0.4999  0.2650  0.5461
 6500TIP3    H219458   2.680   4.487   5.446 -0.1686 -0.6508 -0.5137
 6501TIP3   OH219459   4.368   5.657   4.640  0.1710  0.2074  0.4399
 6501TIP3    H119460   4.445   5.664   4.583  0.3104 -0.8921  0.4689
 6501TIP3    H219461   4.297   5.632   4.581  0.2640 -0.6976  0.7084
 6502TIP3   OH219462   7.752   4.016   5.630  0.2336  0.6885 -0.3736
 6502TIP3    H119463   7.841   4.019   5.664 -0.0473  3.1608  0.3812
 6502TIP3    H219464   7.752   4.077   5.556 -1.0080  1.4638  0.2238
 6503TIP3   OH219465   6.685   1.157   1.583 -0.2979 -0.3497  0.4968
 6503TIP3    H119466   6.732   1.195   1.509 -1.5802  0.1370 -0.1040
 6503TIP3    H219467   6.723   1.069   1.593  2.0613  0.6857  1.3067
 6504TIP3   OH219468   1.871   3.653   2.478 -0.2050 -0.2918 -0.6346
 6504TIP3    H119469   1.891   3.743   2.506  1.1753 -0.9216  0.5638
 6504TIP3    H219470   1.779   3.641   2.500 -0.8495  1.2934 -2.2177
 6505TIP3   OH219471   3.250   6.157   0.680 -0.4152  0.7499  0.1228
 6505TIP3    H119472   3.254   6.226   0.747 -0.0544 -0.2778  1.1819
 6505TIP3    H219473   3.160   6.162   0.647 -0.2431  2.0882 -0.2306
 6506TIP3   OH219474   3.861   5.084   2.535 -0.0134  0.3031  0.4138
 6506TIP3    H119475   3.885   4.995   2.559 -2.6247 -0.3578  0.9044
 6506TIP3    H219476   3.863   5.133   2.617 -0.8387  0.0904  0.5729
 6507TIP3   OH219477   0.094   7.003   2.974 -0.0083 -0.8169 -0.7626
 6507TIP3    H119478   0.004   7.005   3.005  0.4130  0.1555  0.4667
 6507TIP3    H219479   0.098   7.071   2.906  0.2284  0.4471  0.4845
 6508TIP3   OH219480   5.642   5.807   0.781 -0.2644 -0.7093 -0.1876
 6508TIP3    H119481   5.643   5.831   0.874 -0.8673 -2.3419  0.2910
 6508TIP3    H219482   5.582   5.868   0.740 -0.1805 -0.1260  0.5445
 6509TIP3   OH219483   2.646   1.737   3.540 -0.1256 -0.0161  0.1845
 6509TIP3    H119484   2.589   1.783   3.602 -2.0000  0.8229 -2.0345
 6509TIP3    H219485   2.621   1.645   3.548  0.2784 -0.0552  1.2431
 6510TIP3   OH219486   4.862   5.028   3.849  0.6218  0.2943 -0.0740
 6510TIP3    H119487   4.818   5.073   3.777  0.4360  0.7019  0.2843
 6510TIP3    H219488   4.855   4.935   3.828 -0.5688  0.3365  0.0688
 6511TIP3   OH219489   3.524   7.080   4.710 -0.3303  0.0230 -0.3219
 6511TIP3    H119490   3.547   7.156   4.656 -1.6572  0.1288 -0.7699
 6511TIP3    H219491   3.450   7.040   4.664 -1.2422 -0.1194  1.2167
 6512TIP3   OH219492   2.928   0.628   6.606  0.2377 -0.4324  0.2394
 6512TIP3    H119493   2.964   0.544   6.636 -2.4366 -0.8517  2.7668
 6512TIP3    H219494   2.900   0.611   6.516 -0.7188 -2.4824  0.8554
 6513TIP3   OH219495   7.687   3.207   6.299  0.1653  0.1500 -0.1373
 6513TIP3    H119496   7.770   3.218   6.253  0.4613  0.5675  0.4841
 6513TIP3    H219497   7.712   3.183   6.388 -0.2344  3.3804  0.9829
 6514TIP3   OH219498   5.153   1.731   1.453 -0.0688 -0.0218 -0.4391
 6514TIP3    H119499   5.173   1.641   1.481 -0.1064 -0.3223 -1.3601
 6514TIP3    H219500   5.132   1.777   1.535 -1.4403 -1.2001 -0.0886
 6515TIP3   OH219501   0.066   0.534   6.529  0.0066  0.6160 -0.1478
 6515TIP3    H119502   0.007   0.462   6.508 -1.4852  1.2562  1.5787
 6515TIP3    H219503   0.134   0.495   6.584 -0.9303  0.5153  0.9828
 6516TIP3   OH219504   5.902   2.763   5.645  0.4245 -0.3976 -0.5728
 6516TIP3    H119505   5.815   2.804   5.648  1.2419  1.4098  0.1226
 6516TIP3    H219506   5.952   2.809   5.712  1.9340 -1.3971 -0.9644
 6517TIP3   OH219507   1.408   1.768   1.157  0.4810 -0.3820  0.2111
 6517TIP3    H119508   1.426   1.699   1.221  1.8977  0.3455  0.6244
 6517TIP3    H219509   1.317   1.752   1.131  0.4675 -1.8146  1.0078
 6518TIP3   OH219510   1.734   7.702   1.032  0.1768 -0.7187  0.6124
 6518TIP3    H119511   1.657   7.647   1.018 -0.6917  0.0713  2.0397
 6518TIP3    H219512   1.713   7.752   1.111  1.7378  0.2644  0.4336
 6519TIP3   OH219513   7.831   3.517   2.399  0.0587  0.7880  0.0217
 6519TIP3    H119514   7.762   3.488   2.459 -0.4195  2.2939  0.2257
 6519TIP3    H219515   7.796   3.596   2.358  0.4242 -0.1318 -2.1829
 6520TIP3   OH219516   5.635   7.778   1.744  0.2074 -0.0549  0.4040
 6520TIP3    H119517   5.721   7.769   1.784  0.6593  1.2861 -0.1993
 6520TIP3    H219518   5.603   7.863   1.775 -1.4575 -1.0677  1.6269
 6521TIP3   OH219519   2.003   7.488   3.479  0.2056 -0.4420  0.3798
 6521TIP3    H119520   2.005   7.555   3.548 -0.7907 -0.9565  0.9385
 6521TIP3    H219521   2.094   7.475   3.456  0.5961 -0.4340  1.8068
 6522TIP3   OH219522   1.737   4.498   0.708  0.3032  0.4319  0.4080
 6522TIP3    H119523   1.811   4.443   0.685  0.1991  0.3527  0.2583
 6522TIP3    H219524   1.687   4.445   0.771  0.4427  0.5383  0.6100
 6523TIP3   OH219525   0.045   7.478   6.301  0.2101 -0.2377  0.4598
 6523TIP3    H119526   0.027   7.484   6.207 -1.8594 -0.4229  0.8130
 6523TIP3    H219527   0.066   7.567   6.328  0.2634 -0.0920 -0.0602
 6524TIP3   OH219528   4.913   3.515   4.989  0.4369 -0.1848  0.0652
 6524TIP3    H119529   4.908   3.421   4.974  0.6281 -0.3093  0.7475
 6524TIP3    H219530   4.980   3.546   4.927 -1.0618 -0.1581 -1.6080
 6525TIP3   OH219531   1.370   3.133   3.336 -0.3797  0.1044  0.3828
 6525TIP3    H119532   1.301   3.094   3.391  0.8367  0.5091  2.2873
 6525TIP3    H219533   1.328   3.147   3.251 -1.6355 -2.8680  0.3905
 6526TIP3   OH219534   7.414   3.896   2.021  0.2236  0.4403 -0.0660
 6526TIP3    H119535   7.465   3.947   2.084  0.2114  0.5411 -0.1376
 6526TIP3    H219536   7.466   3.817   2.008  0.9876  1.0744 -1.0726
 6527TIP3   OH219537   1.974   6.493   5.548  0.4146  0.0752  0.1082
 6527TIP3    H119538   1.936   6.573   5.583  1.1936  0.4481  0.1247
 6527TIP3    H219539   2.044   6.523   5.489  1.0520 -0.5914  0.5058
 6528TIP3   OH219540   4.449   6.201   4.944  0.1112  0.0247  0.5685
 6528TIP3    H119541   4.540   6.231   4.943  0.0887  0.1807 -1.7025
 6528TIP3    H219542   4.406   6.258   5.008  0.8934  2.3336 -0.8485
 6529TIP3   OH219543   1.810   6.968   3.767 -0.2655  0.2255 -0.2083
 6529TIP3    H119544   1.878   7.029   3.740  0.1134 -0.2462 -0.3271
 6529TIP3    H219545   1.799   6.984   3.861 -0.2295  0.5343 -0.2568
 6530TIP3   OH219546   0.076   4.699   4.246  0.0952 -0.0933 -0.2594
 6530TIP3    H119547   0.049   4.708   4.155  0.9615  1.4912 -0.3820
 6530TIP3    H219548   0.131   4.775   4.264  1.3621 -1.2352  1.0908
 6531TIP3   OH219549   2.941   7.150   2.838  0.5178 -0.4185 -0.1443
 6531TIP3    H119550   2.871   7.131   2.775 -1.3605  0.4026  1.6172
 6531TIP3    H219551   2.977   7.234   2.809  1.2686 -1.1473 -1.4304
 6532TIP3   OH219552   0.417   6.549   5.901  0.8885 -0.0973 -0.0252
 6532TIP3    H119553   0.391   6.462   5.872  0.3564  0.0983 -0.1618
 6532TIP3    H219554   0.423   6.542   5.996 -0.6754  0.0812  0.1204
 6533TIP3   OH219555   1.603   5.534   1.333 -0.0958  0.0172 -0.0987
 6533TIP3    H119556   1.532   5.599   1.333 -0.5841 -0.5074 -0.3411
 6533TIP3    H219557   1.579   5.473   1.264  0.7356 -0.0237 -0.3587
 6534TIP3   OH219558   7.493   4.218   1.907  0.2236  0.0646  0.5575
 6534TIP3    H119559   7.533   4.304   1.896 -0.9052  0.3050 -2.7083
 6534TIP3    H219560   7.565   4.156   1.890  0.6122  0.3501  1.1129
 6535TIP3   OH219561   1.338   2.441   1.053 -0.2367  0.4475 -0.0655
 6535TIP3    H119562   1.288   2.373   1.099 -0.0085  1.0915  1.1689
 6535TIP3    H219563   1.289   2.521   1.070  0.6227  0.9145  0.2526
 6536TIP3   OH219564   3.038   7.157   4.586  0.1504  0.5716 -0.4029
 6536TIP3    H119565   3.111   7.184   4.641  1.7328 -0.1283 -2.0343
 6536TIP3    H219566   3.066   7.073   4.549 -1.6346  0.1331 -0.8229
 6537TIP3   OH219567   5.590   5.859   6.704 -0.4253  0.3818  0.4181
 6537TIP3    H119568   5.615   5.869   6.612  0.5135 -0.1918  0.5949
 6537TIP3    H219569   5.550   5.943   6.727  1.1999  1.3022  0.0468
 6538TIP3   OH219570   7.179   0.884   2.188  0.3277  0.0697 -0.9082
 6538TIP3    H119571   7.271   0.856   2.184  0.5249  0.6031 -0.2661
 6538TIP3    H219572   7.154   0.870   2.279 -0.1432  0.2055 -1.0154
 6539TIP3   OH219573   0.431   4.132   5.714 -0.9557  0.0965  0.2276
 6539TIP3    H119574   0.441   4.165   5.803  0.3712 -0.1992  0.2120
 6539TIP3    H219575   0.343   4.096   5.711 -0.6701 -0.7897  1.7208
 6540TIP3   OH219576   5.219   1.441   1.493 -0.3950  0.5811  0.1617
 6540TIP3    H119577   5.271   1.366   1.522  0.3233  0.5529 -1.1149
 6540TIP3    H219578   5.159   1.405   1.428 -1.2752  0.8142  0.8249
 6541TIP3   OH219579   0.746   6.297   5.137  0.5778  0.1059 -0.3387
 6541TIP3    H119580   0.764   6.303   5.043  1.2001  1.1018 -0.1721
 6541TIP3    H219581   0.700   6.213   5.147 -0.7093  0.5887 -1.7171
 6542TIP3   OH219582   7.675   1.178   3.135  0.2176 -0.0026  0.3424
 6542TIP3    H119583   7.637   1.130   3.208  1.6200 -1.7121  0.0212
 6542TIP3    H219584   7.639   1.136   3.057 -0.1269  0.8365  0.0437
 6543TIP3   OH219585   5.940   2.443   0.923  0.2980 -0.0249  0.0532
 6543TIP3    H119586   5.994   2.521   0.912  1.1603 -0.4570  0.9421
 6543TIP3    H219587   5.919   2.415   0.834  0.6285  0.7787 -0.2890
 6544TIP3   OH219588   4.135   6.641   1.033  0.0967 -0.7528 -0.1857
 6544TIP3    H119589   4.128   6.720   0.979  0.2018 -1.8995 -1.9342
 6544TIP3    H219590   4.200   6.664   1.099  0.3662  0.5192 -0.8517
 6545TIP3   OH219591   4.081   2.891   0.857 -0.0727 -0.1273 -0.5608
 6545TIP3    H119592   4.123   2.808   0.837 -0.6162 -0.1900 -1.5259
 6545TIP3    H219593   3.988   2.874   0.846 -0.2053  0.5473 -0.5395
 6546TIP3   OH219594   4.375   6.145   1.877 -0.2844  0.1412 -0.2343
 6546TIP3    H119595   4.358   6.136   1.783 -2.8778  2.8843 -0.1883
 6546TIP3    H219596   4.328   6.072   1.917  0.7234 -0.9644 -1.0174
 6547TIP3   OH219597   3.163   4.905   4.458  0.2270  0.3665 -0.1486
 6547TIP3    H119598   3.103   4.934   4.527 -0.9215  0.3291 -1.1079
 6547TIP3    H219599   3.147   4.965   4.385  1.7566  0.6925 -0.2512
 6548TIP3   OH219600   2.696   6.174   2.179 -0.1853 -0.0076  0.2086
 6548TIP3    H119601   2.742   6.147   2.100  0.1173  0.7363  0.1205
 6548TIP3    H219602   2.657   6.093   2.213  2.3881 -0.9883  1.0992
 6549TIP3   OH219603   2.531   2.165   5.859 -0.5030  0.1307  0.3251
 6549TIP3    H119604   2.577   2.234   5.908 -0.6187  0.6569 -0.2918
 6549TIP3    H219605   2.596   2.133   5.796  0.4182 -2.1662  2.2839
 6550TIP3   OH219606   6.778   2.929   0.699  0.4943  0.0018 -0.1147
 6550TIP3    H119607   6.869   2.918   0.727 -0.0421 -0.2119  1.7125
 6550TIP3    H219608   6.737   2.977   0.772 -0.8970 -0.0631 -0.8244
 6551TIP3   OH219609   1.103   6.359   3.882 -0.0908  0.0725 -0.4903
 6551TIP3    H119610   1.098   6.455   3.878  0.3250  0.1218  0.1291
 6551TIP3    H219611   1.197   6.340   3.876 -0.0278 -0.2124  1.0669
 6552TIP3   OH219612   2.852   6.223   2.698  0.0567 -0.1679  0.0674
 6552TIP3    H119613   2.928   6.223   2.641  0.0331 -1.2264  0.0189
 6552TIP3    H219614   2.780   6.191   2.644 -0.6138  1.5034 -0.0979
 6553TIP3   OH219615   6.400   4.861   3.763  0.2737 -0.5471 -0.1125
 6553TIP3    H119616   6.379   4.914   3.686  1.6691 -0.7380 -0.6522
 6553TIP3    H219617   6.396   4.770   3.732  0.3510 -0.6453  0.1597
 6554TIP3   OH219618   6.761   6.474   4.674  0.7157 -0.2725  0.2267
 6554TIP3    H119619   6.819   6.546   4.699 -0.8791  0.3916  2.2146
 6554TIP3    H219620   6.787   6.402   4.732  0.1716 -0.2611  0.4874
 6555TIP3   OH219621   1.791   3.233   2.085 -0.1884 -0.4627 -0.4599
 6555TIP3    H119622   1.843   3.274   2.154 -0.0548  0.3430 -1.0289
 6555TIP3    H219623   1.833   3.148   2.070  0.2402 -0.3185 -0.0851
 6556TIP3   OH219624   3.664   4.596   5.430 -0.9309 -0.5480 -0.1427
 6556TIP3    H119625   3.629   4.653   5.498  0.4890 -0.6268  0.6893
 6556TIP3    H219626   3.639   4.508   5.458 -2.3354 -0.4434 -0.9568
 6557TIP3   OH219627   5.009   1.693   5.812  0.0646 -0.0105 -0.0619
 6557TIP3    H119628   4.966   1.613   5.841 -1.3621  0.8907  0.4099
 6557TIP3    H219629   5.100   1.668   5.796 -0.6972 -2.0957 -1.5350
 6558TIP3   OH219630   1.580   2.073   3.895  0.5461 -0.1064  0.0160
 6558TIP3    H119631   1.584   2.091   3.801 -0.1853 -0.6630 -0.1347
 6558TIP3    H219632   1.635   2.140   3.935 -1.6831  2.2080 -0.5342
 6559TIP3   OH219633   2.045   0.508   1.697 -0.3806  0.4167 -0.4378
 6559TIP3    H119634   2.093   0.588   1.678  0.5640 -0.0795 -0.2065
 6559TIP3    H219635   2.092   0.469   1.771  0.6922 -1.5520 -2.0446
 6560TIP3   OH219636   8.312   2.366   1.715  0.2799 -0.4016  0.1280
 6560TIP3    H119637   8.257   2.433   1.756  0.4950  0.1018 -0.3774
 6560TIP3    H219638   8.269   2.347   1.632  0.4282 -0.6051  0.0964
 6561TIP3   OH219639   1.873   3.411   3.643 -0.4681  0.2984 -0.5095
 6561TIP3    H119640   1.950   3.389   3.696 -1.2098 -1.2031 -0.0095
 6561TIP3    H219641   1.799   3.375   3.692 -1.2594 -0.3250 -2.1175
 6562TIP3   OH219642   4.286   7.594   4.657  0.0754  0.1589 -0.1894
 6562TIP3    H119643   4.202   7.632   4.630  0.0851  0.8295  0.6773
 6562TIP3    H219644   4.339   7.670   4.683 -0.5554 -0.4240  3.4360
 6563TIP3   OH219645   6.646   0.534   4.184  0.0312 -0.5094 -0.3803
 6563TIP3    H119646   6.584   0.462   4.194 -0.1224 -0.2355  0.7404
 6563TIP3    H219647   6.627   0.571   4.098 -0.6734 -1.0546 -0.4657
 6564TIP3   OH219648   4.647   0.534   0.195  0.4580  0.2037  0.3333
 6564TIP3    H119649   4.694   0.613   0.169  0.1431 -0.1643 -1.4372
 6564TIP3    H219650   4.705   0.462   0.171 -0.2601 -0.1873 -0.2829
 6565TIP3   OH219651   2.662   2.159   5.564 -0.1004  0.1548 -0.1179
 6565TIP3    H119652   2.662   2.063   5.558 -2.0647  0.0322  1.0832
 6565TIP3    H219653   2.745   2.180   5.609  0.7756 -0.8776 -1.1834
 6566TIP3   OH219654   3.369   3.389   0.282 -0.6193  0.1086 -0.2995
 6566TIP3    H119655   3.304   3.358   0.345  0.5029  0.1259  0.8956
 6566TIP3    H219656   3.325   3.382   0.197 -1.5818 -1.4790  0.2990
 6567TIP3   OH219657   3.674   6.056   2.770  0.0775  0.5609  0.0390
 6567TIP3    H119658   3.591   6.019   2.740  0.7398 -1.9458  1.0406
 6567TIP3    H219659   3.651   6.106   2.848 -0.5606  0.3141  0.0182
 6568TIP3   OH219660   4.617   4.201   3.626  0.1950  0.3570  1.1585
 6568TIP3    H119661   4.643   4.109   3.636  0.9682  0.5293  0.8450
 6568TIP3    H219662   4.530   4.206   3.664 -1.1022 -1.1098 -1.3548
 6569TIP3   OH219663   3.958   2.823   6.645  0.2045  0.0993 -0.5202
 6569TIP3    H119664   3.930   2.734   6.667  0.9751  0.0918  0.4805
 6569TIP3    H219665   3.981   2.818   6.552  0.6106 -0.8455 -0.3830
 6570TIP3   OH219666   5.686   5.665   4.443  0.0934  0.4101 -0.3966
 6570TIP3    H119667   5.635   5.656   4.363  0.7429  2.1228 -1.0357
 6570TIP3    H219668   5.721   5.577   4.459 -1.7078 -0.4143 -0.8260
 6571TIP3   OH219669   7.558   0.114   5.058  0.0886 -0.2561  0.0507
 6571TIP3    H119670   7.596   0.199   5.080  0.4364 -0.0422 -1.2772
 6571TIP3    H219671   7.514   0.128   4.975 -0.2568 -1.2692  0.0471
 6572TIP3   OH219672   8.200   1.729   6.429 -0.4176  0.1543 -0.5894
 6572TIP3    H119673   8.205   1.767   6.341  0.7017 -1.1415 -1.1224
 6572TIP3    H219674   8.170   1.640   6.414  0.1130 -0.1813  0.3111
 6573TIP3   OH219675   7.331   3.978   4.888 -0.6657 -0.4512  0.5580
 6573TIP3    H119676   7.360   4.068   4.878 -1.5812 -0.0611  1.3141
 6573TIP3    H219677   7.405   3.925   4.858 -0.2624  0.5460 -0.2374
 6574TIP3   OH219678   1.842   0.192   5.295  0.6334  0.6076 -0.5173
 6574TIP3    H119679   1.843   0.283   5.323 -0.0520  0.4193  0.1443
 6574TIP3    H219680   1.850   0.196   5.200 -0.8356  1.4258 -0.6349
 6575TIP3   OH219681   2.988   5.707   1.042  0.1564 -0.0749  0.2120
 6575TIP3    H119682   2.931   5.642   1.085 -1.0139  0.9027  0.1989
 6575TIP3    H219683   2.934   5.744   0.973  0.7268  1.0597  0.3467
 6576TIP3   OH219684   3.505   4.729   4.726 -0.1975  0.6654  0.4973
 6576TIP3    H119685   3.473   4.746   4.814 -0.5653 -1.7213  0.9036
 6576TIP3    H219686   3.600   4.727   4.735 -0.2510 -0.5570  1.1147
 6577TIP3   OH219687   6.391   2.227   2.818 -0.6886  0.5133 -0.3119
 6577TIP3    H119688   6.414   2.263   2.732 -0.1224  2.2137  0.4973
 6577TIP3    H219689   6.418   2.135   2.814 -1.1608  0.4286 -2.1109
 6578TIP3   OH219690   5.653   7.116   2.394  0.0115 -0.1588 -0.0918
 6578TIP3    H119691   5.680   7.086   2.307 -0.9367 -0.5447 -0.2619
 6578TIP3    H219692   5.603   7.043   2.430  0.0557  0.1572  0.6163
 6579TIP3   OH219693   2.356   7.318   1.021  0.2288 -0.0373 -0.0912
 6579TIP3    H119694   2.327   7.381   0.955 -1.1726 -0.6340 -0.0834
 6579TIP3    H219695   2.344   7.363   1.105 -2.2114 -0.7700  0.0232
 6580TIP3   OH219696   4.331   3.015   0.778  0.2651 -0.2934 -0.0919
 6580TIP3    H119697   4.332   2.978   0.689 -1.3574 -1.1616  0.2132
 6580TIP3    H219698   4.240   3.010   0.805  0.6445  0.4638  1.4369
 6581TIP3   OH219699   6.032   6.493   2.978 -0.2163 -0.2390 -0.1720
 6581TIP3    H119700   5.943   6.514   3.008  0.4038  0.4368  1.3092
 6581TIP3    H219701   6.089   6.540   3.039  1.1619  0.7894 -2.1726
 6582TIP3   OH219702   8.051   3.518   6.012  0.6168  0.1575 -0.6298
 6582TIP3    H119703   8.088   3.575   5.945 -1.4673  0.0437 -1.9694
 6582TIP3    H219704   8.050   3.571   6.091 -0.1490  1.5796 -1.5562
 6583TIP3   OH219705   4.001   0.533   6.072 -0.4522 -0.6876 -0.3425
 6583TIP3    H119706   3.918   0.539   6.024 -0.6797 -1.6382 -0.1065
 6583TIP3    H219707   3.974   0.511   6.162  0.0690 -1.4787 -0.3720
 6584TIP3   OH219708   2.385   3.429   1.702 -0.5035  0.0416 -0.0979
 6584TIP3    H119709   2.382   3.502   1.639  2.7778 -0.6124 -1.2330
 6584TIP3    H219710   2.367   3.470   1.786  1.3661  2.3257 -0.6630
 6585TIP3   OH219711   5.172   5.765   5.968  0.1006  0.1905 -0.0720
 6585TIP3    H119712   5.219   5.840   5.931  0.5759  0.3201  0.7779
 6585TIP3    H219713   5.202   5.760   6.058 -1.8451  0.5432  0.6520
 6586TIP3   OH219714   1.044   4.852   1.958 -0.0458 -0.7630  0.6692
 6586TIP3    H119715   0.971   4.791   1.948  0.5181 -1.0611 -2.9091
 6586TIP3    H219716   1.116   4.811   1.911  1.5648  0.8983  1.5640
 6587TIP3   OH219717   1.478   3.921   1.292 -0.6584  0.9301 -0.4098
 6587TIP3    H119718   1.485   3.994   1.353  2.3068  1.5206 -1.3277
 6587TIP3    H219719   1.422   3.954   1.222 -4.2430  0.1887  1.8384
 6588TIP3   OH219720   2.620   5.593   3.346  0.2411 -0.3746  0.1132
 6588TIP3    H119721   2.706   5.629   3.325  0.3724  0.1833  1.4964
 6588TIP3    H219722   2.568   5.607   3.267  1.1805  0.0366 -0.4507
 6589TIP3   OH219723   2.707   2.474   0.784  0.1917 -0.3099  0.2425
 6589TIP3    H119724   2.748   2.506   0.704 -0.6455  4.3662  1.3798
 6589TIP3    H219725   2.614   2.466   0.762  0.3276 -1.8299  0.0954
 6590TIP3   OH219726   6.906   0.601   5.837 -0.2709 -0.8361  0.0273
 6590TIP3    H119727   6.821   0.580   5.799 -0.5326 -0.0834  0.1715
 6590TIP3    H219728   6.920   0.693   5.813 -0.0349 -0.6156  0.9739
 6591TIP3   OH219729   5.349   6.428   1.982 -0.3946  0.6904 -0.7583
 6591TIP3    H119730   5.294   6.507   1.986 -0.3759  0.7144 -1.0044
 6591TIP3    H219731   5.338   6.395   1.893 -1.7941 -0.5789 -0.1645
 6592TIP3   OH219732   7.862   5.338   5.042  0.2141  0.4214  0.3049
 6592TIP3    H119733   7.855   5.406   4.974  0.4260 -1.0094 -1.2077
 6592TIP3    H219734   7.946   5.295   5.025 -0.1621 -0.5839  0.8868
 6593TIP3   OH219735   7.795   4.008   0.299  0.5764  0.1154 -0.0699
 6593TIP3    H119736   7.757   3.920   0.293 -0.8749  0.7620 -0.9243
 6593TIP3    H219737   7.812   4.033   0.208 -0.1270  1.1563  0.0648
 6594TIP3   OH219738   1.630   7.430   1.371 -0.1902  0.3395  0.4194
 6594TIP3    H119739   1.570   7.502   1.349 -0.7588 -0.3951 -0.5377
 6594TIP3    H219740   1.716   7.471   1.374 -0.7415  1.4758  2.1054
 6595TIP3   OH219741   0.995   4.938   0.874  0.0263 -0.3365  0.3176
 6595TIP3    H119742   0.966   5.012   0.928  1.0728 -0.7049  1.4309
 6595TIP3    H219743   1.064   4.975   0.819  1.1050 -0.6105  1.4273
 6596TIP3   OH219744   2.554   1.354   1.530 -0.2162  0.1839  0.0275
 6596TIP3    H119745   2.588   1.314   1.450 -1.2070  0.0592 -0.3415
 6596TIP3    H219746   2.505   1.430   1.500 -0.7008  0.0641  0.5063
 6597TIP3   OH219747   4.674   0.677   6.140 -0.0257  0.2880 -0.5974
 6597TIP3    H119748   4.763   0.681   6.175 -0.2764 -1.4151  0.3276
 6597TIP3    H219749   4.644   0.768   6.140  1.1923  0.7202  0.4932
 6598TIP3   OH219750   0.546   2.908   5.578  0.2672  0.2217  0.1929
 6598TIP3    H119751   0.491   2.836   5.607 -0.0675  0.1010 -0.7133
 6598TIP3    H219752   0.594   2.873   5.502  0.1020  0.9448 -0.2566
 6599TIP3   OH219753   1.367   7.639   4.447 -0.2658 -0.0124 -0.4886
 6599TIP3    H119754   1.315   7.719   4.454  0.7266  0.5147  1.6286
 6599TIP3    H219755   1.380   7.628   4.353 -0.6158  2.2137 -0.8620
 6600TIP3   OH219756   4.806   2.821   6.080  0.2093  0.4657  0.8441
 6600TIP3    H119757   4.736   2.760   6.104 -0.8571  0.8762 -0.9945
 6600TIP3    H219758   4.769   2.908   6.097  0.6972  0.6604  0.9159
 6601TIP3   OH219759   0.242   0.845   6.596  0.1672  0.0022 -0.3086
 6601TIP3    H119760   0.318   0.887   6.555 -0.1557 -1.2582 -2.3252
 6601TIP3    H219761   0.168   0.870   6.540 -0.4330 -1.1263 -0.0425
 6602TIP3   OH219762   3.135   4.959   3.306 -0.0634  0.4244 -0.6632
 6602TIP3    H119763   3.041   4.970   3.292 -0.4536  0.5365  1.5666
 6602TIP3    H219764   3.149   4.865   3.303 -0.4998  0.3198  0.1402
 6603TIP3   OH219765   4.687   3.556   4.237 -0.3053 -0.5774  0.0542
 6603TIP3    H119766   4.769   3.584   4.278 -0.7053  0.3830  0.2250
 6603TIP3    H219767   4.696   3.580   4.145 -0.9587  0.8888  0.3470
 6604TIP3   OH219768   5.783   2.462   5.281  0.5664  0.1810  0.2772
 6604TIP3    H119769   5.769   2.546   5.237  0.5720  0.8046  1.4459
 6604TIP3    H219770   5.849   2.480   5.348  0.4715 -0.7307  0.6309
 6605TIP3   OH219771   6.037   4.111   4.105  0.5581 -0.4215 -0.2187
 6605TIP3    H119772   6.131   4.094   4.094  0.6110  0.0192 -0.4662
 6605TIP3    H219773   5.997   4.083   4.023  0.6654  0.7568 -0.6920
 6606TIP3   OH219774   7.833   6.041   1.539  0.2028  0.0294  0.4752
 6606TIP3    H119775   7.824   6.089   1.622 -0.8885  0.6340  0.0350
 6606TIP3    H219776   7.807   5.952   1.560  1.8553 -0.3241  1.2127
 6607TIP3   OH219777   4.439   1.070   3.315 -0.4445  0.5580 -0.8442
 6607TIP3    H119778   4.372   1.096   3.251 -2.1451  0.6380  0.8852
 6607TIP3    H219779   4.470   1.152   3.353  1.9936  0.6764 -2.8002
 6608TIP3   OH219780   6.122   4.791   2.732 -0.7747  0.0579  0.3003
 6608TIP3    H119781   6.063   4.849   2.781  0.9403  0.4519  2.0374
 6608TIP3    H219782   6.069   4.714   2.712 -2.4149  1.1916  0.0634
 6609TIP3   OH219783   1.317   3.644   0.820 -0.1710  0.5117 -0.0349
 6609TIP3    H119784   1.226   3.620   0.804  0.2737 -0.8470 -0.6607
 6609TIP3    H219785   1.331   3.628   0.913 -0.5316  0.6050  0.0352
 6610TIP3   OH219786   0.914   6.317   1.071  0.5409  0.0291  0.7047
 6610TIP3    H119787   0.928   6.393   1.013  0.9738 -1.6360 -1.5313
 6610TIP3    H219788   0.844   6.344   1.130 -0.4910  1.6264 -1.1210
 6611TIP3   OH219789   4.482   0.817   4.189 -0.0624  0.1078 -0.1143
 6611TIP3    H119790   4.416   0.747   4.192 -0.2346  0.1914 -1.2716
 6611TIP3    H219791   4.563   0.775   4.217 -0.0513 -0.7146 -1.2978
 6612TIP3   OH219792   6.047   2.905   2.137 -0.0222  0.3021 -0.2260
 6612TIP3    H119793   6.071   2.995   2.117 -0.2071  0.6400  0.9904
 6612TIP3    H219794   5.990   2.912   2.214  0.4500 -0.8979  0.2543
 6613TIP3   OH219795   3.120   2.173   2.166 -0.3641  0.1972 -0.0535
 6613TIP3    H119796   3.140   2.150   2.257  1.2069  1.2919 -0.0734
 6613TIP3    H219797   3.180   2.119   2.114 -2.1125 -1.3710 -0.5832
 6614TIP3   OH219798   5.648   1.996   6.375 -0.4652 -0.0836 -0.2583
 6614TIP3    H119799   5.637   1.989   6.280 -0.2530  1.4634 -0.4309
 6614TIP3    H219800   5.712   1.929   6.398 -0.7614 -0.6857 -1.1539
 6615TIP3   OH219801   8.225   3.519   1.993  0.4402  0.0155 -0.2023
 6615TIP3    H119802   8.248   3.444   2.048 -1.0329  0.4187  1.0179
 6615TIP3    H219803   8.306   3.570   1.988  1.3209 -1.3462 -0.6146
 6616TIP3   OH219804   3.190   5.505   6.660  0.6499  0.2004  0.6768
 6616TIP3    H119805   3.175   5.416   6.629  2.1029 -0.1352  0.8465
 6616TIP3    H219806   3.183   5.559   6.582  0.8146 -0.2096  0.3703
 6617TIP3   OH219807   1.866   6.156   5.215 -0.0425 -0.1101  0.3736
 6617TIP3    H119808   1.902   6.068   5.202 -1.5115 -0.5709 -0.9164
 6617TIP3    H219809   1.792   6.143   5.273 -0.1744  0.2992  0.2998
 6618TIP3   OH219810   1.382   6.818   5.427  0.1531  0.0873 -0.4457
 6618TIP3    H119811   1.316   6.794   5.363 -0.3941  0.6189 -0.0896
 6618TIP3    H219812   1.333   6.837   5.507  0.7859 -0.0994 -0.0062
 6619TIP3   OH219813   1.036   3.918   4.230 -0.0950 -0.9612  0.2198
 6619TIP3    H119814   1.110   3.872   4.190 -0.2693  0.4710 -1.9259
 6619TIP3    H219815   0.978   3.938   4.156 -1.3858  0.1692  1.4898
 6620TIP3   OH219816   0.952   7.015   4.991 -0.6167 -0.0812  0.1761
 6620TIP3    H119817   0.935   7.107   5.013  0.4657  0.4762 -1.1456
 6620TIP3    H219818   1.044   7.001   5.011 -0.0203 -0.0184 -2.1574
 6621TIP3   OH219819   2.567   3.433   6.109 -0.0170  0.2019  0.0734
 6621TIP3    H119820   2.492   3.405   6.161 -0.9755  0.2056 -1.2780
 6621TIP3    H219821   2.637   3.371   6.133 -0.8969 -0.7746  0.1736
 6622TIP3   OH219822   3.203   4.947   1.104  0.4115  0.3304 -0.2413
 6622TIP3    H119823   3.284   4.980   1.143  0.5657 -0.5953  0.2527
 6622TIP3    H219824   3.191   4.861   1.144  0.1027 -0.2810 -1.5999
 6623TIP3   OH219825   0.279   2.700   5.394 -0.6124  0.3136  0.1481
 6623TIP3    H119826   0.339   2.724   5.324 -1.2362  1.8284  0.0979
 6623TIP3    H219827   0.216   2.772   5.398 -1.4297 -0.4271  1.3135
 6624TIP3   OH219828   1.831   5.355   2.941 -0.4282  0.7318 -0.3584
 6624TIP3    H119829   1.808   5.323   2.854  0.0194  0.8176 -0.5133
 6624TIP3    H219830   1.924   5.379   2.934 -0.3501  0.6041  0.1803
 6625TIP3   OH219831   2.314   4.189   3.348  0.4740 -0.3151 -0.4118
 6625TIP3    H119832   2.229   4.217   3.313 -0.0480 -0.4587  0.7219
 6625TIP3    H219833   2.377   4.219   3.282 -0.2559  1.6830 -0.2882
 6626TIP3   OH219834   2.174   5.141   0.773  0.2862  0.4646  0.6632
 6626TIP3    H119835   2.269   5.132   0.778  0.5062 -1.1227 -2.8601
 6626TIP3    H219836   2.159   5.235   0.765  1.7507  0.6704 -0.1349
 6627TIP3   OH219837   6.139   3.517   4.976  0.5210 -0.5109  0.3608
 6627TIP3    H119838   6.105   3.431   5.002 -0.9545 -0.0661 -0.0010
 6627TIP3    H219839   6.230   3.501   4.951 -0.5358 -2.6241 -2.7739
 6628TIP3   OH219840   5.197   0.793  -0.016 -1.2675  0.0208 -0.1166
 6628TIP3    H119841   5.156   0.861   0.037  0.9917  0.9196  0.5732
 6628TIP3    H219842   5.282   0.778   0.024 -0.3888 -0.9202 -2.1608
 6629TIP3   OH219843   2.788   3.576   0.268  0.4308  0.2490  0.8832
 6629TIP3    H119844   2.884   3.579   0.270  0.4081  0.9659  1.4202
 6629TIP3    H219845   2.764   3.523   0.345  0.4043 -0.3510  0.4667
 6630TIP3   OH219846   7.903   2.902   4.458  0.0462  0.6390 -0.3288
 6630TIP3    H119847   7.897   2.920   4.551 -1.8998  1.9783 -0.6346
 6630TIP3    H219848   7.991   2.931   4.433  0.9743 -0.6776  1.2048
 6631TIP3   OH219849   0.979   4.707   3.713 -0.2545 -0.3991  0.4814
 6631TIP3    H119850   1.012   4.728   3.800 -0.4509 -1.4312  0.8158
 6631TIP3    H219851   0.922   4.631   3.726  0.2444 -0.9886 -0.6471
 6632TIP3   OH219852   4.454   7.299   5.705  0.2947  0.2529 -0.2109
 6632TIP3    H119853   4.541   7.338   5.697  0.1755  0.5354 -0.1417
 6632TIP3    H219854   4.395   7.363   5.666  0.0474  0.3349  0.2889
 6633TIP3   OH219855   0.519   6.311   2.744  0.5166 -0.6952  0.1004
 6633TIP3    H119856   0.560   6.383   2.792  0.4291 -0.9689  0.5912
 6633TIP3    H219857   0.562   6.312   2.658  1.0109 -0.5049  0.3472
 6634TIP3   OH219858   2.938   6.385   1.770  0.0449 -0.0707 -0.4406
 6634TIP3    H119859   2.895   6.466   1.744  0.7803  0.7512  0.7836
 6634TIP3    H219860   2.935   6.385   1.866  2.4941 -0.0624 -0.2825
 6635TIP3   OH219861   3.864   5.126   3.387 -1.1124 -0.0900  0.1209
 6635TIP3    H119862   3.824   5.206   3.353  0.3928 -0.0480 -1.7343
 6635TIP3    H219863   3.948   5.120   3.341 -0.0424 -1.3942  2.1086
 6636TIP3   OH219864   4.944   5.414   4.995 -0.3580 -0.9035  0.2793
 6636TIP3    H119865   4.851   5.432   4.986 -0.0138  1.1044  0.1493
 6636TIP3    H219866   4.967   5.448   5.082  0.4107 -0.5447 -0.0507
 6637TIP3   OH219867   4.092   7.276   2.195 -0.3639  0.6403 -0.4227
 6637TIP3    H119868   4.104   7.282   2.100  0.1926 -0.9179 -0.4785
 6637TIP3    H219869   4.133   7.356   2.229  0.1663  0.8203 -1.4314
 6638TIP3   OH219870   1.565   0.238   2.123  1.0326  0.7687 -0.0078
 6638TIP3    H119871   1.555   0.326   2.162  0.3022  0.3258  0.8490
 6638TIP3    H219872   1.651   0.240   2.082  1.2890  1.6868  0.5325
 6639TIP3   OH219873   6.756   0.695   4.504 -0.1850  0.4089 -0.1517
 6639TIP3    H119874   6.809   0.636   4.450 -0.0014  0.8084 -0.4102
 6639TIP3    H219875   6.665   0.670   4.483 -0.1226 -0.8459  0.9203
 6640TIP3   OH219876   2.293   7.770   2.153  0.4152  0.1823 -0.4087
 6640TIP3    H119877   2.370   7.797   2.105  0.3510 -0.0366 -0.6346
 6640TIP3    H219878   2.219   7.803   2.101  0.3528  0.2492 -0.2794
 6641TIP3   OH219879   1.602   0.682   0.867 -0.7155  0.3520 -0.3559
 6641TIP3    H119880   1.690   0.714   0.885 -0.9085  0.4264  0.4578
 6641TIP3    H219881   1.580   0.720   0.782 -0.7880  2.0867  0.4005
 6642TIP3   OH219882   2.051   0.565   4.416  0.4376  0.0276 -0.1977
 6642TIP3    H119883   2.015   0.478   4.434  0.4494 -0.2152 -1.2322
 6642TIP3    H219884   2.143   0.559   4.443  0.4958 -0.3622 -0.4648
 6643TIP3   OH219885   1.611   1.326   4.077  0.1266 -0.1526  0.2879
 6643TIP3    H119886   1.516   1.338   4.079  0.0072 -0.6935 -0.9479
 6643TIP3    H219887   1.632   1.322   3.984  1.2199 -1.0812  0.5551
 6644TIP3   OH219888   4.206   1.065   3.962  0.2757 -0.1348  0.1308
 6644TIP3    H119889   4.291   1.102   3.984  0.7053 -0.9962 -0.0481
 6644TIP3    H219890   4.187   1.004   4.034 -1.1662  1.5580  1.2660
 6645TIP3   OH219891   1.058   0.577   6.180 -0.6690  0.5580  0.2667
 6645TIP3    H119892   1.045   0.670   6.203  0.8292  0.5565  1.2506
 6645TIP3    H219893   1.110   0.580   6.099 -0.1405  0.5958  0.6007
 6646TIP3   OH219894   7.649   7.309   4.187 -0.5164  0.4007  0.6159
 6646TIP3    H119895   7.668   7.247   4.258  3.3023  0.8320  0.2072
 6646TIP3    H219896   7.643   7.253   4.109  2.7815  0.3297  0.2696
 6647TIP3   OH219897   4.389   0.497   6.619 -0.6105 -0.0725  0.0850
 6647TIP3    H119898   4.313   0.441   6.633 -0.0756 -1.1832 -1.2022
 6647TIP3    H219899   4.463   0.444   6.647  0.1786 -1.1647 -3.5564
 6648TIP3   OH219900   4.702   0.700   6.452  0.8249  0.3743 -0.6196
 6648TIP3    H119901   4.761   0.625   6.460  2.0759  1.3859  0.2539
 6648TIP3    H219902   4.615   0.664   6.465  1.5572 -0.6042  2.6955
 6649TIP3   OH219903   4.145   3.296   5.262  0.2356  0.3322 -0.1723
 6649TIP3    H119904   4.088   3.225   5.292  0.0114  1.0879  1.2762
 6649TIP3    H219905   4.159   3.278   5.169 -0.3452 -1.2363  0.0121
 6650TIP3   OH219906   3.703   3.839   2.697 -0.0390 -0.3855  0.3680
 6650TIP3    H119907   3.663   3.923   2.719 -0.1944 -0.4308  0.2604
 6650TIP3    H219908   3.665   3.816   2.612  1.7281  0.5579 -0.7525
 6651TIP3   OH219909   0.506   2.878   3.434  0.2371  0.6124 -0.4316
 6651TIP3    H119910   0.428   2.888   3.380  0.8883  1.0681 -1.3073
 6651TIP3    H219911   0.505   2.954   3.493  0.6179  1.2471 -1.2277
 6652TIP3   OH219912   6.438   6.163   5.436 -0.5381 -0.4021 -0.7634
 6652TIP3    H119913   6.427   6.219   5.514 -2.4563 -0.3818 -0.9821
 6652TIP3    H219914   6.457   6.076   5.472 -1.5708 -0.4294 -0.2371
 6653TIP3   OH219915   0.308   3.079   2.464  0.1254  0.0820  0.3537
 6653TIP3    H119916   0.341   3.156   2.510  0.1688  0.4165 -0.2393
 6653TIP3    H219917   0.296   3.014   2.534  0.0941  0.6156  0.8563
 6654TIP3   OH219918   4.158   2.461   5.019  0.3035  0.0974  0.3960
 6654TIP3    H119919   4.111   2.418   4.948  0.3890 -0.0579  0.4335
 6654TIP3    H219920   4.145   2.554   5.003  0.7285  0.0751 -0.0997
 6655TIP3   OH219921   6.841   4.883   6.466  0.2876  0.4657  0.0849
 6655TIP3    H119922   6.778   4.812   6.481 -2.2502  3.0329  2.9700
 6655TIP3    H219923   6.829   4.907   6.375 -1.2286 -0.6822 -0.0583
 6656TIP3   OH219924   3.197   3.280   3.085  0.4274  0.2939  0.0973
 6656TIP3    H119925   3.274   3.310   3.134  0.6948  2.0819 -1.3240
 6656TIP3    H219926   3.225   3.280   2.994 -0.9032 -0.1863 -0.3290
 6657TIP3   OH219927   1.181   3.092   5.294 -0.1129 -0.2924 -0.2772
 6657TIP3    H119928   1.127   3.166   5.268  0.1672 -0.6558 -1.9859
 6657TIP3    H219929   1.250   3.131   5.349 -0.2024  0.6604 -0.8205
 6658TIP3   OH219930   1.295   3.529   3.920  0.4997  0.8044 -1.0712
 6658TIP3    H119931   1.322   3.479   3.997  1.3641  1.4746 -0.9187
 6658TIP3    H219932   1.200   3.517   3.915  0.3260  1.2957  0.5131
 6659TIP3   OH219933   6.376   1.139   0.486 -0.1126 -0.5935  0.4861
 6659TIP3    H119934   6.430   1.060   0.482 -0.8580 -1.0932 -0.1923
 6659TIP3    H219935   6.437   1.211   0.479  0.5567 -1.1196  0.7891
 6660TIP3   OH219936   5.058   1.513   6.498 -0.2061  0.2665 -0.3965
 6660TIP3    H119937   5.046   1.428   6.540 -0.3097 -0.4837 -1.8855
 6660TIP3    H219938   4.992   1.569   6.539 -2.6263 -1.3338 -1.8474
 6661TIP3   OH219939   8.234   3.106   2.734  0.2793 -0.4755 -0.1689
 6661TIP3    H119940   8.234   3.066   2.820  2.8980  0.8979  0.5746
 6661TIP3    H219941   8.261   3.036   2.674  0.0398 -1.0101  0.3419
 6662TIP3   OH219942   7.213   5.716   3.262 -0.0333  0.2660  0.3132
 6662TIP3    H119943   7.156   5.719   3.184 -1.2763  2.0813  1.2245
 6662TIP3    H219944   7.168   5.656   3.321  0.6720 -0.7549 -0.1682
 6663TIP3   OH219945   4.900   7.040   5.089 -0.1395  1.0799 -0.1365
 6663TIP3    H119946   4.932   6.950   5.083 -1.9192  0.4131  0.0489
 6663TIP3    H219947   4.953   7.079   5.160  1.5514  0.6233 -1.0827
 6664TIP3   OH219948   7.291   6.693   5.142  0.1502  0.4232  0.0264
 6664TIP3    H119949   7.300   6.788   5.133  0.4087  0.3346 -0.7339
 6664TIP3    H219950   7.379   6.663   5.164  0.4746  0.1879 -1.4738
 6665TIP3   OH219951   3.739   7.261   0.310  0.5510 -0.2437  0.0331
 6665TIP3    H119952   3.722   7.189   0.371  2.1850 -0.5517  0.1836
 6665TIP3    H219953   3.831   7.282   0.325  0.1541  1.7830 -0.1229
 6666TIP3   OH219954   0.261   7.134   2.748  0.8709  0.3907  0.0952
 6666TIP3    H119955   0.330   7.089   2.797  0.2544  0.7694  1.3398
 6666TIP3    H219956   0.266   7.225   2.777 -0.3188  0.3686  0.4016
 6667TIP3   OH219957   6.782   1.735   4.348 -0.1533  0.3920  0.7328
 6667TIP3    H119958   6.716   1.779   4.402  2.1397  2.8848  1.7403
 6667TIP3    H219959   6.790   1.791   4.270  1.7324  1.0050  1.3151
 6668TIP3   OH219960   4.630   5.478   4.845  0.7479 -0.1075 -0.3664
 6668TIP3    H119961   4.683   5.504   4.770  3.0796 -0.1526  1.1865
 6668TIP3    H219962   4.590   5.560   4.875  2.9692  0.6759  0.6534
 6669TIP3   OH219963   7.425   1.968   5.600 -0.4078  0.4212 -0.1432
 6669TIP3    H119964   7.464   2.055   5.585  0.8114  0.6352  3.4183
 6669TIP3    H219965   7.492   1.906   5.571 -0.1908  0.7005 -0.2405
 6670TIP3   OH219966   3.407   0.081   4.894  0.3402 -0.0669 -0.0752
 6670TIP3    H119967   3.327   0.103   4.940  0.4698 -2.4610  1.5030
 6670TIP3    H219968   3.378   0.028   4.819  0.3667  0.4832 -0.4805
 6671TIP3   OH219969   0.545   2.907   4.602 -0.1114  0.2783  0.0369
 6671TIP3    H119970   0.457   2.945   4.592  1.0979  3.0054 -1.1671
 6671TIP3    H219971   0.550   2.841   4.533 -0.9849  0.4988 -0.2553
 6672TIP3   OH219972   5.746   4.598   1.668  0.1923 -0.7041 -0.8750
 6672TIP3    H119973   5.712   4.588   1.579 -2.6929 -0.1139  0.0301
 6672TIP3    H219974   5.772   4.690   1.673  1.6287 -1.0506 -1.4431
 6673TIP3   OH219975   3.396   3.589   6.354  0.0316  0.0787  0.5215
 6673TIP3    H119976   3.372   3.531   6.282  1.1101 -1.2119  1.1675
 6673TIP3    H219977   3.476   3.633   6.324 -0.9432  1.5332 -0.0911
 6674TIP3   OH219978   7.656   1.964   2.721 -0.3570  0.1349  0.0596
 6674TIP3    H119979   7.600   2.042   2.717  0.2774  0.5473 -2.7672
 6674TIP3    H219980   7.737   1.991   2.678 -0.6482 -2.4524 -2.3823
 6675TIP3   OH219981   7.619   5.027   3.410  0.4442  0.3137  1.0194
 6675TIP3    H119982   7.620   4.931   3.413 -2.0764  0.1281 -0.9346
 6675TIP3    H219983   7.658   5.049   3.325 -1.2697  0.8336  0.3265
 6676TIP3   OH219984   7.780   2.053   3.889 -0.2009 -0.0567 -0.1017
 6676TIP3    H119985   7.819   2.032   3.804 -1.5807 -1.8122 -0.3598
 6676TIP3    H219986   7.777   2.149   3.891  1.7213  0.0669 -1.1254
 6677TIP3   OH219987   1.940   4.730   6.085 -0.3812  0.3191 -0.6435
 6677TIP3    H119988   1.975   4.755   5.999 -0.6649  1.0025 -0.5683
 6677TIP3    H219989   1.876   4.798   6.105 -1.9287 -1.0345 -0.8742
 6678TIP3   OH219990   5.617   5.687   1.892 -0.0354 -0.4360  0.3756
 6678TIP3    H119991   5.667   5.762   1.862  0.4315 -0.1232  1.8526
 6678TIP3    H219992   5.588   5.711   1.980  0.0697 -1.9495  0.8529
 6679TIP3   OH219993   6.321   3.621   3.713  0.5867 -0.7873  0.2176
 6679TIP3    H119994   6.385   3.687   3.690  0.3017 -0.1244  1.2682
 6679TIP3    H219995   6.240   3.649   3.669  0.5636 -0.6358  0.3547
 6680TIP3   OH219996   5.886   5.829   4.518 -0.4594 -0.5094 -0.2392
 6680TIP3    H119997   5.822   5.758   4.511 -0.0931 -0.8873  0.1481
 6680TIP3    H219998   5.971   5.785   4.518 -0.1446  0.0510 -1.7740
 6681TIP3   OH219999   2.066   2.917   1.474 -0.1800  0.2820  0.0839
 6681TIP3    H120000   2.065   2.970   1.395 -2.7086  1.6001  0.9100
 6681TIP3    H220001   2.016   2.838   1.451 -0.0649  0.2060  0.0921
 6682TIP3   OH220002   1.734   7.533   4.053 -0.4072 -0.0536  0.5338
 6682TIP3    H120003   1.650   7.509   4.013 -1.4573  1.3855  1.7411
 6682TIP3    H220004   1.795   7.538   3.979 -1.5390 -0.4378 -0.4700
 6683TIP3   OH220005   1.396   3.056   5.960  0.4980 -0.3926 -0.1173
 6683TIP3    H120006   1.457   3.016   5.899  0.9694 -2.9316  1.8239
 6683TIP3    H220007   1.445   3.062   6.042 -0.2217  2.5526  0.2136
 6684TIP3   OH220008   7.135   0.916   3.051 -0.0638 -0.0521 -0.1701
 6684TIP3    H120009   7.063   0.970   3.085 -0.1106  0.9011 -1.6918
 6684TIP3    H220010   7.092   0.839   3.014 -0.3098  0.3847 -0.8239
 6685TIP3   OH220011   7.660   6.345   2.788  0.5047  0.3753  0.3051
 6685TIP3    H120012   7.720   6.378   2.855  0.4187 -0.5776  0.8575
 6685TIP3    H220013   7.582   6.318   2.836  0.0401  0.6298 -0.2961
 6686TIP3   OH220014   2.717   2.738   1.893 -0.1523 -0.1142  0.5581
 6686TIP3    H120015   2.656   2.722   1.821  1.0837  0.3297 -0.6350
 6686TIP3    H220016   2.664   2.782   1.959 -1.2541 -0.2394 -0.1997
 6687TIP3   OH220017   1.632   3.550   4.414 -0.2961  0.4886 -0.4593
 6687TIP3    H120018   1.676   3.484   4.362 -0.4394  0.7140 -0.8741
 6687TIP3    H220019   1.671   3.543   4.501 -2.0105 -1.8186  0.2196
 6688TIP3   OH220020   0.370   3.943   2.187  0.5463  0.7130  0.2180
 6688TIP3    H120021   0.343   3.969   2.099 -1.5436 -0.6232  0.3984
 6688TIP3    H220022   0.302   3.978   2.245  0.9591  0.0641  1.1240
 6689TIP3   OH220023   1.772   0.362   2.596 -0.5533  0.2460  0.0790
 6689TIP3    H120024   1.727   0.297   2.542 -0.9757  0.6618 -0.0818
 6689TIP3    H220025   1.834   0.311   2.648  0.2277 -0.1169 -1.1538
 6690TIP3   OH220026   4.817   7.180   1.835  0.1419 -0.1751  0.0139
 6690TIP3    H120027   4.876   7.111   1.806  0.5008 -0.1737  0.7091
 6690TIP3    H220028   4.875   7.250   1.866 -0.2138  0.4942 -0.7825
 6691TIP3   OH220029   6.223   0.640   3.176  0.1935  0.0207  0.1772
 6691TIP3    H120030   6.131   0.632   3.152  0.2563  2.4609 -1.2461
 6691TIP3    H220031   6.227   0.719   3.229  1.6580  1.0668 -1.3712
 6692TIP3   OH220032   7.317   4.802   2.934 -0.3977  0.5689 -0.6198
 6692TIP3    H120033   7.403   4.836   2.956 -0.0856 -0.0418 -0.8582
 6692TIP3    H220034   7.332   4.749   2.855 -0.4308 -1.8914  0.9233
 6693TIP3   OH220035   2.850   1.670   4.652  0.4935  0.0332  0.2993
 6693TIP3    H120036   2.927   1.674   4.595  0.1031  1.2983 -0.1722
 6693TIP3    H220037   2.789   1.734   4.615 -0.4965 -0.4177  1.0960
 6694TIP3   OH220038   1.575   1.027   5.928 -0.4117  0.1576 -0.5496
 6694TIP3    H120039   1.618   1.097   5.978 -1.0240 -0.8284  1.4143
 6694TIP3    H220040   1.600   0.946   5.971 -0.6520 -0.7931 -2.0957
 6695TIP3   OH220041   1.311   2.855   2.583  0.3246  0.6631  0.3701
 6695TIP3    H120042   1.273   2.934   2.621  0.3738  0.5482  0.6581
 6695TIP3    H220043   1.389   2.886   2.537  0.6643  0.7035  0.9716
 6696TIP3   OH220044   5.407   6.196   2.990  0.7613 -0.4894 -0.4900
 6696TIP3    H120045   5.456   6.180   3.070 -0.2945 -0.8873  0.0848
 6696TIP3    H220046   5.316   6.175   3.012 -0.1252  2.4920 -0.8032
 6697TIP3   OH220047   4.672   3.468   6.256 -0.0080  0.1216  0.4962
 6697TIP3    H120048   4.721   3.422   6.188  0.6845  1.1882  0.2543
 6697TIP3    H220049   4.724   3.546   6.275 -1.7613  1.4664  0.0019
 6698TIP3   OH220050   7.141   1.771   4.796  0.0655  0.0891  0.0908
 6698TIP3    H120051   7.158   1.865   4.807  1.5374 -0.0922 -0.4037
 6698TIP3    H220052   7.225   1.729   4.814 -0.2969 -1.0539 -0.7287
 6699TIP3   OH220053   4.793   0.262   1.103 -0.4545 -0.0151  0.8587
 6699TIP3    H120054   4.786   0.167   1.092 -0.0603  0.1296 -0.9644
 6699TIP3    H220055   4.725   0.297   1.045 -0.3587  0.8314  1.2526
 6700TIP3   OH220056   6.055   5.019   5.445 -0.1769 -0.0772  0.0108
 6700TIP3    H120057   6.120   5.088   5.433  0.6105 -1.0244 -1.4257
 6700TIP3    H220058   6.085   4.970   5.521  0.6298 -0.2960 -0.4367
 6701TIP3   OH220059   5.527   5.687   5.363  0.8737 -0.2173 -0.2040
 6701TIP3    H120060   5.565   5.772   5.382  1.1744 -0.5318  0.6842
 6701TIP3    H220061   5.549   5.633   5.440  0.0034 -0.8607 -0.3836
 6702TIP3   OH220062   7.976   4.790   6.037  0.4002  0.1246  0.1193
 6702TIP3    H120063   7.979   4.700   6.069 -1.9055  0.4232  1.4474
 6702TIP3    H220064   8.025   4.840   6.101 -0.9280  0.1824  1.1443
 6703TIP3   OH220065   7.748   0.837   4.752 -0.2200  0.2221  0.5979
 6703TIP3    H120066   7.751   0.889   4.672 -0.1483 -0.2117  0.3203
 6703TIP3    H220067   7.732   0.748   4.723 -0.0312  0.0346  1.0558
 6704TIP3   OH220068   0.739   6.171   4.167 -0.7020 -0.5992  0.1956
 6704TIP3    H120069   0.812   6.230   4.186 -0.0266 -1.5905  0.7572
 6704TIP3    H220070   0.696   6.211   4.091 -0.9846  1.2492  1.2525
 6705TIP3   OH220071   4.870   5.784   0.439 -0.5298 -0.1912 -0.6796
 6705TIP3    H120072   4.939   5.796   0.373 -1.1089  1.6691 -1.0153
 6705TIP3    H220073   4.788   5.795   0.390 -0.9745  1.2397  0.2930
 6706TIP3   OH220074   3.178   5.680   3.793  0.0802  0.1822 -0.2460
 6706TIP3    H120075   3.252   5.620   3.806  0.2818  0.3777 -0.4636
 6706TIP3    H220076   3.171   5.728   3.876 -0.5969 -0.6984  0.2124
 6707TIP3   OH220077   2.062   0.272   0.728  0.0809  0.1827  0.5624
 6707TIP3    H120078   1.984   0.291   0.676 -1.4657 -1.3636  2.1748
 6707TIP3    H220079   2.090   0.358   0.761  0.8963  1.1555 -2.3440
 6708TIP3   OH220080   1.893   2.759   4.158 -0.2792  0.2467 -0.0842
 6708TIP3    H120081   1.949   2.728   4.228  0.0372 -0.2019 -0.5301
 6708TIP3    H220082   1.832   2.819   4.201 -0.0802 -0.0090  0.5665
 6709TIP3   OH220083   0.505   5.584   0.467  0.1484  0.2749 -0.0407
 6709TIP3    H120084   0.528   5.601   0.376  1.3623  1.7273  0.5012
 6709TIP3    H220085   0.451   5.659   0.493 -0.1691 -0.1121  0.4551
 6710TIP3   OH220086   3.318   2.797   4.300 -0.2747 -0.1912  0.4404
 6710TIP3    H120087   3.336   2.882   4.341  0.7494  0.6892 -1.6899
 6710TIP3    H220088   3.307   2.737   4.374  1.4573  1.2950  2.0256
 6711TIP3   OH220089   5.440   3.539   4.575 -0.5188 -1.0030 -0.2441
 6711TIP3    H120090   5.487   3.574   4.499 -2.0520 -1.2227 -1.3265
 6711TIP3    H220091   5.508   3.496   4.627  0.6831 -0.2158 -1.0990
 6712TIP3   OH220092   2.625   2.622   6.241 -0.4036  0.4705  0.0879
 6712TIP3    H120093   2.657   2.711   6.225  0.8152 -0.1889 -1.3577
 6712TIP3    H220094   2.599   2.590   6.155  1.8483 -1.5537  0.0757
 6713TIP3   OH220095   4.900   0.675   4.798  0.2441 -0.0040  0.0503
 6713TIP3    H120096   4.949   0.629   4.730  1.6511  0.3506  0.7859
 6713TIP3    H220097   4.962   0.739   4.833 -0.8275  0.6269  0.8707
 6714TIP3   OH220098   2.012   4.665   2.736 -0.6059  0.0772 -0.3163
 6714TIP3    H120099   1.988   4.583   2.693 -2.1215 -0.5634  1.5948
 6714TIP3    H220100   1.932   4.718   2.731 -1.0502 -0.2504  2.1065
 6715TIP3   OH220101   1.587   5.660   0.693  0.6906  0.1717  0.1711
 6715TIP3    H120102   1.548   5.746   0.705  0.6422 -0.0328  1.6619
 6715TIP3    H220103   1.664   5.659   0.751  0.3345 -0.9970  0.6624
 6716TIP3   OH220104   7.816   3.343   2.678  0.2366  0.8287 -0.1493
 6716TIP3    H120105   7.904   3.379   2.669  0.3600  0.6791  0.4016
 6716TIP3    H220106   7.830   3.255   2.715 -0.1977  1.2118  0.9627
 6717TIP3   OH220107   0.677   7.760   4.031  0.0776 -0.0663 -0.2039
 6717TIP3    H120108   0.604   7.698   4.038 -1.0927  1.2274 -0.5674
 6717TIP3    H220109   0.704   7.755   3.939  0.3098 -0.3822 -0.1205
 6718TIP3   OH220110   2.394   1.913   0.223 -0.2025  0.4614 -0.6568
 6718TIP3    H120111   2.397   1.884   0.314  1.4826  0.5736 -0.6322
 6718TIP3    H220112   2.304   1.943   0.209 -0.9247 -1.0844  0.4743
 6719TIP3   OH220113   3.319   0.184   2.882  0.4372 -0.0189 -0.4388
 6719TIP3    H120114   3.318   0.196   2.977 -1.1474 -1.5745 -0.2182
 6719TIP3    H220115   3.248   0.240   2.850  0.9683  0.5037 -0.7314
 6720TIP3   OH220116   4.931   1.352   2.984 -0.0837 -0.2459 -0.3817
 6720TIP3    H120117   4.994   1.295   2.939  0.5670  0.2112 -0.0481
 6720TIP3    H220118   4.849   1.301   2.982  0.8907 -2.0153  1.4958
 6721TIP3   OH220119   8.225   2.120   0.881  0.4832 -0.0258  0.6876
 6721TIP3    H120120   8.167   2.182   0.926 -2.8916 -1.3915 -1.4416
 6721TIP3    H220121   8.217   2.039   0.931 -1.1565 -0.7834 -0.7074
 6722TIP3   OH220122   1.083   0.879   1.252  0.3145 -0.2659 -0.3261
 6722TIP3    H120123   1.123   0.845   1.172  1.4584 -0.0346  0.1255
 6722TIP3    H220124   1.157   0.907   1.306 -0.5206  1.4739 -0.0193
 6723TIP3   OH220125   2.685   6.474   1.519 -0.1161 -0.2961  0.2597
 6723TIP3    H120126   2.640   6.484   1.603 -0.4950 -2.7021  0.4055
 6723TIP3    H220127   2.614   6.471   1.455  0.1372  0.7034 -0.0954
 6724TIP3   OH220128   6.957   6.496   3.728  0.5287  0.4934  0.1451
 6724TIP3    H120129   6.948   6.422   3.788 -1.7791  1.6127  1.2938
 6724TIP3    H220130   6.922   6.465   3.645 -0.6932  0.3544  0.6980
 6725TIP3   OH220131   1.476   5.109   2.028  0.2820  0.1237 -0.1418
 6725TIP3    H120132   1.400   5.111   2.085  2.0890  0.9442  2.4062
 6725TIP3    H220133   1.549   5.138   2.083  2.2453  0.6507 -2.7967
 6726TIP3   OH220134   1.242   6.472   3.320  0.0138 -0.0951 -0.1547
 6726TIP3    H120135   1.205   6.539   3.262  1.9705 -0.9166 -2.5182
 6726TIP3    H220136   1.192   6.480   3.401 -3.2329  0.8036 -2.0851
 6727TIP3   OH220137   0.644   5.646   4.017 -0.1621 -0.0811 -0.3791
 6727TIP3    H120138   0.657   5.582   4.086 -1.6127  0.0791  0.0697
 6727TIP3    H220139   0.696   5.722   4.045  0.0877 -0.3886  0.0007
 6728TIP3   OH220140   5.494   3.906   4.574  0.0708 -0.1799  0.1556
 6728TIP3    H120141   5.399   3.912   4.566  0.1880  2.1087 -0.1703
 6728TIP3    H220142   5.516   3.971   4.641  1.4099 -0.6866  0.2303
 6729TIP3   OH220143   5.369   5.424   1.606  0.7599 -0.2346  0.3590
 6729TIP3    H120144   5.423   5.490   1.562 -0.8223  0.7383 -0.1817
 6729TIP3    H220145   5.286   5.425   1.559  0.2559 -1.7435  1.1416
 6730TIP3   OH220146   5.103   6.933   3.339  0.2929  0.9191 -0.1307
 6730TIP3    H120147   5.097   6.838   3.329  1.5045  0.7613  0.3868
 6730TIP3    H220148   5.071   6.950   3.427  2.2576  0.6787  0.6838
 6731TIP3   OH220149   6.471   6.354   0.578  0.0905 -0.3707  0.4702
 6731TIP3    H120150   6.527   6.345   0.655  0.7803  0.5343  0.0830
 6731TIP3    H220151   6.384   6.373   0.614  0.5411  0.7198  1.0282
 6732TIP3   OH220152   4.104   4.087   5.116 -0.4959  0.1329  0.6511
 6732TIP3    H120153   4.018   4.050   5.094 -0.3959  0.3539 -0.1490
 6732TIP3    H220154   4.085   4.174   5.150 -0.5958  0.1066  0.6645
 6733TIP3   OH220155   7.827   3.612   0.251  0.2005  0.5362 -0.3412
 6733TIP3    H120156   7.775   3.674   0.302  0.7777  0.1114  0.8009
 6733TIP3    H220157   7.763   3.563   0.199 -0.5311  0.1869  0.8514
 6734TIP3   OH220158   2.686   5.447   0.643 -0.2256  0.1172  0.1487
 6734TIP3    H120159   2.692   5.542   0.632  0.4998  0.2048  1.2221
 6734TIP3    H220160   2.602   5.433   0.687 -0.8958  0.1391 -1.0598
 6735TIP3   OH220161   1.708   5.445   3.627  0.7774  0.3655 -0.8317
 6735TIP3    H120162   1.643   5.503   3.668  0.3400  0.3365 -1.4670
 6735TIP3    H220163   1.711   5.368   3.684 -1.0993 -0.4443 -1.7309
 6736TIP3   OH220164   3.127   4.353   0.855 -0.1532  0.7215  0.0291
 6736TIP3    H120165   3.122   4.308   0.939 -0.9886 -0.7298 -0.7506
 6736TIP3    H220166   3.037   4.375   0.834 -0.0444  0.3864 -0.8311
 6737TIP3   OH220167   7.496   6.926   1.163  0.1619  0.6148 -0.0350
 6737TIP3    H120168   7.408   6.959   1.183 -0.7003 -0.7413 -1.3024
 6737TIP3    H220169   7.527   6.888   1.245 -0.1659  1.6654  0.5916
 6738TIP3   OH220170   1.491   2.529   0.843  0.2551 -0.1276  0.6976
 6738TIP3    H120171   1.442   2.498   0.918 -1.9089  0.2811 -0.4704
 6738TIP3    H220172   1.555   2.460   0.825  0.0936 -0.7036  2.2375
 6739TIP3   OH220173   3.731   4.130   4.577  0.2330  0.5285 -0.0588
 6739TIP3    H120174   3.810   4.146   4.628 -0.3289  1.3449  0.5608
 6739TIP3    H220175   3.701   4.216   4.549  0.0510  0.1595 -1.0460
 6740TIP3   OH220176   0.068   3.129   3.482  0.9026  0.2410 -0.3058
 6740TIP3    H120177  -0.009   3.099   3.433  0.8392 -0.0318 -0.0455
 6740TIP3    H220178   0.069   3.074   3.560 -0.8171  2.7804  1.6299
 6741TIP3   OH220179   4.712   6.326   5.762 -0.1780  0.2970  0.2333
 6741TIP3    H120180   4.633   6.294   5.805 -0.2708  0.5488  0.2481
 6741TIP3    H220181   4.680   6.387   5.695  0.0024  0.3695  0.2131
 6742TIP3   OH220182   3.486   3.154   1.738  0.0604  0.6564 -0.2610
 6742TIP3    H120183   3.393   3.136   1.725 -0.1480  0.8949  0.8496
 6742TIP3    H220184   3.499   3.148   1.832  1.7938 -2.2405 -0.5757
 6743TIP3   OH220185   2.563   4.796   3.335  0.0245 -0.2301  0.2138
 6743TIP3    H120186   2.517   4.865   3.287 -1.3870 -0.5642  1.0525
 6743TIP3    H220187   2.600   4.740   3.267  0.2421  0.7158 -0.4723
 6744TIP3   OH220188   6.812   4.367   3.415 -0.2803 -0.1429  0.0332
 6744TIP3    H120189   6.852   4.441   3.460  1.5987 -0.3560 -1.1529
 6744TIP3    H220190   6.752   4.405   3.352 -1.1527  0.2392  1.0658
 6745TIP3   OH220191   1.413   2.111   2.082 -0.0578 -0.2196  0.5343
 6745TIP3    H120192   1.399   2.191   2.133 -0.4249  0.9999 -1.3615
 6745TIP3    H220193   1.507   2.094   2.090  0.2676  1.1622 -0.0371
 6746TIP3   OH220194   0.397   3.546   2.301 -0.0540  0.1838  0.1711
 6746TIP3    H120195   0.316   3.496   2.294 -1.5115  2.1000  2.0969
 6746TIP3    H220196   0.443   3.508   2.376  0.2927 -0.1502 -0.2037
 6747TIP3   OH220197   4.027   5.835   2.398  0.5863  0.1683  0.9507
 6747TIP3    H120198   4.057   5.744   2.399 -0.8919 -0.3436  0.3959
 6747TIP3    H220199   3.934   5.831   2.417  0.1743  1.4358 -0.5523
 6748TIP3   OH220200   3.449   3.726   2.018  0.5311 -0.1019 -0.2671
 6748TIP3    H120201   3.436   3.818   1.998  2.0753 -0.0532 -1.2618
 6748TIP3    H220202   3.414   3.714   2.106  1.6802  1.7903  0.5024
 6749TIP3   OH220203   1.412   2.668   6.516 -0.0393 -0.1179 -0.1174
 6749TIP3    H120204   1.391   2.650   6.425 -0.4323 -2.1173  0.3053
 6749TIP3    H220205   1.495   2.622   6.531 -1.0159 -1.6327  1.0105
 6750TIP3   OH220206   4.940   0.326   5.928  0.0847 -0.1490 -0.0507
 6750TIP3    H120207   4.961   0.316   6.021 -0.2319  0.5607  0.1043
 6750TIP3    H220208   4.994   0.400   5.900  0.8409 -0.9048 -0.6607
 6751TIP3   OH220209   8.208   5.056   5.271 -0.0776 -0.1262  0.2005
 6751TIP3    H120210   8.208   4.969   5.311 -1.6871 -0.4868 -0.5012
 6751TIP3    H220211   8.195   5.040   5.178  0.7636  0.8272 -0.0983
 6752TIP3   OH220212   4.793   4.504   5.515 -0.3860  0.2916 -0.1650
 6752TIP3    H120213   4.711   4.503   5.465 -0.3285  1.4808 -0.3055
 6752TIP3    H220214   4.847   4.436   5.473 -1.9384 -1.8231  1.1006
 6753TIP3   OH220215   8.238   6.849   3.235  0.5317  0.2180 -0.3100
 6753TIP3    H120216   8.253   6.843   3.330  1.4351 -0.9125 -0.4985
 6753TIP3    H220217   8.179   6.923   3.225  0.5734  0.4828  1.1258
 6754TIP3   OH220218   3.850   6.637   5.755  0.3438  0.3590 -0.9881
 6754TIP3    H120219   3.787   6.634   5.828  0.7942 -1.2618 -0.6263
 6754TIP3    H220220   3.798   6.663   5.680  0.1040  3.3908  0.0991
 6755TIP3   OH220221   3.934   6.727   1.982  0.0554  0.0882  0.1473
 6755TIP3    H120222   3.918   6.760   1.893 -1.2995  0.3491  0.4696
 6755TIP3    H220223   3.975   6.642   1.969  2.9344  1.4808 -0.7160
 6756TIP3   OH220224   4.513   2.269   2.939  0.5868  0.0936 -0.0191
 6756TIP3    H120225   4.493   2.176   2.951  1.9143 -0.3541 -1.0308
 6756TIP3    H220226   4.561   2.293   3.018  1.1976 -0.3838 -0.2376
 6757TIP3   OH220227   0.607   5.339   3.110 -0.1383 -0.4704  0.5889
 6757TIP3    H120228   0.663   5.316   3.037 -0.6590  1.7950 -0.6357
 6757TIP3    H220229   0.667   5.375   3.176  0.0103  1.2454 -0.4131
 6758TIP3   OH220230   4.179   2.567   0.093 -0.1618  0.4090  0.3937
 6758TIP3    H120231   4.102   2.621   0.114 -0.9451 -0.1173 -0.9957
 6758TIP3    H220232   4.144   2.479   0.080  0.5004  0.3597 -1.2974
 6759TIP3   OH220233   1.614   7.091   5.017  0.2370 -0.3315  0.2049
 6759TIP3    H120234   1.664   7.168   4.988 -1.4012  1.1684  1.1530
 6759TIP3    H220235   1.619   7.094   5.113  3.0086 -3.4469  0.3205
 6760TIP3   OH220236   4.778   4.417   5.047 -0.4936 -0.6248 -0.2348
 6760TIP3    H120237   4.728   4.340   5.019  0.2679 -0.7829 -1.2456
 6760TIP3    H220238   4.830   4.440   4.970 -2.7188  2.6001 -0.9734
 6761TIP3   OH220239   0.242   4.882   3.892  0.1838 -0.2035  0.5038
 6761TIP3    H120240   0.290   4.938   3.832  0.4092 -0.5613  0.3509
 6761TIP3    H220241   0.198   4.943   3.952 -0.2864  0.1690 -0.2020
 6762TIP3   OH220242   6.784   3.922   1.141 -0.9182  0.3954  0.1573
 6762TIP3    H120243   6.850   3.860   1.173 -0.9175 -1.1792 -2.6455
 6762TIP3    H220244   6.703   3.892   1.181 -0.2469  1.7629  2.8436
 6763TIP3   OH220245   1.577   3.985   2.869  0.0379 -0.3443  0.1598
 6763TIP3    H120246   1.606   3.971   2.959 -0.5620 -1.5183  0.1921
 6763TIP3    H220247   1.628   4.060   2.838 -0.8313  1.0585  1.9662
 6764TIP3   OH220248   0.890   3.379   3.367 -0.2199 -0.0345 -0.2181
 6764TIP3    H120249   0.934   3.434   3.302 -2.3517  0.7855 -1.0559
 6764TIP3    H220250   0.894   3.429   3.448  2.5409 -1.1050  0.4434
 6765TIP3   OH220251   7.461   1.350   0.294 -0.3726  0.2148  0.2988
 6765TIP3    H120252   7.393   1.397   0.342 -0.9893 -2.2635  2.0568
 6765TIP3    H220253   7.414   1.277   0.254  0.9981 -0.6300  0.1916
 6766TIP3   OH220254   7.534   1.944   6.617 -0.1796  0.2708 -0.3282
 6766TIP3    H120255   7.577   2.015   6.665 -1.2854 -1.2206  3.2148
 6766TIP3    H220256   7.442   1.971   6.612 -0.7938 -1.1686  1.8822
 6767TIP3   OH220257   7.340   7.295   4.526  0.6355 -0.0500  0.3371
 6767TIP3    H120258   7.354   7.382   4.489 -0.4357  0.0424  0.1190
 6767TIP3    H220259   7.401   7.239   4.477  0.2289  0.3076 -0.6134
 6768TIP3   OH220260   2.267   7.757   6.081  0.2328 -0.4593 -0.3674
 6768TIP3    H120261   2.207   7.779   6.011 -2.1301  1.5117  2.0565
 6768TIP3    H220262   2.327   7.833   6.086 -2.0040  1.3424  1.9766
 6769TIP3   OH220263   1.954   6.946   1.789 -0.3285  0.7348  0.0462
 6769TIP3    H120264   1.967   6.858   1.754 -2.0533 -0.0334  1.2098
 6769TIP3    H220265   1.908   6.993   1.718 -1.2939  0.0429  0.1995
 6770TIP3   OH220266   1.070   3.062   5.571  0.4484 -0.5634  0.6776
 6770TIP3    H120267   1.033   2.988   5.522 -1.6396  0.2315  0.9765
 6770TIP3    H220268   0.995   3.101   5.616  1.8304  0.5625  2.1028
 6771TIP3   OH220269   7.554   3.401   6.583  0.4659 -0.0964 -0.2806
 6771TIP3    H120270   7.562   3.354   6.666  0.3405  1.6485  0.7742
 6771TIP3    H220271   7.573   3.335   6.516  2.8749 -1.0805  1.2095
 6772TIP3   OH220272   1.986   7.197   3.064 -0.0314  0.0201 -0.1822
 6772TIP3    H120273   2.056   7.200   3.129  0.2822  0.1831 -0.5208
 6772TIP3    H220274   1.924   7.133   3.098  0.8004 -0.9322 -0.3850
 6773TIP3   OH220275   3.365   3.667   5.995 -0.3275 -0.0587 -0.4406
 6773TIP3    H120276   3.399   3.681   6.084  0.6200  1.3026 -0.9904
 6773TIP3    H220277   3.341   3.754   5.965  0.8140 -0.2885 -2.0981
 6774TIP3   OH220278   2.413   0.574   4.732 -0.4526  0.4881  0.3240
 6774TIP3    H120279   2.452   0.650   4.777  2.2391 -0.6329  0.0235
 6774TIP3    H220280   2.460   0.499   4.767 -1.3528 -0.8374 -1.1993
 6775TIP3   OH220281   4.479   3.243   2.762 -0.2726 -0.2586  0.4406
 6775TIP3    H120282   4.477   3.338   2.761  0.5298 -0.2189 -1.0536
 6775TIP3    H220283   4.388   3.216   2.748 -0.1241  0.3726 -2.2770
 6776TIP3   OH220284   5.841   0.783   0.910  0.8170 -0.2569  0.2640
 6776TIP3    H120285   5.757   0.820   0.882  0.0017 -1.4361  1.0489
 6776TIP3    H220286   5.841   0.794   1.005  2.5068  1.5891  0.1130
 6777TIP3   OH220287   1.656   4.634   3.363  0.2539 -0.0490 -0.4908
 6777TIP3    H120288   1.661   4.596   3.451  1.2249  1.9158  0.3767
 6777TIP3    H220289   1.728   4.697   3.361 -1.0097  1.4132 -1.9848
 6778TIP3   OH220290   1.315   7.620   3.677 -0.9624 -0.0303 -0.2111
 6778TIP3    H120291   1.363   7.632   3.595 -0.7695  1.6672  0.1095
 6778TIP3    H220292   1.241   7.681   3.671 -0.6250  0.5572  1.0797
 6779TIP3   OH220293   4.307   1.925   1.647 -0.0347 -0.3456  0.0391
 6779TIP3    H120294   4.395   1.956   1.669 -0.1506  0.4667 -0.5826
 6779TIP3    H220295   4.317   1.831   1.633  0.6953 -0.2949  0.1772
 6780TIP3   OH220296   2.058   4.051   3.052 -0.3835 -0.1582 -0.6410
 6780TIP3    H120297   2.064   4.110   3.127 -1.6334 -1.0026  0.1581
 6780TIP3    H220298   2.047   3.964   3.090  1.6659 -1.0113 -1.7802
 6781TIP3   OH220299   2.822   7.374   3.956  0.2327  0.2318  0.0644
 6781TIP3    H120300   2.885   7.303   3.967 -0.2073 -0.0650  0.7262
 6781TIP3    H220301   2.865   7.451   3.994  0.2350  0.0468  0.4429
 6782TIP3   OH220302   0.205   2.331   5.223  0.3190 -0.1216  0.0493
 6782TIP3    H120303   0.215   2.376   5.307  0.8953  2.3376 -1.2493
 6782TIP3    H220304   0.140   2.384   5.176  1.2222 -0.4922 -1.6664
 6783TIP3   OH220305   7.627   4.476   5.481  0.0186 -0.2420 -0.4750
 6783TIP3    H120306   7.705   4.525   5.509 -0.1055 -0.6401  0.6368
 6783TIP3    H220307   7.590   4.527   5.409  1.4929 -0.2256 -1.2512
 6784TIP3   OH220308   4.519   2.761   2.219 -0.1125  0.1689  0.1561
 6784TIP3    H120309   4.562   2.807   2.291 -0.4472 -0.1577  0.5672
 6784TIP3    H220310   4.453   2.707   2.261 -0.5926  0.2902 -0.4328
 6785TIP3   OH220311   2.892   3.174   0.427 -0.3759 -0.0594 -0.1794
 6785TIP3    H120312   2.809   3.146   0.465 -2.0523  1.1040 -2.7289
 6785TIP3    H220313   2.935   3.093   0.400 -0.4552 -0.6976  1.4978
 6786TIP3   OH220314   3.463   0.432   2.709 -0.2699  0.1445  0.0494
 6786TIP3    H120315   3.418   0.502   2.660  0.1284  0.1813 -0.2657
 6786TIP3    H220316   3.432   0.444   2.799 -0.8507  0.2040 -0.1495
 6787TIP3   OH220317   0.281   0.513   0.971  0.0660  0.1826  0.2436
 6787TIP3    H120318   0.326   0.443   0.925  0.4981  1.2628 -1.0373
 6787TIP3    H220319   0.198   0.523   0.924 -0.3541  0.0139  0.9226
 6788TIP3   OH220320   2.535   6.353   5.851 -0.2596  0.1598 -0.8749
 6788TIP3    H120321   2.535   6.443   5.819 -1.1589 -0.4067 -2.5853
 6788TIP3    H220322   2.513   6.360   5.944 -0.2106  1.7021 -0.9614
 6789TIP3   OH220323   0.659   7.511   3.773  0.4726 -0.2428  0.2127
 6789TIP3    H120324   0.611   7.485   3.695  0.1986 -1.0103  0.6325
 6789TIP3    H220325   0.749   7.485   3.756  0.9106  1.7390 -0.8306
 6790TIP3   OH220326   0.891   6.103   5.879 -0.1220 -0.4519  0.5029
 6790TIP3    H120327   0.863   6.048   5.952 -0.2641 -1.5427 -0.3374
 6790TIP3    H220328   0.982   6.127   5.899  0.5141 -2.3810  0.1350
 6791TIP3   OH220329   8.074   3.871   4.843  0.1479 -0.3242 -0.0952
 6791TIP3    H120330   8.099   3.829   4.760  0.0941  0.4706 -0.5261
 6791TIP3    H220331   8.138   3.840   4.906 -0.1539 -1.4140 -0.2851
 6792TIP3   OH220332   2.817   0.698   0.253  0.1404 -0.2125  0.7072
 6792TIP3    H120333   2.754   0.768   0.271  0.5890  0.3892 -0.0212
 6792TIP3    H220334   2.869   0.692   0.334 -0.4497 -0.2935  1.0853
 6793TIP3   OH220335   0.379   2.072   4.472 -0.5884  0.4212 -0.4185
 6793TIP3    H120336   0.431   2.055   4.394 -1.6687 -1.2478 -0.8275
 6793TIP3    H220337   0.313   2.135   4.444 -0.3436  0.6059 -0.5801
 6794TIP3   OH220338   5.841   4.031   5.550 -0.2936  0.3513 -0.5059
 6794TIP3    H120339   5.831   3.954   5.495  0.7672 -1.1099  1.2178
 6794TIP3    H220340   5.765   4.029   5.608 -0.5202  0.9016 -0.7765
 6795TIP3   OH220341   1.109   4.078   0.246 -0.4039  0.0333 -0.8258
 6795TIP3    H120342   1.164   4.011   0.288 -0.0869  1.1404  0.5881
 6795TIP3    H220343   1.084   4.039   0.162 -0.7929 -2.1266  0.2357
 6796TIP3   OH220344   2.924   1.696   2.068 -0.0503 -0.3926  0.0813
 6796TIP3    H120345   2.865   1.642   2.121 -0.3142 -0.5342 -0.3488
 6796TIP3    H220346   2.920   1.657   1.980  1.3427 -0.9204  0.2270
 6797TIP3   OH220347   2.583   0.558   4.206 -0.0031  0.1004 -0.3378
 6797TIP3    H120348   2.502   0.601   4.234  0.2939  0.1298  0.4856
 6797TIP3    H220349   2.576   0.555   4.110 -1.8556 -1.5718 -0.2154
 6798TIP3   OH220350   7.048   3.399   1.703  0.0777 -0.2650  0.0140
 6798TIP3    H120351   7.111   3.359   1.643 -0.4852 -0.6178 -0.3527
 6798TIP3    H220352   7.007   3.469   1.652  0.4645  0.2368  0.3854
 6799TIP3   OH220353   7.125   5.037   0.540  0.0871 -0.3653 -0.1480
 6799TIP3    H120354   7.084   5.101   0.599  3.1912  0.6171  1.1199
 6799TIP3    H220355   7.089   4.953   0.569  0.1040  0.2839  1.9723
 6800TIP3   OH220356   4.382   7.786   2.031 -0.2178 -0.1811  0.3894
 6800TIP3    H120357   4.448   7.719   2.011  1.0529  0.9861  0.5057
 6800TIP3    H220358   4.424   7.840   2.098 -2.4306 -1.0952  2.6581
 6801TIP3   OH220359   7.011   6.431   0.248 -0.2473  0.1851 -0.6453
 6801TIP3    H120360   7.038   6.342   0.270 -0.2120 -0.2515 -2.3174
 6801TIP3    H220361   7.040   6.484   0.322  2.1261 -0.7959 -0.7879
 6802TIP3   OH220362   2.829   3.317   4.885 -0.1320 -0.2712 -0.2638
 6802TIP3    H120363   2.780   3.262   4.824  1.4529  0.6156 -2.4307
 6802TIP3    H220364   2.796   3.405   4.870  0.6900  0.0431 -0.2493
 6803TIP3   OH220365   7.830   4.686   4.941 -0.0434 -0.6254 -0.6569
 6803TIP3    H120366   7.756   4.656   4.994  0.5089 -0.4209  0.2644
 6803TIP3    H220367   7.906   4.646   4.983  0.5278  0.5818 -0.5111
 6804TIP3   OH220368   0.900   3.023   0.104 -0.0115  0.3581  0.1549
 6804TIP3    H120369   0.858   2.979   0.030  0.7957 -0.1809  0.0096
 6804TIP3    H220370   0.838   3.010   0.177 -0.4266  0.1850 -0.2237
 6805TIP3   OH220371   7.712   7.659   4.046 -0.0566 -0.4702 -0.1836
 6805TIP3    H120372   7.628   7.614   4.045 -1.3338  1.8245 -0.0531
 6805TIP3    H220373   7.758   7.621   4.122 -0.4177 -2.5712 -0.9379
 6806TIP3   OH220374   6.990   3.311   3.165 -0.1557 -0.8849 -0.1292
 6806TIP3    H120375   6.990   3.389   3.110  2.0728  0.0090  1.0363
 6806TIP3    H220376   6.933   3.249   3.118 -0.9553  0.9573 -1.7254
 6807TIP3   OH220377   1.002   7.079   3.750 -0.0341 -0.0939 -0.0314
 6807TIP3    H120378   1.081   7.025   3.761 -0.1994 -0.6445 -1.3873
 6807TIP3    H220379   1.031   7.156   3.702 -0.1387  0.1978  0.3638
 6808TIP3   OH220380   0.582   5.461   1.084 -1.2142 -0.1786 -0.0461
 6808TIP3    H120381   0.531   5.401   1.030 -1.5770  1.3186 -1.4533
 6808TIP3    H220382   0.518   5.501   1.143 -1.2597 -0.0198 -0.2015
 6809TIP3   OH220383   2.864   0.418   3.010 -0.1859 -0.2444 -0.2510
 6809TIP3    H120384   2.790   0.379   2.963 -0.7240  1.1864 -0.6613
 6809TIP3    H220385   2.873   0.505   2.972 -0.0524  0.6430  1.6662
 6810TIP3   OH220386   8.070   7.109   2.027 -0.3669  0.0422 -0.3822
 6810TIP3    H120387   8.037   7.123   2.116 -0.6522 -2.1589 -0.0926
 6810TIP3    H220388   8.121   7.028   2.033 -0.4341 -0.1679 -2.2391
 6811TIP3   OH220389   6.453   4.944   5.076  0.4128 -0.3068 -0.3147
 6811TIP3    H120390   6.381   4.981   5.127 -0.1560 -1.1212 -0.5182
 6811TIP3    H220391   6.427   4.958   4.985  0.0526 -1.4664 -0.3968
 6812TIP3   OH220392   7.550   6.182   1.672 -0.3889  0.1624  0.6842
 6812TIP3    H120393   7.643   6.197   1.654 -0.7006 -0.4090 -1.8161
 6812TIP3    H220394   7.538   6.210   1.762  2.0665  0.8888  0.8585
 6813TIP3   OH220395   1.065   7.468   6.343  0.4799  0.3154  0.0038
 6813TIP3    H120396   1.042   7.449   6.252 -1.4547 -0.0318  0.5104
 6813TIP3    H220397   0.983   7.455   6.391  1.4410  0.5688  1.7873
 6814TIP3   OH220398   6.143   6.565  -0.017 -0.1689 -0.3889 -0.1953
 6814TIP3    H120399   6.199   6.640  -0.037  1.4345 -1.6986 -0.9239
 6814TIP3    H220400   6.151   6.554   0.077  1.0155 -0.6626 -0.3042
 6815TIP3   OH220401   4.657   6.780   2.319  0.3422  0.4778 -0.3071
 6815TIP3    H120402   4.569   6.742   2.320  0.8416 -0.7752 -1.4051
 6815TIP3    H220403   4.688   6.773   2.410 -0.1361 -0.4045 -0.2117
 6816TIP3   OH220404   4.407   4.009   5.941  0.0929 -0.2070 -0.2344
 6816TIP3    H120405   4.487   4.018   5.994  1.2674 -1.9823 -1.6154
 6816TIP3    H220406   4.434   4.034   5.852 -1.3644  0.8392 -0.4284
 6817TIP3   OH220407   1.590   2.518   0.042  0.5365 -0.4593  0.6112
 6817TIP3    H120408   1.667   2.519  -0.014  0.5678 -0.9155  0.6404
 6817TIP3    H220409   1.517   2.497  -0.017  0.6074 -1.2012  0.7777
 6818TIP3   OH220410   5.424   4.748   0.811  0.5823 -0.1489 -0.2617
 6818TIP3    H120411   5.332   4.743   0.836  0.9283 -0.9765  0.9141
 6818TIP3    H220412   5.471   4.713   0.886  1.8266 -0.3036 -1.0898
 6819TIP3   OH220413   0.453   7.012   3.249  0.1000 -0.4119 -0.1192
 6819TIP3    H120414   0.494   7.080   3.302 -0.0101  0.2338 -0.8387
 6819TIP3    H220415   0.362   7.040   3.241  0.3090  0.0077 -1.3899
 6820TIP3   OH220416   2.619   7.411   0.775 -0.3742 -0.0460 -0.6895
 6820TIP3    H120417   2.682   7.404   0.847 -1.6385 -1.4105  0.3468
 6820TIP3    H220418   2.571   7.491   0.793  0.2417  0.3594 -0.8130
 6821TIP3   OH220419   0.252   2.988   1.375 -0.3230  0.4769  0.1722
 6821TIP3    H120420   0.246   2.892   1.377 -0.4179  0.3863 -2.1569
 6821TIP3    H220421   0.346   3.006   1.366 -0.0087  0.7621  2.9739
 6822TIP3   OH220422   7.935   1.724   1.431 -0.2706 -0.3834 -0.3933
 6822TIP3    H120423   7.884   1.644   1.417  0.9598 -1.3934  0.6301
 6822TIP3    H220424   8.008   1.696   1.486  0.3257  1.4132 -0.2188
 6823TIP3   OH220425   0.891   3.588   0.203  0.0244 -0.4172  0.0072
 6823TIP3    H120426   0.902   3.494   0.215 -1.6144 -0.8073 -1.1549
 6823TIP3    H220427   0.969   3.615   0.155 -0.1505 -1.4859 -0.9448
 6824TIP3   OH220428   1.048   2.020   4.138  0.3676 -0.5785  0.7096
 6824TIP3    H120429   0.990   2.002   4.212  1.0428 -1.6945  0.9970
 6824TIP3    H220430   1.135   1.998   4.171  0.9620  1.0094  0.2722
 6825TIP3   OH220431   6.916   7.582   4.973 -0.1220  0.0176  0.0529
 6825TIP3    H120432   7.008   7.593   4.999 -0.2571  1.0233  0.1377
 6825TIP3    H220433   6.869   7.575   5.056 -0.1489 -0.3148  0.0112
 6826TIP3   OH220434   4.486   2.685   4.999 -0.5838  0.0475 -0.0626
 6826TIP3    H120435   4.538   2.695   4.918 -0.7304  1.2966 -0.0200
 6826TIP3    H220436   4.417   2.751   4.991  0.0252  0.9175  1.5603
 6827TIP3   OH220437   6.028   4.326   1.838 -0.1654  0.0127 -0.3083
 6827TIP3    H120438   5.932   4.325   1.830 -0.1430 -1.0175 -0.6321
 6827TIP3    H220439   6.059   4.335   1.748  0.0339 -0.0307 -0.2431
 6828TIP3   OH220440   2.576   0.434   2.659  0.4743 -0.1389 -0.3820
 6828TIP3    H120441   2.516   0.506   2.680 -0.1645 -1.3784  2.5573
 6828TIP3    H220442   2.527   0.379   2.597  0.1781  0.8687 -1.0675
 6829TIP3   OH220443   3.615   2.394   2.724 -0.1583  0.5343 -0.0611
 6829TIP3    H120444   3.700   2.436   2.715  1.1401 -2.1799 -1.5741
 6829TIP3    H220445   3.556   2.449   2.671  1.2419  0.9830 -1.2316
 6830TIP3   OH220446   1.070   6.919   5.996  0.3558  0.3000  0.2780
 6830TIP3    H120447   1.079   6.963   5.912 -2.1052  2.6053  1.1074
 6830TIP3    H220448   1.007   6.849   5.980  0.1120  0.5494  0.1423
 6831TIP3   OH220449   3.791   3.361   2.923 -0.2417  0.4382 -0.1776
 6831TIP3    H120450   3.829   3.387   3.007  1.8550 -1.4074 -0.4688
 6831TIP3    H220451   3.775   3.443   2.877  2.3334  1.3904  0.4579
 6832TIP3   OH220452   6.423   6.318   4.121 -0.1602  0.4392 -0.3030
 6832TIP3    H120453   6.397   6.410   4.129  0.1218  0.6414 -1.5085
 6832TIP3    H220454   6.447   6.308   4.029  1.6013 -0.3726  0.1934
 6833TIP3   OH220455   2.218   1.928   2.251  0.1877 -0.6150 -0.3599
 6833TIP3    H120456   2.177   1.852   2.293  1.2218 -2.1993 -2.0570
 6833TIP3    H220457   2.282   1.959   2.315 -1.0948 -0.3804  0.8432
 6834TIP3   OH220458   7.014   5.638   5.374  0.0226 -0.2138 -0.7298
 6834TIP3    H120459   6.961   5.575   5.422 -0.1780 -2.6467 -3.8364
 6834TIP3    H220460   7.030   5.709   5.437  0.1344 -3.2027  2.9472
 6835TIP3   OH220461   4.034   5.764   0.815 -0.5229 -0.4716 -0.4156
 6835TIP3    H120462   4.010   5.690   0.758  2.2339 -1.8719  0.0976
 6835TIP3    H220463   4.125   5.783   0.793 -1.0456  2.6473 -0.2783
 6836TIP3   OH220464   2.687   4.451   1.574 -0.3974  0.1292  0.2209
 6836TIP3    H120465   2.713   4.385   1.639  3.0203  0.7987 -0.2682
 6836TIP3    H220466   2.688   4.533   1.622 -0.3129  0.3320 -0.1276
 6837TIP3   OH220467   5.419   1.767   1.977  0.0815  0.4370  0.2808
 6837TIP3    H120468   5.438   1.702   1.910  0.2663  1.0275 -0.2416
 6837TIP3    H220469   5.501   1.777   2.025  0.1668  0.5766  0.1065
 6838TIP3   OH220470   2.544   4.484   4.402 -0.4146  0.3584 -0.1466
 6838TIP3    H120471   2.595   4.557   4.369 -1.0596  0.3046 -1.3298
 6838TIP3    H220472   2.479   4.524   4.460  1.2692  0.3716  1.8360
 6839TIP3   OH220473   7.000   2.246   0.693  0.2246 -0.1417 -0.1320
 6839TIP3    H120474   6.918   2.295   0.700  0.5009  0.4445 -0.8398
 6839TIP3    H220475   6.973   2.156   0.676 -0.2884 -0.1838  0.8442
 6840TIP3   OH220476   1.904   0.471   0.998  0.0761 -0.0897 -0.1164
 6840TIP3    H120477   1.878   0.379   0.999 -1.2325  0.2516  0.9193
 6840TIP3    H220478   1.998   0.470   0.979  0.3189 -1.7041  1.0165
 6841TIP3   OH220479   4.058   0.250   2.185 -0.7081  0.7647  0.3765
 6841TIP3    H120480   3.991   0.278   2.247 -0.0991  1.5185  0.7142
 6841TIP3    H220481   4.018   0.265   2.099 -1.9727 -1.3033  0.5302
 6842TIP3   OH220482   1.525   6.217   2.636  0.1049  0.1867 -0.5784
 6842TIP3    H120483   1.565   6.296   2.599  1.3372  0.8009  1.8743
 6842TIP3    H220484   1.453   6.250   2.689  2.9096  0.2644  3.6227
 6843TIP3   OH220485   2.552   6.826   5.990  0.8231  0.2299  0.2245
 6843TIP3    H120486   2.597   6.837   5.906 -0.1099  0.8871 -0.1980
 6843TIP3    H220487   2.543   6.914   6.025 -0.9116  0.2190 -0.1207
 6844TIP3   OH220488   7.094   5.562   3.044 -0.3711 -0.2214  0.0965
 6844TIP3    H120489   7.137   5.483   3.079  5.0851  1.0089 -2.6781
 6844TIP3    H220490   7.032   5.528   2.980 -0.9281 -2.2377  1.5842
 6845TIP3   OH220491   5.316   0.841   0.631 -0.3597 -0.1498 -0.2482
 6845TIP3    H120492   5.365   0.916   0.665 -1.6723  0.3007  0.7272
 6845TIP3    H220493   5.241   0.880   0.586 -0.0171 -0.8362 -1.4643
 6846TIP3   OH220494   0.554   6.922   2.398  0.6700  0.4051 -0.4078
 6846TIP3    H120495   0.639   6.898   2.359  0.5642  0.1747 -0.5035
 6846TIP3    H220496   0.522   6.840   2.436 -0.0162  0.2160 -1.3378
 6847TIP3   OH220497   7.830   3.142   0.209 -0.2647  0.1946  0.3064
 6847TIP3    H120498   7.847   3.074   0.275  1.5945 -1.1633 -1.4603
 6847TIP3    H220499   7.876   3.219   0.242 -0.1206 -0.1811  1.0173
 6848TIP3   OH220500   4.715   6.761   4.050 -0.2543  0.4722  0.4940
 6848TIP3    H120501   4.702   6.845   4.006 -0.5318  0.3824  0.4008
 6848TIP3    H220502   4.800   6.731   4.019 -0.6846  0.1610 -0.3977
 6849TIP3   OH220503   0.981   2.806   3.690  0.0571  0.0558 -0.4667
 6849TIP3    H120504   1.014   2.778   3.775  0.4787 -1.1027 -0.9885
 6849TIP3    H220505   1.041   2.876   3.664 -1.0402  1.5705  0.8761
 6850TIP3   OH220506   7.937   3.162   1.891  0.3593  0.0341  0.1608
 6850TIP3    H120507   7.851   3.186   1.858  0.1969 -0.0325  0.5366
 6850TIP3    H220508   7.998   3.189   1.822 -0.0197 -0.5632 -0.4095
 6851TIP3   OH220509   5.849   3.979   3.485 -0.4313  0.5459 -0.3753
 6851TIP3    H120510   5.790   3.919   3.531 -0.8440  1.3118  0.1239
 6851TIP3    H220511   5.795   4.055   3.466  0.1706  0.8967 -0.6986
 6852TIP3   OH220512   6.521   5.928   1.577 -0.6827  0.2441  0.4391
 6852TIP3    H120513   6.478   5.902   1.495  0.7288 -0.2615 -0.1862
 6852TIP3    H220514   6.561   5.847   1.609 -2.4564  0.1080  2.4568
 6853TIP3   OH220515   3.835   3.966   4.221  0.3459 -0.0968  0.7499
 6853TIP3    H120516   3.795   3.976   4.308  1.7686  1.8157  1.2569
 6853TIP3    H220517   3.776   4.012   4.162 -0.3847 -0.9921  0.7721
 6854TIP3   OH220518   7.665   1.477   2.785 -0.6083  0.6315  0.1497
 6854TIP3    H120519   7.610   1.405   2.754 -0.2941  0.2264  0.5148
 6854TIP3    H220520   7.637   1.552   2.733 -1.0301  0.2779 -0.1503
 6855TIP3   OH220521   3.801   1.193   3.754  0.5305 -0.3590  0.2588
 6855TIP3    H120522   3.851   1.144   3.820 -0.0883 -2.2672 -0.6334
 6855TIP3    H220523   3.851   1.274   3.742  2.7985 -1.6681  0.2540
 6856TIP3   OH220524   6.210   2.704   0.387  0.4823  0.1320 -0.3226
 6856TIP3    H120525   6.236   2.674   0.474 -1.4670 -0.3790  0.1430
 6856TIP3    H220526   6.114   2.697   0.387  0.4599 -0.4407 -2.7089
 6857TIP3   OH220527   5.597   6.699   6.097  0.0589 -1.0213 -0.3094
 6857TIP3    H120528   5.556   6.680   6.013 -2.3696 -1.6127  0.8745
 6857TIP3    H220529   5.547   6.773   6.132  0.7052 -1.0731  0.7816
 6858TIP3   OH220530   7.341   2.712   1.137  0.1147  0.0674  0.3198
 6858TIP3    H120531   7.274   2.734   1.202  0.1051  1.0379 -0.0020
 6858TIP3    H220532   7.361   2.620   1.153 -0.0924  0.2151  1.5091
 6859TIP3   OH220533   6.349   5.590   5.268  0.1490  0.3271  0.3468
 6859TIP3    H120534   6.320   5.524   5.330 -0.9427 -1.7866 -2.2403
 6859TIP3    H220535   6.271   5.641   5.247  0.5498  1.1512  0.7639
 6860TIP3   OH220536   4.058   0.813   0.320  0.2983 -0.0559  0.9997
 6860TIP3    H120537   4.101   0.728   0.331 -0.3458 -0.4178  0.7667
 6860TIP3    H220538   4.013   0.807   0.236  0.1979  0.4969  1.0097
 6861TIP3   OH220539   5.202   0.524   4.966  0.0747 -0.0308  0.2713
 6861TIP3    H120540   5.248   0.543   5.047  0.2868  0.0473  0.1341
 6861TIP3    H220541   5.117   0.489   4.993 -0.5761  1.6635  0.5541
 6862TIP3   OH220542   6.475   1.626   0.843  0.0559  0.0183  0.6153
 6862TIP3    H120543   6.408   1.657   0.782  0.9126  0.9994  0.1316
 6862TIP3    H220544   6.519   1.554   0.798 -0.6869 -0.6562  0.9521
 6863TIP3   OH220545   7.499   5.867   2.060  0.0644  0.0176  0.4011
 6863TIP3    H120546   7.466   5.804   1.996 -2.3023 -0.1191  1.6509
 6863TIP3    H220547   7.426   5.927   2.074  1.7416  2.1744  0.3971
 6864TIP3   OH220548   1.976   6.085   0.527 -0.3503 -0.2484 -0.0951
 6864TIP3    H120549   1.964   6.043   0.612 -0.2555  0.2522  0.1674
 6864TIP3    H220550   2.066   6.065   0.502 -0.1365  0.2325  0.2728
 6865TIP3   OH220551   7.541   0.363   1.330  0.2298 -1.0976 -0.0629
 6865TIP3    H120552   7.530   0.279   1.285 -1.3816 -1.7879  1.5072
 6865TIP3    H220553   7.573   0.341   1.417  0.7373 -0.0033  0.0449
 6866TIP3   OH220554   8.118   7.072   1.564  0.0817  0.2940  0.0269
 6866TIP3    H120555   8.187   7.128   1.528  2.3396 -0.4500  2.7869
 6866TIP3    H220556   8.044   7.131   1.578  1.0738  1.7499 -0.6077
 6867TIP3   OH220557   5.611   2.658   0.852 -0.1219  0.1973  0.4884
 6867TIP3    H120558   5.518   2.678   0.867 -0.0978  0.4809  0.2626
 6867TIP3    H220559   5.612   2.564   0.832 -0.5035  0.4199 -0.6574
 6868TIP3   OH220560   7.004   5.101   1.257 -0.4334 -0.6979 -0.1484
 6868TIP3    H120561   7.099   5.099   1.242 -0.4449 -1.5998 -0.1421
 6868TIP3    H220562   6.966   5.105   1.169 -0.3841  0.7625 -0.1277
 6869TIP3   OH220563   3.685   0.761   3.553 -0.3083  0.3965 -0.5135
 6869TIP3    H120564   3.608   0.709   3.574 -1.9336  0.8918 -4.4352
 6869TIP3    H220565   3.653   0.851   3.548  0.9574  0.8711 -0.4312
 6870TIP3   OH220566   0.653   4.509   0.262  0.0890 -0.1184  0.4605
 6870TIP3    H120567   0.619   4.595   0.237  2.3991  0.4734 -0.9387
 6870TIP3    H220568   0.575   4.455   0.274 -1.3700  1.4779 -1.2375
 6871TIP3   OH220569   6.696   2.556   0.142 -0.1621 -0.4818  0.5270
 6871TIP3    H120570   6.749   2.514   0.074  0.0222 -1.2024  1.1134
 6871TIP3    H220571   6.717   2.649   0.133 -0.0409 -0.5771 -0.3198
 6872TIP3   OH220572   4.621   4.914   5.638 -0.0093 -0.1289 -0.5219
 6872TIP3    H120573   4.617   4.935   5.731  2.1013  0.5476 -0.5339
 6872TIP3    H220574   4.673   4.833   5.635  0.8728  0.4560 -1.1721
 6873TIP3   OH220575   1.743   6.822   4.650 -0.4958 -0.2910 -0.0564
 6873TIP3    H120576   1.757   6.862   4.737 -0.0887  0.8710 -0.6336
 6873TIP3    H220577   1.751   6.728   4.666 -0.5303 -0.1057  1.1895
 6874TIP3   OH220578   6.070   5.229   4.780 -0.2147 -0.1588 -0.8530
 6874TIP3    H120579   6.165   5.230   4.789 -0.0782  2.7773 -1.5094
 6874TIP3    H220580   6.051   5.299   4.717 -2.8927  0.2357  0.2450
 6875TIP3   OH220581   3.646   1.190   5.556 -0.2096 -0.5837 -0.5595
 6875TIP3    H120582   3.713   1.230   5.500 -0.5994 -1.0695 -1.3948
 6875TIP3    H220583   3.565   1.236   5.532 -0.0730  0.5662  1.0185
 6876TIP3   OH220584   6.974   7.713   0.783  0.6723  0.4230 -0.1440
 6876TIP3    H120585   7.017   7.631   0.757  1.4555  0.3152  1.3855
 6876TIP3    H220586   7.017   7.780   0.731 -0.1362 -0.1318 -1.5889
 6877TIP3   OH220587   1.200   4.741   3.419 -0.4001 -0.5822  0.1401
 6877TIP3    H120588   1.256   4.715   3.492  0.3973  0.5745 -0.0218
 6877TIP3    H220589   1.117   4.765   3.459 -0.8228 -2.3303  0.3864
 6878TIP3   OH220590   7.985   1.667   0.070 -0.9442 -0.6033  0.1195
 6878TIP3    H120591   8.076   1.640   0.065 -1.4253 -2.1311 -1.0513
 6878TIP3    H220592   7.948   1.616   0.142 -1.2187 -1.0720 -0.3513
 6879TIP3   OH220593   0.501   1.175   2.483  0.1467 -0.2369  0.0769
 6879TIP3    H120594   0.554   1.254   2.498 -0.1221 -0.0873  0.2493
 6879TIP3    H220595   0.438   1.175   2.554 -1.5379  0.8209 -1.3379
 6880TIP3   OH220596   7.620   3.665   5.987 -0.1587  0.3497  0.2029
 6880TIP3    H120597   7.693   3.673   5.925 -0.2847  1.0428  0.1408
 6880TIP3    H220598   7.611   3.571   6.001  0.3245  0.2254 -0.2964
 6881TIP3   OH220599   1.946   1.786   2.683 -0.2688 -0.0143  0.1634
 6881TIP3    H120600   1.949   1.755   2.592 -0.1362 -0.3680  0.2831
 6881TIP3    H220601   2.036   1.778   2.713 -0.4411 -0.5863  0.5460
 6882TIP3   OH220602   4.811   4.462   2.655  0.1541 -0.1076 -0.0906
 6882TIP3    H120603   4.867   4.516   2.710  1.8135 -0.5409 -1.2860
 6882TIP3    H220604   4.797   4.382   2.706 -0.3962  0.4769  0.7082
 6883TIP3   OH220605   6.263   5.597   6.561 -0.5500 -0.1796  0.7584
 6883TIP3    H120606   6.326   5.667   6.579 -1.2832  0.6748  0.1015
 6883TIP3    H220607   6.276   5.577   6.468 -2.4146  1.2553  0.1259
 6884TIP3   OH220608   4.584   4.594   3.185  0.4627  0.0686  0.1902
 6884TIP3    H120609   4.658   4.552   3.141  0.2945  0.1965 -0.2241
 6884TIP3    H220610   4.621   4.669   3.231  0.5242  0.3798 -0.3673
 6885TIP3   OH220611   3.983   7.112   1.634 -0.2850 -0.3893 -0.4535
 6885TIP3    H120612   4.002   7.185   1.576  0.6961  0.3279  0.7231
 6885TIP3    H220613   3.887   7.109   1.638 -0.3476  0.4108 -1.0223
 6886TIP3   OH220614   3.252   2.529   4.051 -0.1518  0.1509  0.2230
 6886TIP3    H120615   3.315   2.601   4.050  1.6964 -1.3347 -2.2597
 6886TIP3    H220616   3.173   2.566   4.011 -0.2375  1.4898  1.5352
 6887TIP3   OH220617   4.177   7.179   5.942  0.2033 -0.0859 -0.3917
 6887TIP3    H120618   4.272   7.168   5.945  0.2390  0.3648  0.1409
 6887TIP3    H220619   4.146   7.100   5.896  0.6661 -1.2681  1.2354
 6888TIP3   OH220620   2.911   5.127   5.293 -0.2750  0.2194  0.3557
 6888TIP3    H120621   2.993   5.163   5.328  0.4191 -1.3759  0.4622
 6888TIP3    H220622   2.921   5.134   5.198 -0.8328  1.7189  0.3862
 6889TIP3   OH220623   7.942   3.804   4.534  0.0880 -0.2126  0.0395
 6889TIP3    H120624   7.925   3.897   4.515  1.0926  0.2372  1.2270
 6889TIP3    H220625   7.998   3.775   4.462  1.8009  0.7935  0.9098
 6890TIP3   OH220626   6.430   1.338   3.008  0.3409 -0.6442 -0.1792
 6890TIP3    H120627   6.491   1.410   2.995  0.5435 -0.3059  2.2278
 6890TIP3    H220628   6.350   1.365   2.963  1.1447  0.0239 -1.2448
 6891TIP3   OH220629   0.600   6.496   1.429  0.1775 -0.3217 -0.2159
 6891TIP3    H120630   0.555   6.563   1.480 -0.0133 -0.0259 -0.7648
 6891TIP3    H220631   0.599   6.529   1.339 -0.0665 -1.1400 -0.5210
 6892TIP3   OH220632   4.004   7.371   1.472 -0.2351  0.1754  0.4601
 6892TIP3    H120633   4.053   7.366   1.390  0.7649 -1.0345  1.0956
 6892TIP3    H220634   4.059   7.423   1.530 -1.0799  1.2797  0.2909
 6893TIP3   OH220635   0.222   7.386   3.264  0.7722 -0.2794 -0.1810
 6893TIP3    H120636   0.239   7.405   3.357  0.0805  0.3523 -0.1751
 6893TIP3    H220637   0.266   7.302   3.249  1.5039 -0.0399  0.5282
 6894TIP3   OH220638   8.089   6.483   5.088  0.4512  0.8444 -0.1610
 6894TIP3    H120639   8.159   6.435   5.044  1.0684 -0.2582  1.8709
 6894TIP3    H220640   8.134   6.531   5.158 -0.7983 -0.2717  1.5115
 6895TIP3   OH220641   0.316   5.158   3.788  0.0568  0.0338  0.0556
 6895TIP3    H120642   0.410   5.168   3.801  0.3299 -2.2522  0.2763
 6895TIP3    H220643   0.277   5.202   3.863  1.0655 -0.9036  1.1694
 6896TIP3   OH220644   0.799   5.876   4.104  0.3926 -0.0704  0.6716
 6896TIP3    H120645   0.792   5.971   4.115 -0.2802 -0.0736  0.3077
 6896TIP3    H220646   0.813   5.863   4.011 -3.4999 -0.4736 -0.0302
 6897TIP3   OH220647   6.660   3.354   5.720  0.7222 -0.1095  0.5689
 6897TIP3    H120648   6.599   3.369   5.647  0.0016 -1.6207  0.8271
 6897TIP3    H220649   6.726   3.423   5.710  0.4040 -0.0086 -1.2509
 6898TIP3   OH220650   7.469   7.609   0.724 -0.3705  0.2851 -0.1966
 6898TIP3    H120651   7.520   7.678   0.766  0.7148 -0.9162  0.5138
 6898TIP3    H220652   7.430   7.652   0.648  2.9957  0.9117 -1.7483
 6899TIP3   OH220653   6.949   0.812   6.694  0.5151  0.1571 -0.2868
 6899TIP3    H120654   6.924   0.721   6.681  3.7826 -0.7155 -1.5344
 6899TIP3    H220655   6.963   0.847   6.606 -3.0978  2.8188 -0.0495
 6900TIP3   OH220656   1.489   2.456   5.880 -0.3739  0.3860  0.5979
 6900TIP3    H120657   1.408   2.459   5.931 -0.7140  2.0155  0.0119
 6900TIP3    H220658   1.557   2.434   5.945 -1.1900 -0.4780  1.1832
 6901TIP3   OH220659   7.978   4.752   5.762 -0.6359  0.2259 -0.3778
 6901TIP3    H120660   7.990   4.781   5.852  0.3986 -1.5627  0.1052
 6901TIP3    H220661   8.064   4.721   5.734 -1.0700  0.1963 -1.7865
 6902TIP3   OH220662   4.867   3.434   3.802  0.3551 -0.4398 -0.0411
 6902TIP3    H120663   4.948   3.450   3.754  1.1962  0.7448  1.6863
 6902TIP3    H220664   4.895   3.400   3.887 -0.9466  0.1588  0.6642
 6903TIP3   OH220665   1.331   0.369   3.419 -0.0157 -0.0555 -0.3507
 6903TIP3    H120666   1.323   0.350   3.512 -1.7836  0.8932 -0.2661
 6903TIP3    H220667   1.387   0.446   3.415  0.0547 -0.0903 -0.0749
 6904TIP3   OH220668   1.361   1.640   0.455 -0.2045  0.3157 -0.2454
 6904TIP3    H120669   1.272   1.613   0.432 -0.7183  1.9697 -0.3511
 6904TIP3    H220670   1.369   1.619   0.548 -1.9250  3.0142  0.6311
 6905TIP3   OH220671   7.403   7.767   5.636 -0.6592  0.5382  0.4371
 6905TIP3    H120672   7.443   7.687   5.670  0.7269  1.0091 -0.0093
 6905TIP3    H220673   7.350   7.738   5.562  1.0580  0.1609 -0.7148
 6906TIP3   OH220674   3.825   0.064   5.034  0.1889 -0.1131  0.4350
 6906TIP3    H120675   3.733   0.078   5.012  0.2426 -0.7656 -0.2814
 6906TIP3    H220676   3.873   0.124   4.977  0.2245 -0.0964  0.4825
 6907TIP3   OH220677   1.101   1.330   0.915 -0.2312 -0.0201  0.3423
 6907TIP3    H120678   1.114   1.420   0.945 -1.8499  1.0383 -1.8684
 6907TIP3    H220679   1.138   1.329   0.827  1.8898 -2.2463  1.1395
 6908TIP3   OH220680   7.167   7.789   3.837 -0.0737 -0.3921  0.5923
 6908TIP3    H120681   7.116   7.713   3.865  0.0887 -1.1470 -1.0543
 6908TIP3    H220682   7.242   7.752   3.791 -1.0505  0.7306 -2.0834
 6909TIP3   OH220683   0.365   3.370   0.826  0.2767 -0.1547  0.6994
 6909TIP3    H120684   0.405   3.362   0.739 -0.6617  1.3407  0.0927
 6909TIP3    H220685   0.277   3.335   0.815 -0.1944  0.9928  0.7715
 6910TIP3   OH220686   4.507   7.665   4.917 -0.3376  0.2780  0.3180
 6910TIP3    H120687   4.566   7.735   4.889 -0.2706  0.3388  0.6160
 6910TIP3    H220688   4.559   7.611   4.975 -0.7852  0.7447  1.1668
 6911TIP3   OH220689   0.318   4.565   2.325 -0.7402 -0.0289  0.0115
 6911TIP3    H120690   0.312   4.614   2.244 -0.1576  0.1981  0.1026
 6911TIP3    H220691   0.327   4.632   2.393 -0.0606 -0.2517  0.1464
 6912TIP3   OH220692   3.672   6.208   1.305  0.4601  0.1530  0.4184
 6912TIP3    H120693   3.677   6.295   1.346 -0.3065 -0.1574  1.1909
 6912TIP3    H220694   3.584   6.177   1.325  0.1990 -0.1998 -1.1131
 6913TIP3   OH220695   2.958   4.479   6.511  0.1781  0.1435 -0.2580
 6913TIP3    H120696   2.894   4.550   6.511 -0.2541 -0.2413 -0.6804
 6913TIP3    H220697   2.914   4.407   6.557  0.7194  0.2394  0.4299
 6914TIP3   OH220698   0.979   3.934   3.088 -0.1737  0.2113  0.3983
 6914TIP3    H120699   0.900   3.958   3.041 -0.3008  2.1584  1.4985
 6914TIP3    H220700   0.950   3.869   3.152 -1.1111  1.5252  1.3665
 6915TIP3   OH220701   7.213   0.884   0.438  0.1399  0.2112 -0.3437
 6915TIP3    H120702   7.226   0.974   0.405  0.0942 -0.5714 -2.7430
 6915TIP3    H220703   7.252   0.884   0.525  1.8107  2.1026 -1.0109
 6916TIP3   OH220704   8.203   4.239   1.335  0.4667 -0.5509 -0.3803
 6916TIP3    H120705   8.192   4.318   1.282  2.0552 -0.5789 -0.8072
 6916TIP3    H220706   8.114   4.208   1.350 -0.2757  1.6925  0.3902
 6917TIP3   OH220707   6.868   5.733   3.184  0.0074 -0.1425 -0.4714
 6917TIP3    H120708   6.847   5.750   3.092 -1.8484  1.6228  0.1771
 6917TIP3    H220709   6.847   5.816   3.228  0.7488 -0.9791  1.5602
 6918TIP3   OH220710   5.521   5.146   5.891  0.4363  0.3257 -0.4977
 6918TIP3    H120711   5.488   5.211   5.829  0.1673  0.1213 -0.5721
 6918TIP3    H220712   5.553   5.074   5.836 -0.2020 -0.0472 -0.3979
 6919TIP3   OH220713   8.310   2.977   5.026 -0.1736  0.0197 -0.6781
 6919TIP3    H120714   8.239   2.931   4.981 -2.3069  0.5004  1.9712
 6919TIP3    H220715   8.275   3.064   5.042  0.2633 -0.2566  2.2105
 6920TIP3   OH220716   7.671   6.803   4.279 -0.3072  0.1086 -0.3530
 6920TIP3    H120717   7.606   6.732   4.284 -0.4583  0.2470 -0.3386
 6920TIP3    H220718   7.748   6.761   4.241 -0.1126 -0.2564  0.4350
 6921TIP3   OH220719   4.218   0.010   6.121 -0.4708  0.3575  0.4529
 6921TIP3    H120720   4.218   0.055   6.206  0.4023 -1.2545  1.3624
 6921TIP3    H220721   4.141  -0.048   6.125  0.8915 -1.5174  1.2276
 6922TIP3   OH220722   4.372   7.069   5.417  0.6445 -0.2622  0.4639
 6922TIP3    H120723   4.461   7.089   5.443  0.4686  0.0740  0.8132
 6922TIP3    H220724   4.318   7.093   5.492  0.4322 -2.3656  1.0471
 6923TIP3   OH220725   7.862   2.652   2.679  0.6767  0.3383 -0.3659
 6923TIP3    H120726   7.922   2.589   2.719  1.4289  0.8169 -0.7184
 6923TIP3    H220727   7.833   2.707   2.752 -2.5792 -2.3416  0.6279
 6924TIP3   OH220728   5.520   4.700   6.228  0.8399  0.1582 -0.1680
 6924TIP3    H120729   5.559   4.667   6.308 -0.2208  1.1158  0.7909
 6924TIP3    H220730   5.506   4.622   6.174  1.6228 -0.4958  0.5455
 6925TIP3   OH220731   0.925   6.722   5.003  0.3191  0.5340  0.3609
 6925TIP3    H120732   0.990   6.672   4.955  1.5864  0.4831  2.0626
 6925TIP3    H220733   0.927   6.809   4.963 -0.4313 -0.1543 -1.2551
 6926TIP3   OH220734   6.565   7.351   0.083 -0.0404 -0.2634  0.1602
 6926TIP3    H120735   6.581   7.408   0.008 -1.9726 -2.0000 -1.7048
 6926TIP3    H220736   6.489   7.389   0.126 -0.8799 -0.9792 -0.6568
 6927TIP3   OH220737   2.420   7.334   0.309 -0.3917 -0.3691 -0.0982
 6927TIP3    H120738   2.365   7.281   0.366  1.0356 -0.9496  0.8122
 6927TIP3    H220739   2.359   7.383   0.254 -1.7692 -1.9842 -0.0712
 6928TIP3   OH220740   0.447   7.850   5.935 -0.2593 -0.6842 -0.1355
 6928TIP3    H120741   0.531   7.810   5.959  0.9200  1.1519 -0.8990
 6928TIP3    H220742   0.384   7.778   5.936  0.9116 -1.7976  2.3529
 6929TIP3   OH220743   8.290   4.388   1.554 -0.3763 -0.2581  1.0624
 6929TIP3    H120744   8.211   4.430   1.588 -1.4927 -0.6985 -0.8262
 6929TIP3    H220745   8.260   4.338   1.478  2.1011  2.0421 -1.7263
 6930TIP3   OH220746   7.001   7.341   6.463  0.1559 -0.4545 -0.1249
 6930TIP3    H120747   7.021   7.415   6.406 -0.8181  1.9238  2.4039
 6930TIP3    H220748   7.086   7.306   6.489  0.6500  0.3754 -0.6051
 6931TIP3   OH220749   2.510   0.114   4.165 -0.0300 -0.3337  0.3324
 6931TIP3    H120750   2.505   0.176   4.092  1.2264 -0.6788 -0.0792
 6931TIP3    H220751   2.498   0.028   4.125 -1.5627 -0.4075  0.8720
 6932TIP3   OH220752   6.193   1.002   6.162  0.0513  0.3536  0.0775
 6932TIP3    H120753   6.280   0.975   6.134 -0.1031  1.4994 -1.6413
 6932TIP3    H220754   6.144   1.013   6.081 -1.2050  1.3479  0.9358
 6933TIP3   OH220755   7.438   0.748   3.618 -0.3338 -0.2099  0.5773
 6933TIP3    H120756   7.399   0.790   3.542 -1.1952 -1.4804  0.2870
 6933TIP3    H220757   7.507   0.808   3.646 -1.5274  1.4046  0.2213
 6934TIP3   OH220758   7.939   0.235   6.396 -0.2539  0.0034  0.3001
 6934TIP3    H120759   7.901   0.152   6.426 -0.6154  0.1104  0.1490
 6934TIP3    H220760   7.971   0.216   6.307 -2.3923  0.5899 -0.6741
 6935TIP3   OH220761   5.135   6.052   3.126  0.2696 -0.6465 -0.1503
 6935TIP3    H120762   5.162   6.104   3.202 -1.4271 -0.2116  0.2033
 6935TIP3    H220763   5.153   5.961   3.151  2.4654 -0.3561 -0.4386
 6936TIP3   OH220764   5.165   6.668   1.972  0.1115  0.3243  0.2391
 6936TIP3    H120765   5.164   6.763   1.966  2.8791  0.3217 -2.0111
 6936TIP3    H220766   5.134   6.638   1.887  1.1335 -0.7355  0.2194
 6937TIP3   OH220767   5.067   7.691   6.031 -0.4579  0.0298  0.6752
 6937TIP3    H120768   5.026   7.776   6.046 -0.3122  1.0599 -3.4812
 6937TIP3    H220769   5.002   7.642   5.982  0.7412 -0.9060 -0.0264
 6938TIP3   OH220770   1.688   7.769   1.753 -0.3435 -0.1100  0.3580
 6938TIP3    H120771   1.758   7.802   1.695 -0.4882 -0.4832 -0.0335
 6938TIP3    H220772   1.733   7.717   1.818 -0.1434  0.5823  0.7860
 6939TIP3   OH220773   6.374   3.077   1.663  0.0498 -0.1092  0.1092
 6939TIP3    H120774   6.468   3.089   1.654 -0.0940  0.8357 -0.3220
 6939TIP3    H220775   6.336   3.151   1.615 -0.9087 -0.4935  0.2503
 6940TIP3   OH220776   7.119   2.159   6.424  0.3301 -0.1160 -0.4554
 6940TIP3    H120777   7.164   2.229   6.377  0.8783  0.0524  0.3052
 6940TIP3    H220778   7.026   2.176   6.409  0.2885  2.2241  1.6430
 6941TIP3   OH220779   6.249   2.627   3.597 -0.1753 -0.0742  0.9315
 6941TIP3    H120780   6.224   2.536   3.610  1.1902 -0.5440  0.4332
 6941TIP3    H220781   6.255   2.637   3.502 -0.1510  0.4963  0.9870
 6942TIP3   OH220782   4.493   3.398   2.390 -0.2376 -0.1909 -0.0806
 6942TIP3    H120783   4.544   3.473   2.359  0.2183 -0.4648 -0.0021
 6942TIP3    H220784   4.553   3.350   2.447 -0.0134 -1.4696 -1.3507
 6943TIP3   OH220785   1.204   7.565   5.919 -0.0261  0.4040  0.5481
 6943TIP3    H120786   1.237   7.616   5.845  1.8920  0.1142  1.1521
 6943TIP3    H220787   1.250   7.600   5.995  0.8707 -1.7787  1.0774
 6944TIP3   OH220788   7.275   0.041   1.480 -0.0843  0.1472  0.1712
 6944TIP3    H120789   7.322   0.089   1.548  1.5861 -0.0884 -0.7777
 6944TIP3    H220790   7.271   0.100   1.406 -2.6798  0.7356  0.6709
 6945TIP3   OH220791   4.131   1.053   1.831 -0.1259  0.0207 -0.4441
 6945TIP3    H120792   4.215   1.086   1.799  0.4667 -0.3015  0.7108
 6945TIP3    H220793   4.123   1.090   1.918 -1.1377 -0.0531 -0.5004
 6946TIP3   OH220794   0.943   4.023   0.999  0.0228  0.4098  0.2647
 6946TIP3    H120795   0.991   4.065   0.929 -0.6858 -1.2767 -1.3166
 6946TIP3    H220796   0.854   4.058   0.992 -0.1318 -0.0132  0.0933
 6947TIP3   OH220797   7.612   7.313   2.873 -0.0963  0.0339 -0.0533
 6947TIP3    H120798   7.631   7.372   2.946  0.1902  0.3839 -0.4047
 6947TIP3    H220799   7.655   7.354   2.798 -0.1126 -0.4951 -0.3525
 6948TIP3   OH220800   1.324   0.611   0.877  0.1120  0.1956 -0.1749
 6948TIP3    H120801   1.418   0.617   0.859  0.2705  0.9291  0.7846
 6948TIP3    H220802   1.317   0.630   0.971 -1.0332  0.5368 -0.3162
 6949TIP3   OH220803   3.022   0.304   4.641 -0.6395 -0.1205  0.1211
 6949TIP3    H120804   3.012   0.398   4.624  0.2306  0.0513  0.4611
 6949TIP3    H220805   2.948   0.281   4.697 -1.2409  0.2101 -0.5251
 6950TIP3   OH220806   3.764   4.624   0.211  0.3198  0.0197 -0.1759
 6950TIP3    H120807   3.724   4.698   0.256 -0.0330 -0.8115  0.9303
 6950TIP3    H220808   3.786   4.562   0.281 -0.4464 -1.4184 -1.1461
 6951TIP3   OH220809   1.625   6.897   1.114  0.9426  0.0799  0.0840
 6951TIP3    H120810   1.549   6.840   1.100  1.0559 -0.0453 -0.0192
 6951TIP3    H220811   1.630   6.907   1.209  1.5356 -0.9176  0.1771
 6952TIP3   OH220812   5.254   1.283   1.899 -0.2105  0.8847  0.1045
 6952TIP3    H120813   5.254   1.377   1.881 -0.6582  0.9312  0.3599
 6952TIP3    H220814   5.251   1.242   1.812 -0.3867  1.1049  0.0074
 6953TIP3   OH220815   7.107   0.027   0.325 -0.0368  0.2682  0.2581
 6953TIP3    H120816   7.136   0.080   0.250 -0.9599 -0.1930 -0.4437
 6953TIP3    H220817   7.186  -0.018   0.354  0.1169 -0.4492 -1.1936
 6954TIP3   OH220818   8.210   2.455   2.627  0.4765 -0.7075  0.3388
 6954TIP3    H120819   8.157   2.458   2.707 -1.2833  0.1189 -0.8100
 6954TIP3    H220820   8.185   2.533   2.578  1.7837 -1.0135 -0.8914
 6955TIP3   OH220821   3.367   0.845   6.514  0.3494  0.1775  0.5360
 6955TIP3    H120822   3.438   0.875   6.458  0.6792  1.2004  1.4702
 6955TIP3    H220823   3.293   0.832   6.454  1.7972 -2.7912 -0.7568
 6956TIP3   OH220824   5.387   2.817   4.678  0.0764  0.1285  0.5045
 6956TIP3    H120825   5.373   2.738   4.731 -0.9320  0.9580  1.5262
 6956TIP3    H220826   5.464   2.797   4.624 -1.0775 -2.1530 -0.4394
 6957TIP3   OH220827   1.913   0.682   3.401  0.2984  0.5850  0.0457
 6957TIP3    H120828   1.947   0.627   3.471  0.8616 -1.4069 -1.6898
 6957TIP3    H220829   1.860   0.623   3.348 -0.2949  2.0733 -1.0778
 6958TIP3   OH220830   8.073   0.172   0.755  0.7880 -0.1692  0.0121
 6958TIP3    H120831   8.011   0.244   0.754  0.9350 -0.0280 -1.7206
 6958TIP3    H220832   8.155   0.211   0.786  0.0637 -0.3772  2.3965
 6959TIP3   OH220833   3.573   6.952   3.494  0.5054 -0.3551  0.7697
 6959TIP3    H120834   3.598   6.960   3.586  3.2162 -1.6212  0.2484
 6959TIP3    H220835   3.643   6.997   3.446 -1.2355  0.9403 -0.7053
 6960TIP3   OH220836   0.356   1.125   2.723 -0.4321 -0.2189  0.1241
 6960TIP3    H120837   0.409   1.054   2.760  2.5644  1.8219  0.1104
 6960TIP3    H220838   0.358   1.194   2.789 -2.9080  0.1089 -0.0403
 6961TIP3   OH220839   6.473   2.152   0.349 -0.5135  0.2269 -0.5052
 6961TIP3    H120840   6.538   2.095   0.305 -0.5282 -0.1709 -0.0206
 6961TIP3    H220841   6.495   2.146   0.442 -0.9566  0.4631 -0.3833
 6962TIP3   OH220842   5.339   1.238   3.074  0.1024 -0.0241  0.3132
 6962TIP3    H120843   5.278   1.169   3.098  1.0703 -0.0516  3.1209
 6962TIP3    H220844   5.387   1.204   2.998  0.2656 -2.2945  1.3737
 6963TIP3   OH220845   7.721   3.401   4.395 -0.4738 -0.4245 -0.1349
 6963TIP3    H120846   7.744   3.385   4.304 -1.0112 -1.5661 -0.0934
 6963TIP3    H220847   7.726   3.496   4.405  0.9798 -0.3831 -0.9596
 6964TIP3   OH220848   5.972   4.566   5.369  0.2328  0.4016 -0.1569
 6964TIP3    H120849   5.888   4.556   5.414 -0.1148  2.5451 -0.2447
 6964TIP3    H220850   5.952   4.549   5.277  0.6285 -2.3730  0.1636
 6965TIP3   OH220851   8.205   6.008   0.165  0.0451 -0.1000  0.2783
 6965TIP3    H120852   8.209   6.003   0.069  0.7578 -0.6828  0.3275
 6965TIP3    H220853   8.167   5.925   0.191 -0.8030  0.3395  0.4791
 6966TIP3   OH220854   2.122   0.274   4.369  0.4631 -0.1240  0.0409
 6966TIP3    H120855   2.176   0.280   4.291  0.4449  0.4154  0.0648
 6966TIP3    H220856   2.179   0.235   4.435  1.0436  1.0508  0.2538
 6967TIP3   OH220857   7.965   4.513   0.548  0.4598  0.9184  0.5966
 6967TIP3    H120858   7.875   4.532   0.575  0.2437 -1.2621  1.5971
 6967TIP3    H220859   7.967   4.419   0.533  2.1340  1.1797 -1.2976
 6968TIP3   OH220860   4.746   5.328   3.003 -0.0669  0.2606  0.0568
 6968TIP3    H120861   4.787   5.274   3.071 -1.6739  0.7103  1.4346
 6968TIP3    H220862   4.756   5.276   2.923  2.7942  0.1692  0.3512
 6969TIP3   OH220863   7.465   4.786   6.243  0.2884  0.2926 -0.1842
 6969TIP3    H120864   7.532   4.718   6.238  0.1002 -0.2631  3.1374
 6969TIP3    H220865   7.511   4.866   6.216  1.5222 -0.4990 -0.5308
 6970TIP3   OH220866   1.967   6.899   5.132  0.5832  0.5380 -0.1869
 6970TIP3    H120867   1.942   6.895   5.225  0.3037  0.6905 -0.2549
 6970TIP3    H220868   2.039   6.962   5.129  0.7066  0.4075 -0.0517
 6971TIP3   OH220869   5.152   4.217   0.552 -0.5555  0.4590 -0.2545
 6971TIP3    H120870   5.069   4.170   0.555 -0.9010  1.0895  0.3219
 6971TIP3    H220871   5.166   4.246   0.642  0.7618 -0.4459 -0.1348
 6972TIP3   OH220872   7.554   3.054   1.295  0.3538  0.0246  0.3824
 6972TIP3    H120873   7.512   3.127   1.250 -0.2744 -0.6608 -0.1793
 6972TIP3    H220874   7.613   3.016   1.230  1.5703  0.7364  1.0435
 6973TIP3   OH220875   2.640   1.168   5.431  0.1066  0.1680  0.4209
 6973TIP3    H120876   2.571   1.117   5.388 -0.0691  1.1788 -0.5693
 6973TIP3    H220877   2.682   1.217   5.359  1.9756 -0.5351  0.9779
 6974TIP3   OH220878   7.350   5.035   3.445  0.1913 -0.3491 -0.2052
 6974TIP3    H120879   7.347   5.105   3.380 -3.3178 -1.0923 -1.0149
 6974TIP3    H220880   7.444   5.023   3.463  1.1331  1.7156 -3.0754
 6975TIP3   OH220881   6.226   7.273   3.277  0.0096 -0.6769  0.0019
 6975TIP3    H120882   6.263   7.271   3.365  1.3427 -2.0225 -0.5549
 6975TIP3    H220883   6.205   7.182   3.257 -0.3845 -0.3770 -1.0354
 6976TIP3   OH220884   2.573   0.323   0.967 -0.0705 -0.8288  0.2081
 6976TIP3    H120885   2.516   0.250   0.991  0.3327 -1.1697  0.1324
 6976TIP3    H220886   2.518   0.378   0.911 -0.0264 -1.6659 -0.6812
 6977TIP3   OH220887   2.424   6.783   1.789  0.1240  0.0685 -0.1056
 6977TIP3    H120888   2.426   6.721   1.715 -0.2988 -1.7958  1.3689
 6977TIP3    H220889   2.348   6.839   1.770  0.9579  0.6681 -1.8473
 6978TIP3   OH220890   3.740   0.876   1.583  0.2194  0.2742 -0.5130
 6978TIP3    H120891   3.790   0.955   1.562 -0.3770  0.6904 -0.4008
 6978TIP3    H220892   3.703   0.894   1.669 -1.1995  0.5438 -1.1410
 6979TIP3   OH220893   2.386   4.326   2.679  0.2650 -0.3240  0.1529
 6979TIP3    H120894   2.418   4.299   2.593  0.0429 -1.0024  0.2782
 6979TIP3    H220895   2.365   4.244   2.724  0.3150  0.0278  0.8318
 6980TIP3   OH220896   2.033   0.523   3.600 -0.1619 -0.0407  0.1006
 6980TIP3    H120897   2.014   0.429   3.601 -0.1139 -0.0548  1.6735
 6980TIP3    H220898   2.034   0.549   3.692 -0.1087  1.4991 -0.2999
 6981TIP3   OH220899   0.119   0.244   2.235  0.4556  0.2007  0.8141
 6981TIP3    H120900   0.088   0.158   2.263  2.1494 -1.1536 -1.1333
 6981TIP3    H220901   0.211   0.246   2.262  0.2279  1.7790  1.5589
 6982TIP3   OH220902   4.643   2.554   3.383 -0.0520  0.3627  0.3224
 6982TIP3    H120903   4.704   2.589   3.319 -0.5616  0.9775  0.1582
 6982TIP3    H220904   4.626   2.627   3.443 -0.2260  0.0474  0.6669
 6983TIP3   OH220905   0.860   5.592   2.605  0.3030  0.3870  0.5204
 6983TIP3    H120906   0.925   5.554   2.664  2.4197  1.3499 -1.0602
 6983TIP3    H220907   0.896   5.576   2.518 -0.6757  2.5655 -0.3339
 6984TIP3   OH220908   8.208   6.822   4.581  0.2191 -0.3955  0.2157
 6984TIP3    H120909   8.212   6.917   4.587  0.8119 -0.3724 -0.4055
 6984TIP3    H220910   8.130   6.804   4.530 -0.6652 -0.3061  1.5001
 6985TIP3   OH220911   0.602   0.033   5.721  0.0395 -0.2990 -0.6848
 6985TIP3    H120912   0.677   0.092   5.708  0.5718 -0.7173  0.3640
 6985TIP3    H220913   0.640  -0.048   5.755 -0.5772 -1.6357 -2.9690
 6986TIP3   OH220914   3.193   3.378   0.766  0.0460  0.5195  0.0201
 6986TIP3    H120915   3.147   3.305   0.724  0.8480  0.1197 -0.1736
 6986TIP3    H220916   3.254   3.410   0.699  2.0616 -0.7728  1.1547
 6987TIP3   OH220917   2.698   1.228   3.208  0.4290  0.7960  0.3145
 6987TIP3    H120918   2.672   1.280   3.132  2.9005  1.0391 -0.4409
 6987TIP3    H220919   2.617   1.187   3.238 -0.8983  2.0382 -1.4116
 6988TIP3   OH220920   7.127   1.481   0.071 -0.3860  0.4422  0.2543
 6988TIP3    H120921   7.155   1.390   0.063  0.0575  0.5653  0.3419
 6988TIP3    H220922   7.051   1.478   0.129  1.5396  0.4295  2.9938
 6989TIP3   OH220923   7.735   3.976   4.698 -0.6513 -0.3501 -0.2714
 6989TIP3    H120924   7.822   3.968   4.657  0.1459  2.2983  0.7228
 6989TIP3    H220925   7.685   4.030   4.637 -0.3879  1.1517  0.7825
 6990TIP3   OH220926   5.307   5.777   2.863 -0.9588  0.2319  0.5471
 6990TIP3    H120927   5.271   5.715   2.926  0.0722 -0.0171  0.9035
 6990TIP3    H220928   5.248   5.852   2.866 -1.9197 -0.5035  0.5009
 6991TIP3   OH220929   5.583   3.168   6.063 -0.1419 -0.0304  0.1971
 6991TIP3    H120930   5.644   3.200   5.997 -0.6232  3.3879  1.2049
 6991TIP3    H220931   5.497   3.170   6.021 -0.2917  0.9520  0.5358
 6992TIP3   OH220932   5.676   6.633   5.417 -0.4194  0.1427 -0.3460
 6992TIP3    H120933   5.616   6.574   5.372  0.5071 -2.3826  1.5004
 6992TIP3    H220934   5.631   6.654   5.500 -0.4457  1.5788 -0.6910
 6993TIP3   OH220935   4.918   4.983   1.794  0.5843 -0.1286  0.3311
 6993TIP3    H120936   4.872   5.056   1.753  0.7899 -0.5389 -0.6750
 6993TIP3    H220937   4.850   4.917   1.809  0.4884  0.0659  0.7729
 6994TIP3   OH220938   4.449   1.486   0.597 -0.2514  0.4019 -0.4400
 6994TIP3    H120939   4.374   1.436   0.628 -0.6532 -0.5062 -2.7094
 6994TIP3    H220940   4.517   1.420   0.582 -1.0538  0.1940 -4.2707
 6995TIP3   OH220941   6.599   1.774   0.348  0.4522 -0.1151  0.3300
 6995TIP3    H120942   6.628   1.865   0.341 -0.2073  0.1001  0.3383
 6995TIP3    H220943   6.614   1.737   0.261 -0.4158  0.3495 -0.0287
 6996TIP3   OH220944   1.827   1.209   6.044 -0.3559  0.2469  0.1051
 6996TIP3    H120945   1.816   1.234   6.136  2.1313 -0.3484  0.6350
 6996TIP3    H220946   1.894   1.141   6.046 -1.6945 -1.2247 -1.9921
 6997TIP3   OH220947   8.103   2.904   2.235  0.8319  0.1152  0.2745
 6997TIP3    H120948   8.036   2.903   2.303  2.3156 -0.2173  1.8308
 6997TIP3    H220949   8.062   2.948   2.161 -0.2537  2.3505  2.0715
 6998TIP3   OH220950   1.543   2.474   5.430 -0.0230  0.2686  0.4693
 6998TIP3    H120951   1.570   2.518   5.510  0.0874  1.2079 -0.0726
 6998TIP3    H220952   1.465   2.424   5.454  0.4966 -0.1473  1.3560
 6999TIP3   OH220953   6.658   4.674   0.840 -0.6541 -0.1172  0.1144
 6999TIP3    H120954   6.606   4.753   0.849  0.0157  0.4274 -0.6429
 6999TIP3    H220955   6.626   4.615   0.908 -1.4432  0.6474  0.4076
 7000TIP3   OH220956   5.756   0.886   0.252 -0.5488 -0.2702  0.3428
 7000TIP3    H120957   5.698   0.920   0.320 -0.6823 -1.0729  0.6386
 7000TIP3    H220958   5.744   0.946   0.178  0.3914  1.2421  1.3592
 7001TIP3   OH220959   0.232   5.174   5.323 -0.1447  0.5571  0.1698
 7001TIP3    H120960   0.270   5.190   5.237  0.1951 -1.8899 -0.2029
 7001TIP3    H220961   0.307   5.153   5.379 -0.4261  1.5021  0.9517
 7002TIP3   OH220962   8.153   6.128   5.931 -0.8229 -0.3050 -0.4432
 7002TIP3    H120963   8.109   6.212   5.922  0.7326  0.5877 -0.1132
 7002TIP3    H220964   8.133   6.081   5.850 -0.2515  1.1083 -1.4321
 7003TIP3   OH220965   0.774   5.947   4.851 -0.0369  0.4134 -0.0211
 7003TIP3    H120966   0.784   5.852   4.849  0.4430  0.4329  0.6852
 7003TIP3    H220967   0.687   5.962   4.888 -0.2812  0.2474 -0.5291
 7004TIP3   OH220968   1.468   6.249   2.285 -0.6571 -0.3564 -0.7156
 7004TIP3    H120969   1.451   6.160   2.316  3.2159 -1.6706 -1.8023
 7004TIP3    H220970   1.523   6.287   2.353 -1.2594  0.8116 -0.8599
 7005TIP3   OH220971   4.742   1.100   3.519  0.3003  0.3635  0.1852
 7005TIP3    H120972   4.798   1.120   3.594  1.3786 -0.5944 -0.3336
 7005TIP3    H220973   4.790   1.033   3.470 -1.5573 -0.9211  0.0194
 7006TIP3   OH220974   5.741   1.243   5.313  0.2477  0.2654  0.4242
 7006TIP3    H120975   5.836   1.237   5.311  0.4975  3.0820 -0.5020
 7006TIP3    H220976   5.715   1.237   5.221 -0.6597 -1.7934  0.7525
 7007TIP3   OH220977   3.577   3.023   3.705 -0.3053 -0.7582  0.2226
 7007TIP3    H120978   3.486   3.017   3.676  0.1387 -3.0449 -0.9457
 7007TIP3    H220979   3.575   3.085   3.778 -2.5491  0.2799 -0.6226
 7008TIP3   OH220980   1.580   1.948   1.868 -0.0058  0.0538 -0.8338
 7008TIP3    H120981   1.623   2.033   1.856 -1.2053  0.7712 -0.2709
 7008TIP3    H220982   1.557   1.946   1.961  1.4937 -1.6368 -0.4576
 7009TIP3   OH220983   6.940   7.242   0.317 -0.1154 -0.5199  0.3214
 7009TIP3    H120984   7.018   7.256   0.263 -0.3101 -0.5178  0.0362
 7009TIP3    H220985   6.954   7.156   0.356 -0.2990 -0.8420 -0.3020
 7010TIP3   OH220986   6.984   6.495   3.097 -0.1395  0.1816  0.5956
 7010TIP3    H120987   7.060   6.464   3.048  0.2684  2.6422 -0.5281
 7010TIP3    H220988   7.005   6.586   3.117 -2.4117  0.6673  1.0421
 7011TIP3   OH220989   0.823   0.889   2.713 -0.6765  0.5762  0.2471
 7011TIP3    H120990   0.791   0.977   2.730 -1.5419  0.8462 -2.3439
 7011TIP3    H220991   0.774   0.860   2.635  1.8957 -0.9199 -0.9450
 7012TIP3   OH220992   0.531  -0.017   2.694 -0.2443 -0.3103 -0.0656
 7012TIP3    H120993   0.438   0.007   2.689 -0.0893  0.9987  1.9702
 7012TIP3    H220994   0.577   0.067   2.688  0.8075 -0.9177 -0.7313
 7013TIP3   OH220995   4.241   6.782   1.509  0.5502 -0.1566 -0.5080
 7013TIP3    H120996   4.252   6.876   1.523 -1.8183  0.3098 -1.3639
 7013TIP3    H220997   4.325   6.753   1.473  1.6204  1.4232  0.6007
 7014TIP3   OH220998   1.873   1.323   4.113 -0.0951 -0.6063  0.4605
 7014TIP3    H120999   1.918   1.397   4.153 -0.9833 -0.6960  1.6773
 7014TIP3    H221000   1.781   1.337   4.132 -0.9418  0.4979 -3.4887
 7015TIP3   OH221001   2.742   0.675   2.550  0.0544 -0.0718  0.1374
 7015TIP3    H121002   2.712   0.728   2.476  1.8917  0.3695 -0.3323
 7015TIP3    H221003   2.745   0.585   2.516 -0.1400 -0.0289  0.0089
 7016TIP3   OH221004   3.351   7.321   1.214 -0.8361  0.0518  0.4592
 7016TIP3    H121005   3.441   7.294   1.233 -0.7271 -0.3797 -0.6647
 7016TIP3    H221006   3.318   7.353   1.299  0.7995  1.4623  0.6283
 7017TIP3   OH221007   4.880   4.725   5.655  0.6578 -0.3035 -0.2159
 7017TIP3    H121008   4.847   4.639   5.629 -1.0025  0.6229 -1.3064
 7017TIP3    H221009   4.973   4.723   5.630  0.4123 -1.4191 -1.1108
 7018TIP3   OH221010   5.748   4.933   2.101 -0.0706 -0.5513 -0.0671
 7018TIP3    H121011   5.811   4.984   2.050 -0.5775 -0.7979 -0.9763
 7018TIP3    H221012   5.799   4.896   2.173  1.3815 -2.5004 -1.9336
 7019TIP3   OH221013   1.243   4.989   4.943 -0.4002 -0.3009  0.1344
 7019TIP3    H121014   1.265   5.073   4.904 -2.0817  0.2152  0.2008
 7019TIP3    H221015   1.319   4.933   4.926  0.2847  0.9007 -0.8835
 7020TIP3   OH221016   0.347   1.377   2.937 -0.5038  0.0257 -0.2929
 7020TIP3    H121017   0.415   1.404   2.875 -0.5002  1.2838  0.2326
 7020TIP3    H221018   0.393   1.327   3.004  0.3365  2.6474  1.2130
 7021TIP3   OH221019   1.972   0.026   6.605 -0.0310  0.2606  0.1240
 7021TIP3    H121020   2.047   0.001   6.551  0.3951  0.3198  0.6885
 7021TIP3    H221021   2.006   0.030   6.694  0.1791  3.7392  0.0259
 7022TIP3   OH221022   5.215   7.570   0.103 -0.1104  0.6278  0.4022
 7022TIP3    H121023   5.288   7.611   0.056  0.6312 -0.1157  0.8808
 7022TIP3    H221024   5.247   7.482   0.123 -1.0354  0.3984  0.8823
 7023TIP3   OH221025   4.267   4.689   0.331  0.2381 -0.3082  0.3933
 7023TIP3    H121026   4.354   4.697   0.291  1.0463 -0.7423  1.9759
 7023TIP3    H221027   4.211   4.657   0.260  1.4845 -0.5266 -0.5254
 7024TIP3   OH221028   5.962   5.484   6.253 -0.0527  0.4330  0.0843
 7024TIP3    H121029   6.021   5.422   6.295 -0.2139 -0.2316 -0.6516
 7024TIP3    H221030   5.913   5.524   6.325 -0.1859 -0.5362  0.5404
 7025TIP3   OH221031   0.087   2.329   2.835  0.9499 -0.0239 -0.2036
 7025TIP3    H121032   0.018   2.392   2.812  1.4195  0.6951  0.3199
 7025TIP3    H221033   0.161   2.383   2.862  1.0723 -0.7907  1.1073
 7026TIP3   OH221034   5.616   2.985   0.906  0.1514  0.4807  0.0084
 7026TIP3    H121035   5.635   2.936   0.986 -2.0814  1.4481  1.2269
 7026TIP3    H221036   5.606   3.076   0.935  0.2676  1.0262 -1.5497
 7027TIP3   OH221037   3.109   6.396   0.252 -0.0265 -0.4424 -0.0219
 7027TIP3    H121038   3.183   6.359   0.300  1.1049  2.3029  0.5104
 7027TIP3    H221039   3.146   6.466   0.199 -2.0759  0.1953 -0.7221
 7028TIP3   OH221040   2.584   6.410   2.056 -0.1866 -0.7332 -0.1025
 7028TIP3    H121041   2.575   6.483   2.117 -0.7155  0.8144 -1.9444
 7028TIP3    H221042   2.641   6.348   2.102 -0.0352  0.6457  1.6866
 7029TIP3   OH221043   0.573   4.376   1.379  0.5452  0.1428 -0.1172
 7029TIP3    H121044   0.597   4.433   1.452  0.0175  0.6539 -0.3383
 7029TIP3    H221045   0.478   4.375   1.379  0.5315  0.5775 -1.1243
 7030TIP3   OH221046   1.529   2.065   5.388  0.4512  0.4733 -0.1192
 7030TIP3    H121047   1.484   2.148   5.374 -0.1489  0.2980  0.7416
 7030TIP3    H221048   1.504   2.011   5.313  0.9922  1.1245 -0.7800
 7031TIP3   OH221049   3.111   5.925   0.243 -0.0133  0.0754  0.1208
 7031TIP3    H121050   3.129   5.834   0.223 -0.3314 -0.2343  1.1868
 7031TIP3    H221051   3.197   5.968   0.239  0.2972 -0.4805  0.6392
 7032TIP3   OH221052   2.488   5.164   2.668 -0.0716 -0.5021  0.1742
 7032TIP3    H121053   2.543   5.240   2.689 -0.5508 -0.1701  0.2459
 7032TIP3    H221054   2.444   5.142   2.750  0.4950 -1.2189  0.2950
 7033TIP3   OH221055   5.711   3.001   2.165  0.0561  1.1560 -0.2977
 7033TIP3    H121056   5.776   3.033   2.228 -0.0291  3.0176 -1.0969
 7033TIP3    H221057   5.743   3.033   2.081  1.4680 -3.2337 -1.7087
 7034TIP3   OH221058   7.284   6.022   2.813  0.0711  0.3094  0.8301
 7034TIP3    H121059   7.206   6.017   2.757 -0.5828  0.8428  1.6747
 7034TIP3    H221060   7.334   5.944   2.791  0.2612  0.9173 -1.1203
 7035TIP3   OH221061   7.090   6.496   1.119 -0.1585  0.3116  0.1697
 7035TIP3    H121062   7.032   6.572   1.122  0.6448  0.9701 -0.3529
 7035TIP3    H221063   7.042   6.427   1.163 -0.4683  1.4380  1.7000
 7036TIP3   OH221064   0.719   1.740   2.693 -0.1010 -0.0316 -0.1210
 7036TIP3    H121065   0.794   1.760   2.748 -1.3662  2.1152  0.9752
 7036TIP3    H221066   0.725   1.802   2.620 -1.7148  1.5610  0.9831
 7037TIP3   OH221067   6.763   1.368   5.367 -0.3107 -0.3704 -0.2869
 7037TIP3    H121068   6.790   1.445   5.317  0.0558  0.0022  0.4789
 7037TIP3    H221069   6.693   1.329   5.314 -0.4856  0.4678 -0.6873
 7038TIP3   OH221070   5.944   0.343   2.239 -0.2489 -0.0783  0.2382
 7038TIP3    H121071   5.929   0.433   2.210 -1.5385 -0.1135  0.7112
 7038TIP3    H221072   5.960   0.351   2.333  0.6420 -0.2615  0.1075
 7039TIP3   OH221073   0.966   3.073   4.816  0.7656 -0.1755  0.1814
 7039TIP3    H121074   0.875   3.058   4.841  0.5773  1.5354  0.6227
 7039TIP3    H221075   0.994   2.989   4.778 -1.1906 -0.5080 -0.6644
 7040TIP3   OH221076   6.873   0.674   2.558  0.3354 -0.1477 -0.0626
 7040TIP3    H121077   6.899   0.583   2.546  1.3346 -0.0385  1.0748
 7040TIP3    H221078   6.812   0.672   2.631 -0.3387  0.0014 -0.6100
 7041TIP3   OH221079   0.290   6.654   4.469 -0.1839 -0.0510  0.1817
 7041TIP3    H121080   0.294   6.700   4.385  0.6781 -0.0195  0.2340
 7041TIP3    H221081   0.286   6.562   4.446 -0.2028 -0.0305  0.1030
 7042TIP3   OH221082   0.226   2.655   2.991  0.0722  0.2039 -0.1474
 7042TIP3    H121083   0.281   2.625   2.918  0.0074 -0.5257  0.0947
 7042TIP3    H221084   0.181   2.732   2.957  0.8099  0.4715 -0.5435
 7043TIP3   OH221085   6.855   0.604   0.065  0.4817 -0.3513 -0.3456
 7043TIP3    H121086   6.906   0.581  -0.012 -0.1791 -1.8175 -0.3715
 7043TIP3    H221087   6.865   0.530   0.124 -0.4391 -0.0269  0.2486
 7044TIP3   OH221088   4.094   7.472   3.211  0.0073 -0.1819 -0.1763
 7044TIP3    H121089   4.038   7.530   3.160 -1.4923 -0.6206  0.9279
 7044TIP3    H221090   4.097   7.390   3.162  0.3640  0.1082 -0.6446
 7045TIP3   OH221091   6.095   1.353   3.355  0.6606  0.4301  0.2898
 7045TIP3    H121092   6.030   1.405   3.402 -1.2924 -1.6881  0.1246
 7045TIP3    H221093   6.112   1.403   3.275  1.2602  2.2949  1.5381
 7046TIP3   OH221094   2.316   6.912   2.107  0.6020  0.5941  0.0852
 7046TIP3    H121095   2.400   6.868   2.101  1.2637  1.1465  3.3195
 7046TIP3    H221096   2.252   6.847   2.078  2.0800  0.4417 -3.2275
 7047TIP3   OH221097   2.958   6.159   2.951  0.2449 -0.2330 -0.2643
 7047TIP3    H121098   2.914   6.180   2.869 -0.6351 -2.2702 -0.3742
 7047TIP3    H221099   2.908   6.086   2.988 -0.1701  1.3855  2.7362
 7048TIP3   OH221100   2.223   1.432   5.037  0.6250  0.1168  0.1323
 7048TIP3    H121101   2.310   1.432   5.077  0.5364 -1.4368  0.4056
 7048TIP3    H221102   2.230   1.493   4.964  1.6317  0.8154  0.7889
 7049TIP3   OH221103   3.881   2.460   0.027 -0.3682 -0.1925 -0.1438
 7049TIP3    H121104   3.824   2.450  -0.049  0.6564  1.9919 -1.3116
 7049TIP3    H221105   3.920   2.374   0.040  0.1396 -0.4383 -2.7353
 7050TIP3   OH221106   5.410   1.266   1.236  0.3608  0.1312 -0.0412
 7050TIP3    H121107   5.365   1.245   1.319 -0.0199  0.9096 -0.0420
 7050TIP3    H221108   5.476   1.198   1.228  0.4795  0.1016  0.9694
 7051TIP3   OH221109   5.503   6.768   3.314 -0.2905  0.5185 -0.0508
 7051TIP3    H121110   5.473   6.687   3.273  0.3400  0.8849 -1.2648
 7051TIP3    H221111   5.596   6.753   3.330 -0.2954  0.7967  0.2421
 7052TIP3   OH221112   3.995   0.810   4.878  0.0632  0.1143  0.4660
 7052TIP3    H121113   3.998   0.715   4.864 -2.0491  0.0811 -0.1112
 7052TIP3    H221114   3.975   0.846   4.791  1.4191  1.1669  0.5588
 7053TIP3   OH221115   5.252   4.048   6.035  0.5216  0.4356  0.6461
 7053TIP3    H121116   5.288   4.093   5.959  0.5032  1.3478  1.1699
 7053TIP3    H221117   5.281   4.100   6.111  1.6609 -1.1869  1.3840
 7054TIP3   OH221118   5.629   5.278   1.084 -0.2407 -0.6397  0.0567
 7054TIP3    H121119   5.612   5.206   1.145  0.9143 -0.2769  0.8516
 7054TIP3    H221120   5.592   5.355   1.126 -1.8726 -0.8001 -0.9995
 7055TIP3   OH221121   1.314   4.425   0.402 -0.1873 -0.3060 -0.1368
 7055TIP3    H121122   1.288   4.517   0.393  3.1134  0.7656  0.0255
 7055TIP3    H221123   1.351   4.419   0.489  0.8907 -1.4360 -0.6470
 7056TIP3   OH221124   4.479   1.186   2.055 -0.1238  0.6129 -0.2401
 7056TIP3    H121125   4.464   1.268   2.101 -1.7998 -0.6479  1.6239
 7056TIP3    H221126   4.392   1.157   2.027  0.5761  0.0960 -2.1030
 7057TIP3   OH221127   4.089   2.889   0.526  0.1150  0.3379  0.4670
 7057TIP3    H121128   4.111   2.915   0.437  1.0699 -0.9184  0.3014
 7057TIP3    H221129   4.131   2.804   0.537 -2.6525 -1.0679  1.0218
 7058TIP3   OH221130   7.482   2.320   6.630  0.1051 -0.4484  0.2400
 7058TIP3    H121131   7.523   2.307   6.716 -0.4055 -0.9885  0.4095
 7058TIP3    H221132   7.435   2.239   6.613 -0.3638 -0.0860 -0.2382
 7059TIP3   OH221133   7.431   2.566   6.042 -0.3617  0.4339 -0.3779
 7059TIP3    H121134   7.374   2.630   5.999 -0.0223 -0.0965 -1.6883
 7059TIP3    H221135   7.509   2.616   6.067 -0.2864  0.6400 -0.9959
 7060TIP3   OH221136   3.082   5.308   2.795 -0.4488  0.2353  0.4017
 7060TIP3    H121137   3.168   5.347   2.779  0.8691 -2.7568 -0.7165
 7060TIP3    H221138   3.020   5.380   2.785  1.8760  2.4927  1.1261
 7061TIP3   OH221139   3.391   7.701   4.666  0.0048 -0.2916 -0.1540
 7061TIP3    H121140   3.331   7.736   4.600 -1.5840  0.1610  1.4356
 7061TIP3    H221141   3.390   7.766   4.737  2.0690 -0.4979  0.1159
 7062TIP3   OH221142   2.801   6.603   3.631  0.8915  0.2927  0.4276
 7062TIP3    H121143   2.770   6.517   3.601 -2.5769  1.3033  0.7501
 7062TIP3    H221144   2.845   6.640   3.555  0.3984 -0.8592 -0.4519
 7063TIP3   OH221145   1.142   6.105   4.621  0.0825  0.6696  0.3985
 7063TIP3    H121146   1.181   6.177   4.573  0.1902 -0.1296 -0.7460
 7063TIP3    H221147   1.083   6.147   4.684  0.0398  1.7485 -0.3393
 7064TIP3   OH221148   6.134   3.550   3.295  0.0944 -0.1341 -0.0059
 7064TIP3    H121149   6.213   3.602   3.309  0.8878 -1.0051 -1.0425
 7064TIP3    H221150   6.111   3.567   3.203 -2.0953  1.6284  0.7531
 7065TIP3   OH221151   7.674   2.970   6.573 -0.0517  0.0038  0.1354
 7065TIP3    H121152   7.691   2.914   6.497 -0.4973 -2.6182  1.8467
 7065TIP3    H221153   7.589   3.011   6.553  0.9800  1.3844 -1.8079
 7066TIP3   OH221154   2.103   2.366   3.728 -0.5149  0.0102  0.2205
 7066TIP3    H121155   2.058   2.282   3.713  0.7457 -0.5362 -0.6683
 7066TIP3    H221156   2.103   2.408   3.642  1.2171 -0.2982  0.0362
 7067TIP3   OH221157   2.206   1.538   4.353  0.4465  0.0071 -0.2555
 7067TIP3    H121158   2.286   1.528   4.303  0.3341  1.4030 -0.7754
 7067TIP3    H221159   2.160   1.454   4.345  1.4350 -0.4987 -0.6784
 7068TIP3   OH221160   6.514   1.302   4.558  0.1119 -0.2152  0.1402
 7068TIP3    H121161   6.470   1.297   4.473  0.4347  0.7555 -0.0916
 7068TIP3    H221162   6.607   1.310   4.537  0.2166 -0.2314  0.5892
 7069TIP3   OH221163   4.808   5.591   3.084  0.0220 -0.1854  0.2403
 7069TIP3    H121164   4.734   5.617   3.140  0.6125 -1.9672  1.9676
 7069TIP3    H221165   4.775   5.516   3.034 -0.2065  0.8266 -1.1848
 7070TIP3   OH221166   8.205   1.813   0.876 -0.1225 -0.1956  0.4739
 7070TIP3    H121167   8.226   1.779   0.789  0.2206 -0.7394  0.7581
 7070TIP3    H221168   8.131   1.872   0.862 -0.9925 -1.3541 -0.0037
 7071TIP3   OH221169   8.005   4.182   0.731 -0.1661  0.4578 -0.0330
 7071TIP3    H121170   8.002   4.086   0.741 -0.2446  0.4969  0.3384
 7071TIP3    H221171   7.970   4.198   0.643 -0.8348  0.1862  0.1711
 7072TIP3   OH221172   2.804   3.661   6.704 -1.0867  0.7113 -0.6274
 7072TIP3    H121173   2.860   3.702   6.638 -0.1057  1.0262  0.3677
 7072TIP3    H221174   2.791   3.730   6.770 -1.1602  0.0762  0.0293
 7073TIP3   OH221175   2.410   1.070   5.293 -0.2396  0.0672  0.6934
 7073TIP3    H121176   2.447   1.041   5.209  2.5760 -1.5816  2.3586
 7073TIP3    H221177   2.341   1.007   5.311 -1.4235  0.8961 -0.6576
 7074TIP3   OH221178   4.651   6.687   4.573 -0.0397 -0.1216  0.2465
 7074TIP3    H121179   4.712   6.744   4.619  1.5977 -1.2615 -0.3879
 7074TIP3    H221180   4.698   6.662   4.493 -0.7575 -2.1441  0.3856
 7075TIP3   OH221181   6.745   0.584   2.779  0.6365 -0.0897 -0.0874
 7075TIP3    H121182   6.741   0.660   2.837  2.7014  0.4000 -0.5130
 7075TIP3    H221183   6.684   0.521   2.818  0.2461  1.0886  1.2920
 7076TIP3   OH221184   1.488   1.718   4.288  0.0399  0.1813 -0.2272
 7076TIP3    H121185   1.528   1.699   4.373  0.8825 -0.7755 -0.8188
 7076TIP3    H221186   1.561   1.721   4.226 -0.7140 -1.1117 -1.2462
 7077TIP3   OH221187   5.329   6.209   6.323  0.0148  0.4476  0.4715
 7077TIP3    H121188   5.245   6.254   6.316 -0.1713  0.0405  0.0482
 7077TIP3    H221189   5.310   6.131   6.375 -0.1785 -0.3698 -0.7799
 7078TIP3   OH221190   2.311   1.315   5.433  0.0236 -0.2063  0.3273
 7078TIP3    H121191   2.262   1.281   5.507 -1.0522 -0.7360 -0.5995
 7078TIP3    H221192   2.331   1.237   5.380 -0.1437  0.2880 -0.4705
 7079TIP3   OH221193   0.462   0.932   4.026  0.6651  0.2162 -0.0249
 7079TIP3    H121194   0.396   0.903   3.964  1.1490 -1.6610  0.2831
 7079TIP3    H221195   0.538   0.876   4.009  1.0857  0.1906  1.7051
 7080TIP3   OH221196   0.357   2.856   1.115 -0.1192 -0.5957  0.3181
 7080TIP3    H121197   0.419   2.786   1.137  1.0377 -0.2800 -1.7314
 7080TIP3    H221198   0.286   2.811   1.069  0.4660 -0.5043 -0.7070
 7081TIP3   OH221199   7.027   1.338   1.351  0.3260  0.2208  0.4163
 7081TIP3    H121200   7.077   1.268   1.308 -0.3973 -0.2784  0.3782
 7081TIP3    H221201   7.013   1.306   1.440  0.2311  0.4399  0.4816
 7082TIP3   OH221202   2.410   6.943   0.106 -0.5439  0.1434 -0.2024
 7082TIP3    H121203   2.426   6.927   0.199  0.9454  0.7639 -0.3192
 7082TIP3    H221204   2.425   7.037   0.094 -0.0684 -0.0375 -1.1705
 7083TIP3   OH221205   7.095   2.244   2.036  0.1517  0.1203 -0.2574
 7083TIP3    H121206   7.136   2.330   2.028 -2.6482  1.4353 -2.0742
 7083TIP3    H221207   7.096   2.208   1.947  0.4987 -1.3910  0.3179
 7084TIP3   OH221208   8.005   5.989   2.553  0.7131 -0.0539 -0.0002
 7084TIP3    H121209   8.087   6.013   2.510  1.0812 -0.9325  0.1808
 7084TIP3    H221210   7.974   6.069   2.595  0.1623  0.9418 -2.1639
 7085TIP3   OH221211   8.184   3.735   2.676  0.3423  0.4067  0.1746
 7085TIP3    H121212   8.246   3.674   2.716  1.1108  1.1884  0.2074
 7085TIP3    H221213   8.239   3.800   2.633 -0.4646  0.9079 -0.1163
 7086TIP3   OH221214   3.891   6.530   2.210 -0.0577 -0.3126  0.1934
 7086TIP3    H121215   3.862   6.604   2.157  1.8025  1.7577  1.8791
 7086TIP3    H221216   3.950   6.481   2.153 -0.4260  0.1403 -0.5885
 7087TIP3   OH221217   2.287   2.217   1.930 -0.0362 -0.1348 -0.3631
 7087TIP3    H121218   2.218   2.220   1.996  0.5964 -2.1398  0.4713
 7087TIP3    H221219   2.322   2.128   1.935 -0.6572 -0.7841 -4.1806
 7088TIP3   OH221220   7.255   5.057   5.981 -0.0063 -0.6063  0.6086
 7088TIP3    H121221   7.327   5.010   5.939  0.0264 -1.0168  1.1111
 7088TIP3    H221222   7.219   4.994   6.044 -0.0486 -0.0000  1.1953
 7089TIP3   OH221223   0.812   5.592   6.094  0.5767  0.3073  0.2337
 7089TIP3    H121224   0.795   5.656   6.163 -1.7808  1.2118 -1.0634
 7089TIP3    H221225   0.769   5.628   6.017  1.7033 -1.4700 -1.3072
 7090TIP3   OH221226   3.376   1.832   3.017 -0.4089 -0.2134 -0.1293
 7090TIP3    H121227   3.332   1.917   3.012  0.1676  0.1411  0.5855
 7090TIP3    H221228   3.353   1.798   3.103  1.0420  0.1745  0.4355
 7091TIP3   OH221229   1.413   4.094   6.380  0.7134 -0.8841  0.2649
 7091TIP3    H121230   1.415   4.039   6.301  0.5087  0.7685 -0.9464
 7091TIP3    H221231   1.328   4.138   6.375  1.0510 -0.1504  0.9840
 7092TIP3   OH221232   4.835   0.364   0.102  0.4025 -0.5560 -0.3438
 7092TIP3    H121233   4.887   0.343   0.024 -0.6108 -1.9585 -0.7023
 7092TIP3    H221234   4.885   0.327   0.175  0.8732 -0.1222 -0.4442
 7093TIP3   OH221235   2.552   4.535   3.454  0.4791  0.6896 -0.1453
 7093TIP3    H121236   2.531   4.628   3.465 -2.1600  0.1620  0.0728
 7093TIP3    H221237   2.495   4.506   3.383  1.9396 -0.6031 -0.8434
 7094TIP3   OH221238   4.220   4.684   4.761  0.4218 -0.0335  0.1622
 7094TIP3    H121239   4.151   4.688   4.695 -0.6723  1.7051  1.3323
 7094TIP3    H221240   4.286   4.747   4.731 -0.5442  1.5229  1.1509
 7095TIP3   OH221241   1.416   0.982   0.733  0.3484  0.2625 -0.1127
 7095TIP3    H121242   1.323   0.999   0.723 -0.3607 -0.6744  3.5534
 7095TIP3    H221243   1.426   0.890   0.708  1.1553  1.2394 -4.1060
 7096TIP3   OH221244   5.974   5.952   5.925 -0.8512  0.1975 -0.1830
 7096TIP3    H121245   5.926   6.033   5.903  0.7301  1.4660  0.8259
 7096TIP3    H221246   6.048   5.982   5.978 -0.7708 -2.0508  1.0746
 7097TIP3   OH221247   5.548   4.548   6.456  0.4349 -0.0381  0.1570
 7097TIP3    H121248   5.505   4.465   6.439 -0.0867  0.3866 -0.6331
 7097TIP3    H221249   5.495   4.589   6.525  1.1838 -0.7113  1.1744
 7098TIP3   OH221250   0.555   2.839   2.103 -0.5515 -0.1419 -0.1698
 7098TIP3    H121251   0.528   2.929   2.123 -2.0412 -0.4517 -0.6211
 7098TIP3    H221252   0.472   2.792   2.093  0.2166 -1.5647  0.0593
 7099TIP3   OH221253   2.801   2.022   2.407  0.1483 -0.3001  0.6738
 7099TIP3    H121254   2.781   1.984   2.322 -1.3892  0.0604  0.8514
 7099TIP3    H221255   2.780   1.952   2.470  0.9023 -0.4273  0.7981
 7100TIP3   OH221256   4.184   0.921   2.740 -1.0496 -0.1342 -0.1303
 7100TIP3    H121257   4.194   0.826   2.734 -0.3501 -0.0421 -0.6040
 7100TIP3    H221258   4.144   0.936   2.826 -0.7671 -0.8269  0.1309
 7101TIP3   OH221259   6.232   6.014   4.085 -0.7021  0.5146  0.6021
 7101TIP3    H121260   6.203   6.103   4.063 -0.5003  0.4703  0.1468
 7101TIP3    H221261   6.292   6.026   4.159  1.5387  1.0898 -1.1708
 7102TIP3   OH221262   1.793   3.199   1.748 -0.1566 -0.5365  0.0266
 7102TIP3    H121263   1.842   3.215   1.828  2.4905  2.9137 -1.9971
 7102TIP3    H221264   1.717   3.257   1.754  0.4176  0.2561 -0.1935
 7103TIP3   OH221265   6.770   3.543   2.734  0.0156 -0.5455 -0.1754
 7103TIP3    H121266   6.762   3.458   2.690 -0.4773  0.1002 -1.3867
 7103TIP3    H221267   6.708   3.599   2.688  2.0811  1.1357 -1.0542
 7104TIP3   OH221268   3.965   1.113   5.410 -0.1133 -0.0677  0.5092
 7104TIP3    H121269   3.893   1.083   5.466  0.0283 -2.1794 -0.3418
 7104TIP3    H221270   3.933   1.101   5.321  0.1674  1.9989  0.0717
 7105TIP3   OH221271   1.937   7.081   1.135  0.0682  0.5794 -0.3699
 7105TIP3    H121272   1.847   7.092   1.165 -0.9176  0.3380 -2.9928
 7105TIP3    H221273   1.931   7.025   1.058  2.6057 -0.3121 -0.0316
 7106TIP3   OH221274   3.173   7.562   2.783  0.1554  0.4236 -0.9181
 7106TIP3    H121275   3.181   7.581   2.877 -0.6489 -0.9079 -0.5490
 7106TIP3    H221276   3.257   7.524   2.759 -0.8026 -2.7222  0.1973
 7107TIP3   OH221277   2.552   0.162   6.716  0.4873 -0.4215 -0.2864
 7107TIP3    H121278   2.540   0.252   6.685  0.8308 -0.6404 -1.0715
 7107TIP3    H221279   2.553   0.109   6.637  1.4027 -0.9975  0.0965
 7108TIP3   OH221280   3.669   2.412   3.278  0.1080 -0.5304 -0.7271
 7108TIP3    H121281   3.666   2.386   3.186 -0.2528  0.4438 -1.0031
 7108TIP3    H221282   3.763   2.420   3.297  0.1846  0.9215 -1.5206
 7109TIP3   OH221283   5.307   4.195   4.728 -0.2180 -0.1315  0.2809
 7109TIP3    H121284   5.301   4.253   4.652 -0.3745 -0.8590 -0.2726
 7109TIP3    H221285   5.400   4.172   4.733 -0.3603 -0.8779 -0.3089
 7110TIP3   OH221286   1.938   0.798   3.979 -0.0203  0.7280  0.5887
 7110TIP3    H121287   1.980   0.740   4.042  0.0008  0.9239  0.7531
 7110TIP3    H221288   1.907   0.872   4.031 -0.8772  0.4231  0.5264
 7111TIP3   OH221289   5.634   1.553   2.573 -0.0875  0.6358  0.2936
 7111TIP3    H121290   5.539   1.561   2.583 -0.1847  0.0520 -0.1492
 7111TIP3    H221291   5.648   1.540   2.480  0.4854  1.4262  0.2636
 7112TIP3   OH221292   4.016   4.226   0.648 -0.1589  0.7656 -0.0414
 7112TIP3    H121293   3.936   4.269   0.679  0.1139  0.3559  1.3334
 7112TIP3    H221294   4.050   4.284   0.580 -1.9305  0.6406 -1.0811
 7113TIP3   OH221295   0.442   6.900   5.520 -0.0898  0.0427 -0.1443
 7113TIP3    H121296   0.469   6.946   5.599  1.5671 -2.1283  0.6677
 7113TIP3    H221297   0.369   6.845   5.547 -2.0813  2.0616 -1.1149
 7114TIP3   OH221298   8.041   3.480   4.437 -0.1152 -0.1425  0.5880
 7114TIP3    H121299   8.120   3.533   4.436 -0.6994  0.9069  2.7614
 7114TIP3    H221300   7.971   3.541   4.414 -0.3084 -1.2269 -2.0958
 7115TIP3   OH221301   2.489   0.065   0.567 -0.2227 -0.0473 -0.5067
 7115TIP3    H121302   2.527  -0.023   0.558 -2.3021 -1.1356  0.4501
 7115TIP3    H221303   2.564   0.124   0.569  1.2139 -1.4830 -3.7967
 7116TIP3   OH221304   6.797   6.963   1.081  0.5535 -0.1241  0.1314
 7116TIP3    H121305   6.852   7.036   1.107  0.0057  0.5634 -0.6072
 7116TIP3    H221306   6.808   6.956   0.987 -0.7482  0.1429 -0.0608
 7117TIP3   OH221307   6.801   7.312   3.500 -0.0607  0.3490  0.0698
 7117TIP3    H121308   6.736   7.274   3.442  1.6547  2.2039 -3.3848
 7117TIP3    H221309   6.854   7.237   3.529 -1.3870 -0.7156 -0.1922
 7118TIP3   OH221310   5.560   7.352   2.269 -0.5309 -0.1692  0.1856
 7118TIP3    H121311   5.571   7.357   2.174 -3.1393  0.5968 -0.1628
 7118TIP3    H221312   5.622   7.285   2.297  1.9854  1.2242 -1.6964
 7119TIP3   OH221313   4.356   1.458   6.678  0.1693  0.3097 -0.0951
 7119TIP3    H121314   4.314   1.435   6.595  0.7177  0.0477 -0.3069
 7119TIP3    H221315   4.417   1.386   6.694 -1.3760 -0.6854  1.5643
 7120TIP3   OH221316   2.590   5.311   3.351 -0.7366 -0.3087 -0.1238
 7120TIP3    H121317   2.610   5.281   3.262  2.2441 -1.3294  0.7900
 7120TIP3    H221318   2.600   5.406   3.346 -0.9839 -0.3110 -0.9373
 7121TIP3   OH221319   6.609   7.444   1.645  0.1202  0.5708 -0.3389
 7121TIP3    H121320   6.693   7.471   1.608  0.6995 -1.6677 -0.8339
 7121TIP3    H221321   6.545   7.500   1.602  1.3289  2.2814  0.0010
 7122TIP3   OH221322   0.914   7.744   2.566 -0.0605  0.1631  0.2892
 7122TIP3    H121323   0.893   7.721   2.476 -1.5282 -0.7203  0.8212
 7122TIP3    H221324   0.829   7.747   2.610  0.7092 -0.4070  1.8711
 7123TIP3   OH221325   1.698   5.771   3.595  0.3519 -0.3275 -0.7184
 7123TIP3    H121326   1.756   5.813   3.531 -0.5166 -0.9303 -1.9596
 7123TIP3    H221327   1.755   5.714   3.646  1.2384  0.9631 -0.2232
 7124TIP3   OH221328   1.776   0.977   4.733  0.0443 -0.2076 -0.3674
 7124TIP3    H121329   1.782   0.934   4.648 -0.6652 -0.7162 -0.1625
 7124TIP3    H221330   1.700   1.035   4.726 -0.3168 -0.6207  0.0790
 7125TIP3   OH221331   7.887   6.059   5.392 -0.0288 -0.3603 -0.0733
 7125TIP3    H121332   7.855   6.148   5.403  0.2453 -0.1113 -1.2359
 7125TIP3    H221333   7.811   6.009   5.362  0.0777 -0.2935 -0.4514
 7126TIP3   OH221334   5.036   2.804   4.388  0.3730  0.4063 -0.0834
 7126TIP3    H121335   4.941   2.808   4.377  0.2464 -1.7834 -0.2899
 7126TIP3    H221336   5.050   2.813   4.482 -0.2649 -1.3827  0.2325
 7127TIP3   OH221337   1.519   4.617   6.250 -0.1876 -0.4586  0.3642
 7127TIP3    H121338   1.496   4.641   6.160  1.0376  1.3624  0.4773
 7127TIP3    H221339   1.470   4.536   6.267 -2.3984  0.4909 -1.0679
 7128TIP3   OH221340   6.731   7.592   0.877 -0.2029  0.0591 -0.6089
 7128TIP3    H121341   6.788   7.652   0.829  0.7770 -1.0407 -0.8607
 7128TIP3    H221342   6.733   7.511   0.826 -0.5781 -0.5573  0.3332
 7129TIP3   OH221343   1.301   7.619   6.181  0.0548  0.4125  0.0998
 7129TIP3    H121344   1.232   7.649   6.240  0.2084 -0.8229  0.9481
 7129TIP3    H221345   1.375   7.599   6.238 -0.2154 -2.0612 -0.2915
 7130TIP3   OH221346   3.114   4.608   4.946  0.3433 -0.1102  0.3705
 7130TIP3    H121347   3.045   4.637   5.005 -0.2726  0.2054 -0.4794
 7130TIP3    H221348   3.072   4.607   4.860  1.5504  0.5939 -0.2438
 7131TIP3   OH221349   1.778   7.470   4.381  0.1466 -0.0541  0.4091
 7131TIP3    H121350   1.856   7.439   4.334 -0.0822  0.3728 -0.2570
 7131TIP3    H221351   1.704   7.431   4.335 -0.3195  3.1758 -1.9251
 7132TIP3   OH221352   6.883   3.106   0.491  1.0225 -0.4390 -0.1141
 7132TIP3    H121353   6.793   3.120   0.464  1.7524  0.3419 -2.4348
 7132TIP3    H221354   6.877   3.056   0.572 -1.5375  2.4589  1.6899
 7133TIP3   OH221355   4.296   1.324   6.411  0.1697 -0.2923  0.0762
 7133TIP3    H121356   4.388   1.308   6.433 -0.0291 -1.3653  0.1592
 7133TIP3    H221357   4.281   1.271   6.333 -0.1833  0.4835 -0.3966
 7134TIP3   OH221358   2.639   3.328   5.413  0.3454  0.4810  0.1697
 7134TIP3    H121359   2.630   3.308   5.320 -0.6759 -0.2466  0.4203
 7134TIP3    H221360   2.645   3.424   5.416  3.9305  0.4506 -0.9204
 7135TIP3   OH221361   6.490   7.459   5.159  0.3525  0.2614  0.2922
 7135TIP3    H121362   6.396   7.440   5.167  0.8811 -2.6966  0.8856
 7135TIP3    H221363   6.521   7.465   5.250  0.6789  1.7555  0.1013
 7136TIP3   OH221364   0.214   5.736   1.295  0.1500  0.2414 -1.0609
 7136TIP3    H121365   0.251   5.815   1.255 -0.1128  0.7221 -0.3784
 7136TIP3    H221366   0.180   5.766   1.379  0.2328 -0.6468 -0.7025
 7137TIP3   OH221367   7.307   7.592   6.691  0.2010 -0.0447  0.7353
 7137TIP3    H121368   7.228   7.582   6.744 -0.9972  0.9701 -0.7516
 7137TIP3    H221369   7.286   7.663   6.631  2.3786  0.4274  0.4707
 7138TIP3   OH221370   4.937   2.130   3.702 -0.2393  0.2475 -0.0123
 7138TIP3    H121371   4.909   2.046   3.667 -2.2461  0.8725 -0.0066
 7138TIP3    H221372   4.931   2.191   3.629  1.2683  0.4037 -0.0359
 7139TIP3   OH221373   6.208   1.574   0.682  0.0936  0.3047 -0.0359
 7139TIP3    H121374   6.149   1.545   0.612  0.3511  1.4908 -0.7645
 7139TIP3    H221375   6.263   1.640   0.642  1.8683 -0.6687  0.6734
 7140TIP3   OH221376   8.271   7.629   4.406  0.2721 -0.2726 -0.1902
 7140TIP3    H121377   8.343   7.654   4.464  0.2334 -1.7493  0.5241
 7140TIP3    H221378   8.219   7.567   4.457 -0.2613 -0.9370 -1.4982
 7141TIP3   OH221379   4.762   1.569   2.277  0.1004 -0.2485 -0.0983
 7141TIP3    H121380   4.691   1.514   2.243 -0.0236  0.3022 -0.7585
 7141TIP3    H221381   4.735   1.658   2.255  0.3700  0.0767  0.8262
 7142TIP3   OH221382   4.274   1.534   4.855  0.1698  0.2992 -0.3002
 7142TIP3    H121383   4.188   1.522   4.896 -0.2755 -0.2710 -1.3647
 7142TIP3    H221384   4.328   1.464   4.894  0.7840  1.8933  1.9048
 7143TIP3   OH221385   5.030   7.169   5.704  0.0502  0.2869  0.3538
 7143TIP3    H121386   5.083   7.202   5.632  1.3169 -0.2833  0.9908
 7143TIP3    H221387   5.026   7.074   5.689 -0.9569  0.3432  0.2147
 7144TIP3   OH221388   1.865   3.034   2.933  0.6809 -0.0699 -0.4835
 7144TIP3    H121389   1.952   3.073   2.921  1.6707 -2.3657 -1.2155
 7144TIP3    H221390   1.882   2.941   2.949 -1.6758 -0.7307 -1.4078
 7145TIP3   OH221391   6.680   2.950   3.530  0.3004  0.2290 -0.0803
 7145TIP3    H121392   6.684   3.012   3.457  1.5813  0.5513  0.2412
 7145TIP3    H221393   6.590   2.955   3.561  0.5516  2.4971  0.4196
 7146TIP3   OH221394   6.932   3.083   0.217 -0.0252 -0.2316  0.6717
 7146TIP3    H121395   7.024   3.107   0.208  0.4185 -1.2402  2.0272
 7146TIP3    H221396   6.917   3.082   0.312 -1.5066  0.1470  0.4677
 7147TIP3   OH221397   7.553   1.474   1.570  0.5265  0.4359  0.0370
 7147TIP3    H121398   7.596   1.418   1.635  0.0530  0.3971  0.3179
 7147TIP3    H221399   7.481   1.420   1.537 -0.9373  1.4396  1.4561
 7148TIP3   OH221400   3.838   7.288   0.640 -0.6583  0.1017 -0.3735
 7148TIP3    H121401   3.909   7.334   0.685  0.7024 -1.0710 -1.1967
 7148TIP3    H221402   3.809   7.221   0.701  0.3891 -0.7334 -0.7436
 7149TIP3   OH221403   2.115   7.480   1.454 -0.3548 -0.3501  0.1532
 7149TIP3    H121404   2.059   7.412   1.492 -1.1495  0.5790  0.6881
 7149TIP3    H221405   2.110   7.553   1.516  1.1368 -0.0920 -0.0003
 7150TIP3   OH221406   0.344   1.046   4.840 -0.2340  0.4560  0.3361
 7150TIP3    H121407   0.363   1.137   4.859 -0.3112  0.0802  2.4174
 7150TIP3    H221408   0.256   1.032   4.875 -0.1742 -0.4638  0.1483
 7151TIP3   OH221409   7.109   0.992   6.405 -0.3187 -0.1987  0.4322
 7151TIP3    H121410   7.089   0.902   6.378 -1.6121 -0.2542  1.4726
 7151TIP3    H221411   7.196   1.009   6.368  1.1352 -2.7836  2.3132
 7152TIP3   OH221412   4.685   7.030   2.912  0.5456 -0.0636  0.1583
 7152TIP3    H121413   4.627   7.066   2.845  1.1260 -1.4985 -1.1733
 7152TIP3    H221414   4.632   7.029   2.992 -1.3057 -1.3870 -1.0211
 7153TIP3   OH221415   7.961   3.352   0.376 -0.0267 -0.0561  0.0506
 7153TIP3    H121416   7.998   3.292   0.441 -0.8533 -0.5545  0.0753
 7153TIP3    H221417   7.927   3.425   0.428  1.0713  0.5000  0.0129
 7154TIP3   OH221418   4.766   7.306   4.491 -0.3435  0.2294  0.1920
 7154TIP3    H121419   4.738   7.368   4.559 -0.4410  0.1991  0.1792
 7154TIP3    H221420   4.795   7.229   4.540 -0.6413  0.1140  0.1924
 7155TIP3   OH221421   6.497   2.158   2.306  0.6953  0.5117 -0.1491
 7155TIP3    H121422   6.478   2.201   2.222 -0.3348  1.1321  0.3849
 7155TIP3    H221423   6.552   2.220   2.353  0.2396  0.7174  0.1225
 7156TIP3   OH221424   3.816   7.570   6.528  0.5306 -0.5804  0.4421
 7156TIP3    H121425   3.838   7.547   6.619 -0.8715 -1.0210  0.7044
 7156TIP3    H221426   3.898   7.598   6.489  1.2891 -1.0461  1.6612
 7157TIP3   OH221427   5.741   5.432   2.637 -0.0074 -0.0051  0.1312
 7157TIP3    H121428   5.773   5.503   2.581 -0.0763  1.0668  1.3971
 7157TIP3    H221429   5.651   5.458   2.659  0.1839 -0.1613  1.1242
 7158TIP3   OH221430   3.340   7.131   1.955  0.1910 -0.6463 -0.0150
 7158TIP3    H121431   3.315   7.043   1.982  3.5760 -1.4927  0.7740
 7158TIP3    H221432   3.339   7.182   2.036 -0.7411 -0.1967 -0.2970
 7159TIP3   OH221433   2.059   2.230   2.130  0.2677 -0.2145  0.5898
 7159TIP3    H121434   2.076   2.202   2.220  1.6353 -1.1403  0.0811
 7159TIP3    H221435   1.996   2.167   2.097  1.8822 -1.6249  0.0567
 7160TIP3   OH221436   4.198   3.408   2.057  0.2390  0.2291 -0.0649
 7160TIP3    H121437   4.106   3.426   2.076  0.3522  1.0818 -0.2857
 7160TIP3    H221438   4.197   3.327   2.007 -0.4601  0.6073 -0.6808
 7161TIP3   OH221439   8.095   1.137   6.192  0.2192 -0.1982  0.3643
 7161TIP3    H121440   8.114   1.136   6.098  0.2087 -0.0467  0.3606
 7161TIP3    H221441   8.165   1.189   6.230  0.7790 -1.0740  0.5625
 7162TIP3   OH221442   5.536   1.049   2.984 -0.4169  0.5379 -0.2984
 7162TIP3    H121443   5.574   1.044   3.072 -1.6025  2.3435  0.3768
 7162TIP3    H221444   5.447   1.016   2.995 -0.2103 -0.3296 -1.1029
 7163TIP3   OH221445   4.214   5.636   2.937 -0.3363 -0.2787 -0.1011
 7163TIP3    H121446   4.286   5.683   2.979  1.3170 -1.6804 -1.1808
 7163TIP3    H221447   4.241   5.629   2.845 -1.1186 -2.1485 -0.2312
 7164TIP3   OH221448   3.315   3.881   3.378  0.3383  0.1680  0.6458
 7164TIP3    H121449   3.310   3.962   3.327  1.0152  0.7813  1.5062
 7164TIP3    H221450   3.233   3.878   3.428  0.5023  0.5681  0.9461
 7165TIP3   OH221451   7.964   2.749   2.999  0.0813  0.0799  0.2067
 7165TIP3    H121452   7.870   2.755   2.979  0.4884  2.5347 -1.4812
 7165TIP3    H221453   7.999   2.689   2.934  0.2280  2.4261 -2.0790
 7166TIP3   OH221454   6.258   6.161   0.032  0.2975 -0.2811 -0.0818
 7166TIP3    H121455   6.218   6.113  -0.041 -1.3246  0.0404  0.5429
 7166TIP3    H221456   6.320   6.099   0.070  1.9819 -0.0885 -2.3343
 7167TIP3   OH221457   3.873   4.867   1.809  0.9536  0.4281 -0.2484
 7167TIP3    H121458   3.881   4.843   1.902 -1.6568 -0.0578 -0.0630
 7167TIP3    H221459   3.849   4.959   1.810  0.8872  0.4129 -0.4107
 7168TIP3   OH221460   5.678   5.279   5.463 -0.0358 -0.1960  0.3423
 7168TIP3    H121461   5.732   5.216   5.415  2.5709  1.2038  1.2357
 7168TIP3    H221462   5.620   5.316   5.397  0.3849 -1.4288 -0.7812
 7169TIP3   OH221463   7.209   3.393   1.279 -0.1805  0.0095 -0.2414
 7169TIP3    H121464   7.261   3.420   1.203  0.5615  0.0771  0.2832
 7169TIP3    H221465   7.243   3.307   1.302 -2.7144 -1.6220 -2.0649
 7170TIP3   OH221466   0.139   7.348   5.547 -0.0103 -0.4136 -0.0371
 7170TIP3    H121467   0.138   7.253   5.551 -1.3756 -0.3892  0.9710
 7170TIP3    H221468   0.117   7.369   5.456  0.1465 -1.0528 -0.2251
 7171TIP3   OH221469   3.371   4.323   5.704  0.0998 -0.0504 -0.1584
 7171TIP3    H121470   3.360   4.415   5.680  1.0650  0.1279  0.0439
 7171TIP3    H221471   3.429   4.324   5.780 -1.4587 -0.7210  1.1073
 7172TIP3   OH221472   7.159   6.174   1.469  0.5578 -0.4014 -0.0119
 7172TIP3    H121473   7.118   6.206   1.549  0.1814 -0.8733 -0.0100
 7172TIP3    H221474   7.180   6.253   1.419  0.8149 -0.1044  0.5588
 7173TIP3   OH221475   2.702   0.290   5.327 -0.2562  0.0794  0.2673
 7173TIP3    H121476   2.769   0.337   5.276 -1.1768  1.1617  0.0229
 7173TIP3    H221477   2.672   0.354   5.392 -0.6486 -0.5894  0.7518
 7174TIP3   OH221478   3.743   1.528   2.846 -0.3109 -0.1131 -0.5496
 7174TIP3    H121479   3.783   1.462   2.903  0.3750 -1.5530 -2.5785
 7174TIP3    H221480   3.653   1.535   2.878 -0.1820 -1.4980  0.2070
 7175TIP3   OH221481   7.998   0.627   0.865  0.3857  0.5200 -0.1165
 7175TIP3    H121482   8.002   0.646   0.772 -0.7520  0.2235 -0.2437
 7175TIP3    H221483   7.904   0.631   0.887  0.3898 -1.4775  0.5539
 7176TIP3   OH221484   1.767   1.963   4.738 -0.3011 -0.0127 -0.2612
 7176TIP3    H121485   1.741   1.875   4.767  1.3742 -0.4170  0.1000
 7176TIP3    H221486   1.852   1.978   4.779  1.3717  0.1357 -3.4826
 7177TIP3   OH221487   5.127   2.883   4.623  0.0582 -0.7880 -0.1644
 7177TIP3    H121488   5.214   2.849   4.643 -0.0397 -0.3990  0.9961
 7177TIP3    H221489   5.135   2.978   4.635 -0.1722 -0.5859 -1.4517
 7178TIP3   OH221490   2.438   5.930   5.892  0.0238  0.1685 -0.4938
 7178TIP3    H121491   2.443   5.879   5.973  2.6301 -1.1987 -1.4009
 7178TIP3    H221492   2.346   5.929   5.868 -0.3535 -2.1025  0.7916
 7179TIP3   OH221493   4.362   2.344   4.716 -0.2200 -0.5589 -0.5801
 7179TIP3    H121494   4.308   2.420   4.694  0.7194  0.5944  0.8998
 7179TIP3    H221495   4.412   2.326   4.637  0.2129  0.9731 -0.6799
 7180TIP3   OH221496   6.101   2.016   3.842  0.2092 -0.0011 -0.2243
 7180TIP3    H121497   6.078   2.089   3.900 -0.1624 -0.0636 -0.2926
 7180TIP3    H221498   6.148   1.955   3.899 -0.4212 -0.2027  0.0908
 7181TIP3   OH221499   3.169   1.922   0.115 -0.5333 -0.0222  0.2458
 7181TIP3    H121500   3.178   1.919   0.020 -2.7784 -3.2972 -0.0371
 7181TIP3    H221501   3.076   1.942   0.130 -0.6699 -1.4410  1.6269
 7182TIP3   OH221502   0.864   2.371   3.056  0.7534 -0.2508 -0.0174
 7182TIP3    H121503   0.927   2.437   3.087  1.5956 -1.3071  0.6127
 7182TIP3    H221504   0.916   2.291   3.049 -0.1901 -0.7879 -1.0268
 7183TIP3   OH221505   3.891   4.696   5.972 -0.1472 -0.4086 -0.3331
 7183TIP3    H121506   3.941   4.667   6.048 -0.8272 -0.6466  0.0194
 7183TIP3    H221507   3.948   4.674   5.897  1.5778  1.8908  0.1620
 7184TIP3   OH221508   7.919   4.526   1.534  1.7647 -0.4072  0.2356
 7184TIP3    H121509   8.007   4.548   1.503  1.3192  1.1545 -0.0076
 7184TIP3    H221510   7.918   4.557   1.625  1.0546  0.8685 -0.1764
 7185TIP3   OH221511   2.223   3.690   3.790  0.5746 -0.4339  0.0756
 7185TIP3    H121512   2.251   3.758   3.729 -0.0767 -0.8087 -0.6567
 7185TIP3    H221513   2.254   3.608   3.751  1.2226 -0.5826  0.8733
 7186TIP3   OH221514   6.694   1.337   1.251 -0.4339  0.0305 -0.6543
 7186TIP3    H121515   6.768   1.396   1.238 -0.0575  0.1247  1.5843
 7186TIP3    H221516   6.733   1.250   1.252 -0.0745  0.1443  1.7552
 7187TIP3   OH221517   4.801   2.179   1.609 -0.5379 -0.3456 -0.6582
 7187TIP3    H121518   4.876   2.154   1.554 -0.4271  0.2261 -0.7820
 7187TIP3    H221519   4.789   2.272   1.590  0.4756  0.2735  1.3971
 7188TIP3   OH221520   4.677   1.150   1.321 -0.1811 -0.2747 -0.4821
 7188TIP3    H121521   4.672   1.132   1.227 -0.6290 -0.9276 -0.3428
 7188TIP3    H221522   4.722   1.074   1.358 -0.3607 -0.2072 -0.1191
 7189TIP3   OH221523   7.810   1.035   0.247 -0.8224  0.1667 -0.1944
 7189TIP3    H121524   7.734   1.006   0.196 -0.0272 -0.8146 -0.8502
 7189TIP3    H221525   7.787   1.013   0.338 -0.5375 -1.9825 -0.5867
 7190TIP3   OH221526   3.407   1.026   2.731  0.0785  1.0841 -0.2428
 7190TIP3    H121527   3.324   0.991   2.696  0.4124  1.5106 -1.5350
 7190TIP3    H221528   3.381   1.076   2.808 -0.7118  0.1598  0.1173
 7191TIP3   OH221529   8.294   2.065   4.603  0.2861  0.7776  0.0853
 7191TIP3    H121530   8.263   1.974   4.605  2.2157  0.0847  1.6057
 7191TIP3    H221531   8.281   2.096   4.693  2.7102  0.8591  0.4602
 7192TIP3   OH221532   1.579   7.334   0.488  0.5904  0.1469  0.1481
 7192TIP3    H121533   1.617   7.286   0.414  0.2432 -0.1323  0.1515
 7192TIP3    H221534   1.529   7.268   0.537 -0.5965  0.6852 -0.3140
 7193TIP3   OH221535   5.657   7.512   0.827 -0.2006  0.5692  0.0749
 7193TIP3    H121536   5.719   7.545   0.892 -0.9968  0.6734  0.7927
 7193TIP3    H221537   5.646   7.420   0.849 -0.9992  0.7625  0.5343
 7194TIP3   OH221538   6.594   5.522   6.541 -0.1102 -0.0051  0.3776
 7194TIP3    H121539   6.681   5.531   6.580 -0.4071 -0.1301  1.0786
 7194TIP3    H221540   6.544   5.470   6.604 -0.9075  0.6764  0.3278
 7195TIP3   OH221541   1.013   5.498   0.982 -0.0076 -0.2505  0.5508
 7195TIP3    H121542   0.939   5.492   0.921  0.2010 -1.0841  0.3645
 7195TIP3    H221543   1.062   5.574   0.953  0.6710 -1.2362 -1.0012
 7196TIP3   OH221544   4.444   6.883   4.725 -0.3249 -0.3813  0.0493
 7196TIP3    H121545   4.535   6.910   4.738 -0.4659 -0.4153  1.2309
 7196TIP3    H221546   4.442   6.793   4.757 -1.0406  0.0344  1.2314
 7197TIP3   OH221547   0.395   6.469   4.753 -0.6199 -0.1268 -0.3226
 7197TIP3    H121548   0.441   6.394   4.715 -2.2132 -1.1821 -0.2580
 7197TIP3    H221549   0.454   6.502   4.820  1.0800  0.1074 -1.8553
 7198TIP3   OH221550   7.775   3.304   2.131  0.3809 -0.1122 -0.2474
 7198TIP3    H121551   7.834   3.343   2.066  1.3455 -0.9968  0.0671
 7198TIP3    H221552   7.687   3.320   2.096  0.7940  1.1689 -0.7605
 7199TIP3   OH221553   3.197   2.648   5.454  0.4106  0.1271  0.2743
 7199TIP3    H121554   3.133   2.676   5.388  0.6538  0.3534  0.1342
 7199TIP3    H221555   3.170   2.694   5.534  0.6017  0.4970  0.1299
 7200TIP3   OH221556   5.249   2.892   0.995  0.3670  0.5137 -0.3723
 7200TIP3    H121557   5.298   2.973   1.007  0.3011  0.5477 -0.3383
 7200TIP3    H221558   5.221   2.893   0.903 -1.6501  1.6385  0.2148
 7201TIP3   OH221559   3.656   2.908   4.164 -0.7552 -0.0197  0.3187
 7201TIP3    H121560   3.734   2.895   4.110 -0.8751 -1.4306  0.4513
 7201TIP3    H221561   3.599   2.834   4.144 -0.9264 -0.4426  2.1593
 7202TIP3   OH221562   3.871   0.801   3.155  0.0345 -0.2692 -0.2370
 7202TIP3    H121563   3.783   0.833   3.140  0.1789  0.7818  1.0194
 7202TIP3    H221564   3.869   0.710   3.125 -1.3473 -0.1314 -0.6112
 7203TIP3   OH221565   3.012   2.657   1.153 -0.1932 -0.7334  0.1218
 7203TIP3    H121566   2.957   2.661   1.075 -2.1866 -0.2244  1.4560
 7203TIP3    H221567   3.044   2.568   1.156  0.8283 -0.4691 -1.8342
 7204TIP3   OH221568   2.884   2.779   3.591  0.3271 -0.3371  0.2689
 7204TIP3    H121569   2.925   2.725   3.660 -0.2542  1.2675  1.9495
 7204TIP3    H221570   2.891   2.869   3.624 -2.1498  0.2596 -0.6330
 7205TIP3   OH221571   5.662   2.270   5.438  0.6572  0.2547 -0.0072
 7205TIP3    H121572   5.677   2.354   5.394  1.9192  0.5593  0.9461
 7205TIP3    H221573   5.716   2.208   5.389  1.1924  0.3796  0.4110
 7206TIP3   OH221574   6.148   1.939   1.328  0.7730  0.2243  0.4719
 7206TIP3    H121575   6.166   1.958   1.420  1.3688 -0.2939  0.4645
 7206TIP3    H221576   6.091   2.011   1.300 -2.0503 -1.1785  2.0612
 7207TIP3   OH221577   0.427   6.691   2.520  0.0679 -0.2041 -0.6543
 7207TIP3    H121578   0.399   6.618   2.575 -1.2338 -0.4018 -1.5179
 7207TIP3    H221579   0.375   6.765   2.550  0.5031  0.0775 -0.5863
 7208TIP3   OH221580   1.573   0.550   1.129  0.1424  0.5112  0.0968
 7208TIP3    H121581   1.610   0.605   1.060  2.2306 -1.6330 -0.6305
 7208TIP3    H221582   1.539   0.474   1.083  0.4828 -0.4024  1.3079
 7209TIP3   OH221583   0.571   2.099   4.713 -0.0557 -0.3478  0.0606
 7209TIP3    H121584   0.538   2.138   4.793  1.1614 -0.2482  0.5304
 7209TIP3    H221585   0.492   2.069   4.667 -0.7078 -1.8562  2.0221
 7210TIP3   OH221586   1.040   6.086   1.143 -0.1118  0.4971  0.0194
 7210TIP3    H121587   0.993   6.155   1.097 -0.0674  0.3972 -0.1803
 7210TIP3    H221588   0.996   6.078   1.228 -0.8987 -0.0735 -0.4319
 7211TIP3   OH221589   4.871   1.890   0.424  0.0156 -0.2776  0.3548
 7211TIP3    H121590   4.920   1.852   0.351  0.3618  0.0996  0.3819
 7211TIP3    H221591   4.808   1.823   0.449  1.0779 -1.1177  0.8755
 7212TIP3   OH221592   3.392   1.898   1.198 -0.5102  0.4499  0.5242
 7212TIP3    H121593   3.335   1.975   1.193 -0.7094  0.2324 -1.3286
 7212TIP3    H221594   3.466   1.926   1.251 -0.0485  2.3037 -0.9788
 7213TIP3   OH221595   2.896   2.282   3.963  0.6686  0.0119 -0.2041
 7213TIP3    H121596   2.862   2.346   3.900 -0.4839  0.7769  1.1340
 7213TIP3    H221597   2.906   2.332   4.044  1.0977 -1.1921  0.5047
 7214TIP3   OH221598   4.004   0.662   4.618 -0.3110 -0.3182  0.2686
 7214TIP3    H121599   3.980   0.630   4.531  0.2284  0.4225 -0.1646
 7214TIP3    H221600   4.025   0.754   4.604  0.1839 -0.2979  1.1173
 7215TIP3   OH221601   4.785   1.726   5.223 -0.4720 -0.1219 -0.4610
 7215TIP3    H121602   4.773   1.821   5.231 -1.3540 -0.2131 -0.5734
 7215TIP3    H221603   4.774   1.693   5.312 -1.1544 -0.2117 -0.5727
 7216TIP3   OH221604   1.725   3.838   1.181  0.4062 -0.2153  0.4389
 7216TIP3    H121605   1.642   3.878   1.207  0.4997 -0.1579  0.6528
 7216TIP3    H221606   1.772   3.907   1.135 -0.4780 -0.8074 -1.4682
 7217TIP3   OH221607   4.249   2.553   3.374  0.1401  0.7126 -0.3127
 7217TIP3    H121608   4.307   2.627   3.392  1.8601 -0.2472 -1.6234
 7217TIP3    H221609   4.188   2.552   3.447  1.2764  2.2618  0.7123
 7218TIP3   OH221610   5.087   4.273   1.839 -0.2927 -0.7572 -0.0480
 7218TIP3    H121611   5.129   4.228   1.912 -0.3265 -0.6525  0.0374
 7218TIP3    H221612   5.034   4.342   1.881 -0.0668 -0.4976 -0.1873
 7219TIP3   OH221613   5.677   1.549   2.282  0.4462 -0.3510  0.2684
 7219TIP3    H121614   5.693   1.511   2.196 -1.0927  0.3575 -0.3549
 7219TIP3    H221615   5.633   1.632   2.265  2.3168  1.0389  1.6572
 7220TIP3   OH221616   6.922   5.417   3.813  0.3350  0.2130  0.1752
 7220TIP3    H121617   6.983   5.351   3.847 -1.3673 -1.4857  0.0435
 7220TIP3    H221618   6.875   5.448   3.890 -1.2255 -1.2510 -0.1314
 7221TIP3   OH221619   3.923   5.279   2.347 -0.1042  0.1048  0.2624
 7221TIP3    H121620   3.960   5.328   2.420 -2.3263  1.2914  0.6747
 7221TIP3    H221621   3.879   5.205   2.388  0.6283 -0.5471 -0.1039
 7222TIP3   OH221622   7.092   7.569   4.685 -0.6128  0.1394  0.0262
 7222TIP3    H121623   7.047   7.496   4.642  0.4413 -0.7337  0.3651
 7222TIP3    H221624   7.074   7.558   4.778  2.7281 -2.0484  0.5441
 7223TIP3   OH221625   1.181   4.382   3.582  0.0220  0.6854  0.3920
 7223TIP3    H121626   1.209   4.307   3.529 -1.0099  0.2334  0.4745
 7223TIP3    H221627   1.110   4.422   3.531 -1.1987  0.0623  1.5539
 7224TIP3   OH221628   2.365   4.598   4.001 -0.3738 -0.1199  0.2094
 7224TIP3    H121629   2.441   4.643   3.964  0.0319 -1.7862 -1.1136
 7224TIP3    H221630   2.365   4.625   4.093 -0.0458  2.3394 -0.4242
 7225TIP3   OH221631   1.182   0.642   4.580 -0.1216  0.3527  0.3913
 7225TIP3    H121632   1.138   0.628   4.664 -0.4234 -2.2161 -0.1200
 7225TIP3    H221633   1.259   0.585   4.584 -0.5165 -0.3458 -1.3219
 7226TIP3   OH221634   7.817   1.084   3.727 -0.1391  0.7034 -0.7474
 7226TIP3    H121635   7.849   1.071   3.817  0.4242  0.5188 -0.9706
 7226TIP3    H221636   7.747   1.021   3.717 -0.8004  1.3202 -0.1441
 7227TIP3   OH221637   4.666   0.116   4.218  0.1575  0.4309 -0.1603
 7227TIP3    H121638   4.719   0.051   4.263  0.2101  1.1021  0.7701
 7227TIP3    H221639   4.601   0.065   4.170 -0.2639 -0.2994  1.1355
 7228TIP3   OH221640   3.654   1.826   3.048  0.2865 -0.1878 -0.4784
 7228TIP3    H121641   3.561   1.822   3.026  0.3643  0.3568 -0.9477
 7228TIP3    H221642   3.694   1.872   2.974  0.8073  0.2980  0.0950
 7229TIP3   OH221643   5.567   3.794   2.020  0.1359 -0.0845  0.3422
 7229TIP3    H121644   5.585   3.802   2.114  0.7064  1.5990  0.1318
 7229TIP3    H221645   5.480   3.755   2.015  0.7817 -1.7679  1.5274
 7230TIP3   OH221646   1.221   1.405   1.246 -0.4391  0.7069  0.1551
 7230TIP3    H121647   1.219   1.486   1.296 -0.0372  0.6434  0.2764
 7230TIP3    H221648   1.275   1.425   1.169 -0.2337  0.5182  0.2501
 7231TIP3   OH221649   0.133   4.700   5.485 -0.2065  0.0712  0.4782
 7231TIP3    H121650   0.171   4.728   5.401 -1.4948  0.5714  0.0270
 7231TIP3    H221651   0.141   4.777   5.541  0.1963 -0.0977  0.6546
 7232TIP3   OH221652   8.227   5.957   0.563  0.0087  0.3853  0.6010
 7232TIP3    H121653   8.236   5.866   0.534 -1.8152  0.1538  0.6337
 7232TIP3    H221654   8.292   6.005   0.511  0.3969 -0.8071 -0.0552
 7233TIP3   OH221655   5.831   4.812   3.142  0.5256  0.3266  0.0859
 7233TIP3    H121656   5.738   4.828   3.130  0.9091  2.2136 -0.7481
 7233TIP3    H221657   5.859   4.876   3.208  1.4669  0.8013 -0.7324
 7234TIP3   OH221658   4.051   7.811   4.374 -0.2279 -0.5601  0.2127
 7234TIP3    H121659   4.144   7.832   4.371 -0.3846  0.2825  0.8716
 7234TIP3    H221660   4.045   7.739   4.437 -0.0825 -0.2231  0.6179
 7235TIP3   OH221661   7.488   3.695   5.539  0.3622  0.0148 -0.0113
 7235TIP3    H121662   7.539   3.770   5.510  2.1088 -1.4196 -0.8233
 7235TIP3    H221663   7.467   3.715   5.630  1.4135  1.1744  0.0113
 7236TIP3   OH221664   3.600   3.981   4.782 -0.1865 -0.0860  0.1139
 7236TIP3    H121665   3.625   4.060   4.734 -1.2771 -0.9345 -2.0025
 7236TIP3    H221666   3.574   4.012   4.869 -0.4049  1.8487 -0.5997
 7237TIP3   OH221667   1.238   3.999   5.491 -0.2782 -0.2616  0.3773
 7237TIP3    H121668   1.185   3.972   5.417 -1.2882 -2.0642  1.6930
 7237TIP3    H221669   1.276   3.918   5.525 -1.4171  0.1910  2.9721
 7238TIP3   OH221670   2.256   5.578   4.584  0.1097 -0.6390 -0.5152
 7238TIP3    H121671   2.252   5.576   4.488  1.2733 -2.5335 -0.5896
 7238TIP3    H221672   2.336   5.626   4.604  0.3613 -1.0308 -0.5533
 7239TIP3   OH221673   4.287   2.383   1.728 -1.0100 -0.1622  0.3695
 7239TIP3    H121674   4.254   2.315   1.669 -0.5278 -1.9863  2.0695
 7239TIP3    H221675   4.214   2.401   1.787 -2.0605  2.8524 -1.6219
 7240TIP3   OH221676   1.239   3.110   4.715  0.2952 -0.0512 -0.2053
 7240TIP3    H121677   1.251   3.115   4.809  0.5831  2.0595 -0.3104
 7240TIP3    H221678   1.145   3.122   4.702  0.3820  0.6132 -0.2295
 7241TIP3   OH221679   4.821   3.111   1.491 -0.0717 -0.3287 -0.1737
 7241TIP3    H121680   4.802   3.169   1.565  0.6502  0.3726 -0.5209
 7241TIP3    H221681   4.886   3.050   1.523  1.1404  0.7210 -0.5392
 7242TIP3   OH221682   6.781   3.662   3.289 -0.3329  0.2225 -0.0078
 7242TIP3    H121683   6.810   3.591   3.346  0.2031  0.9528  0.6524
 7242TIP3    H221684   6.776   3.623   3.202 -1.6842 -1.0611  0.5993
 7243TIP3   OH221685   2.118   2.855   0.528 -0.4604  0.2117  0.1945
 7243TIP3    H121686   2.085   2.944   0.541 -0.8721 -0.1415  1.7117
 7243TIP3    H221687   2.047   2.798   0.558 -0.8499 -0.7133 -2.2421
 7244TIP3   OH221688   7.315   2.089   1.591 -0.2567  0.1622  0.5908
 7244TIP3    H121689   7.389   2.134   1.631  1.5043 -1.8699 -0.2275
 7244TIP3    H221690   7.268   2.049   1.665  0.3431  0.2069  0.9998
 7245TIP3   OH221691   3.762   0.194   3.824 -0.3466  0.2062 -0.0947
 7245TIP3    H121692   3.760   0.183   3.729  0.4982  0.7148 -0.1840
 7245TIP3    H221693   3.776   0.288   3.836 -2.7665  0.5312  0.5698
 7246TIP3   OH221694   2.439   2.590   2.153 -0.0604  0.1827 -0.8873
 7246TIP3    H121695   2.359   2.545   2.182  0.5669  0.4535  1.4423
 7246TIP3    H221696   2.480   2.528   2.093 -1.4207 -0.4681 -1.1846
 7247TIP3   OH221697   5.205   1.888   0.778 -0.3144  0.4322 -0.4118
 7247TIP3    H121698   5.294   1.922   0.780 -0.4629  0.8704 -0.9837
 7247TIP3    H221699   5.162   1.936   0.707 -0.0986 -2.0279 -2.3247
 7248TIP3   OH221700   5.196   4.679   1.294  0.5349  0.3501 -0.1273
 7248TIP3    H121701   5.213   4.762   1.340 -3.4636  0.8943  0.7166
 7248TIP3    H221702   5.223   4.612   1.357 -0.1317  1.0786  0.9822
 7249TIP3   OH221703   4.002   5.725   3.149  0.4575  0.3154 -0.0440
 7249TIP3    H121704   3.926   5.764   3.105  0.9732 -0.0748 -1.3314
 7249TIP3    H221705   4.059   5.698   3.077  1.2122 -0.5935  0.8770
 7250TIP3   OH221706   2.006   5.012   5.583 -0.0933  0.0667 -0.1254
 7250TIP3    H121707   2.051   5.036   5.502  0.3376 -0.2548  0.0135
 7250TIP3    H221708   2.024   5.085   5.643 -0.7264  0.4833 -0.4327
 7251TIP3   OH221709   2.739   7.145   2.663  0.5336  0.3893  0.1649
 7251TIP3    H121710   2.696   7.230   2.655  1.1978  0.6640 -0.6763
 7251TIP3    H221711   2.706   7.094   2.589  0.5118  0.0786  0.3855
 7252TIP3   OH221712   5.574   6.697   4.465  0.1847  0.1681 -0.5802
 7252TIP3    H121713   5.549   6.623   4.410 -0.2311 -0.9877  1.1055
 7252TIP3    H221714   5.509   6.698   4.535  1.0899  1.1741  0.2778
 7253TIP3   OH221715   5.107   2.522   4.376 -0.2307  0.9238 -0.0857
 7253TIP3    H121716   5.085   2.613   4.353 -1.1569  0.9583  0.8514
 7253TIP3    H221717   5.197   2.527   4.409  0.4137  1.1765 -1.8060
 7254TIP3   OH221718   4.768   2.884   4.344 -0.0767  0.0468  0.1600
 7254TIP3    H121719   4.735   2.972   4.328  0.0741  0.1797  0.5797
 7254TIP3    H221720   4.690   2.829   4.344 -0.2521  0.2958  0.7155
 7255TIP3   OH221721   3.547   0.956   6.346 -0.0833  0.0475  0.3922
 7255TIP3    H121722   3.498   0.953   6.264 -1.0515 -1.3886  0.9725
 7255TIP3    H221723   3.639   0.950   6.320 -0.3262  0.4319 -0.6073
 7256TIP3   OH221724   7.818   6.750   2.786 -0.0474  0.2764 -0.4049
 7256TIP3    H121725   7.758   6.709   2.725  1.1925 -2.2242 -0.0714
 7256TIP3    H221726   7.788   6.722   2.872  2.5002 -2.6917 -0.2830
 7257TIP3   OH221727   0.852   6.367   1.451  0.5047  0.4096 -0.8187
 7257TIP3    H121728   0.773   6.409   1.416 -0.0413  0.0508 -0.0401
 7257TIP3    H221729   0.923   6.401   1.397 -0.4038 -0.8186 -2.8718
 7258TIP3   OH221730   7.811   7.320   0.723  0.5849  0.3384 -0.0692
 7258TIP3    H121731   7.797   7.403   0.678  0.1644  0.2139 -0.1783
 7258TIP3    H221732   7.890   7.333   0.775  0.6146  0.7512 -0.2162
 7259TIP3   OH221733   6.569   6.960   5.586 -0.3096 -0.0767 -0.2055
 7259TIP3    H121734   6.629   6.993   5.519  0.6624  0.5620  0.9534
 7259TIP3    H221735   6.590   6.867   5.595  1.2969  0.3577  0.9526
 7260TIP3   OH221736   3.877   0.815   2.844  0.1997  0.4032 -0.1851
 7260TIP3    H121737   3.913   0.903   2.834 -0.8370  0.8952  0.1966
 7260TIP3    H221738   3.782   0.827   2.840  0.0487 -0.7860 -0.7710
 7261TIP3   OH221739   4.481   3.859   4.050  0.0801  0.1067 -0.1074
 7261TIP3    H121740   4.475   3.835   4.143  0.1216  0.0591 -0.1171
 7261TIP3    H221741   4.479   3.775   4.004 -0.2010  0.1444 -0.1631
 7262TIP3   OH221742   1.131   5.946   5.239 -0.5977 -0.0769  0.2418
 7262TIP3    H121743   1.209   5.926   5.291 -0.7973 -0.2715  0.4722
 7262TIP3    H221744   1.157   5.927   5.149 -0.3513 -0.0572  0.3062
 7263TIP3   OH221745   0.688   2.231   1.553 -0.0190 -0.5036 -0.1914
 7263TIP3    H121746   0.741   2.235   1.633 -2.3326  0.5894  1.3771
 7263TIP3    H221747   0.612   2.179   1.577 -1.8743  1.7113 -0.9280
 7264TIP3   OH221748   2.081   4.954   1.182  0.3294 -0.3591  0.1663
 7264TIP3    H121749   2.085   4.878   1.239 -2.3373 -0.3867  0.4450
 7264TIP3    H221750   2.141   5.018   1.222 -1.4323 -0.3588  3.1019
 7265TIP3   OH221751   1.828   7.671   4.562  0.1376  0.0090  0.7547
 7265TIP3    H121752   1.743   7.704   4.592 -0.2732 -0.9427  0.6553
 7265TIP3    H221753   1.806   7.601   4.500  0.9920  0.2368  0.1766
 7266TIP3   OH221754   5.311   5.743   1.110  0.4790  0.2354 -0.7935
 7266TIP3    H121755   5.280   5.827   1.145 -0.4539 -0.7798  1.0119
 7266TIP3    H221756   5.233   5.687   1.110  1.6594 -1.6128  1.3055
 7267TIP3   OH221757   5.391   4.242   1.586  0.2984 -0.3360  0.3382
 7267TIP3    H121758   5.309   4.195   1.573  0.0698  0.2973 -0.6721
 7267TIP3    H221759   5.405   4.241   1.680 -0.2934 -1.4133  0.4241
 7268TIP3   OH221760   6.958   3.825   3.027 -0.4788 -0.3273 -0.0318
 7268TIP3    H121761   6.874   3.818   2.981  0.0063 -1.3035 -0.8051
 7268TIP3    H221762   7.015   3.869   2.964 -0.8184  1.8838  1.1072
 7269TIP3   OH221763   0.110   6.309   6.587 -0.0174  0.2429  0.0301
 7269TIP3    H121764   0.133   6.257   6.511 -0.9296 -0.3506  0.1459
 7269TIP3    H221765   0.043   6.258   6.632 -1.3590  1.7726 -0.1647
 7270TIP3   OH221766   6.045   4.980   5.827  0.2070 -0.3302 -0.1898
 7270TIP3    H121767   6.115   4.985   5.761  0.4986 -0.4911  0.1070
 7270TIP3    H221768   5.997   5.062   5.817 -0.5246 -0.8862 -1.4639
 7271TIP3   OH221769   0.951   4.822   4.602  0.0041  0.3296  0.4295
 7271TIP3    H121770   0.980   4.735   4.627 -0.6718 -0.2286 -0.6689
 7271TIP3    H221771   0.972   4.877   4.678  0.4650 -0.7735  1.1206
 7272TIP3   OH221772   1.936   2.568   5.510 -0.1725  0.2142 -0.1464
 7272TIP3    H121773   1.897   2.488   5.544  0.8771 -0.4771 -0.4905
 7272TIP3    H221774   1.966   2.545   5.422 -0.6467  1.2488 -0.5952
 7273TIP3   OH221775   6.916   7.187   2.941  0.1900 -0.1738 -0.0225
 7273TIP3    H121776   6.894   7.139   2.862  0.4056 -0.9912  0.4050
 7273TIP3    H221777   6.872   7.140   3.011 -1.1057  1.3264  0.2071
 7274TIP3   OH221778   3.682   6.082   4.651 -0.3409 -0.0582  0.3277
 7274TIP3    H121779   3.643   6.155   4.698 -0.7351 -0.6268  0.9003
 7274TIP3    H221780   3.718   6.026   4.719 -1.2906 -1.1025 -0.0026
 7275TIP3   OH221781   1.348   2.440   1.345  0.0566 -0.3625 -0.3986
 7275TIP3    H121782   1.317   2.523   1.306 -1.0777 -1.5911 -2.3129
 7275TIP3    H221783   1.278   2.414   1.405  0.6039  0.2432  0.5209
 7276TIP3   OH221784   6.465   2.795   6.340  0.3269 -0.4204 -0.3257
 7276TIP3    H121785   6.405   2.764   6.272  0.3237 -0.3956 -0.3341
 7276TIP3    H221786   6.467   2.890   6.329  0.3520 -0.4193 -0.3120
 7277TIP3   OH221787   6.329   6.930   5.999  0.1477 -0.4057 -0.2755
 7277TIP3    H121788   6.339   7.013   5.952  1.6940  0.3404  1.2690
 7277TIP3    H221789   6.414   6.887   5.991 -0.1343 -1.1053  0.2914
 7278TIP3   OH221790   7.790   4.235   5.142 -0.4492  0.0916  0.0806
 7278TIP3    H121791   7.861   4.185   5.101 -0.3820 -0.9461  1.3878
 7278TIP3    H221792   7.710   4.190   5.114 -0.5687  0.8322 -0.8168
 7279TIP3   OH221793   2.229   1.568   3.005  0.0356 -0.5981 -0.4220
 7279TIP3    H121794   2.152   1.535   2.959  0.8385 -4.2562  0.4661
 7279TIP3    H221795   2.272   1.626   2.942 -1.5300 -1.4142 -2.3552
 7280TIP3   OH221796   1.493   0.917   4.590  0.4035 -0.2422  0.6702
 7280TIP3    H121797   1.397   0.923   4.589  0.4597  0.8927  0.0174
 7280TIP3    H221798   1.523   1.006   4.609  1.3270 -0.4517  0.2743
 7281TIP3   OH221799   6.169   1.242   0.704  0.0819  0.0519 -0.3606
 7281TIP3    H121800   6.151   1.277   0.617 -0.7333  2.3610  0.6476
 7281TIP3    H221801   6.221   1.163   0.688 -1.5278 -0.6045 -2.9732
 7282TIP3   OH221802   3.733   6.596   3.662 -0.0381  0.3121 -0.2012
 7282TIP3    H121803   3.703   6.631   3.578  0.5282  0.1437 -0.4769
 7282TIP3    H221804   3.653   6.567   3.705 -0.3832  0.8224 -0.4869
 7283TIP3   OH221805   4.015   4.052   4.527  0.0211  0.3439 -0.0367
 7283TIP3    H121806   4.078   4.013   4.466  0.4687 -0.8076  1.1132
 7283TIP3    H221807   4.004   3.986   4.595  0.0702  1.8621  1.5128
 7284TIP3   OH221808   7.513   2.364   6.265  0.0766 -0.2007  0.0010
 7284TIP3    H121809   7.544   2.445   6.224  0.5204  0.2887  1.2703
 7284TIP3    H221810   7.592   2.314   6.285 -0.2156 -1.2205 -1.2611
 7285TIP3   OH221811   8.073   7.569   2.595 -0.3476 -0.2331  0.2954
 7285TIP3    H121812   8.051   7.507   2.664 -0.8561 -0.7600 -0.3197
 7285TIP3    H221813   8.002   7.633   2.598  0.1646  0.3172  0.9153
 7286TIP3   OH221814   5.301   4.214   5.803 -0.1162 -0.4913 -0.0677
 7286TIP3    H121815   5.375   4.275   5.811 -0.2346 -0.4666  0.9329
 7286TIP3    H221816   5.224   4.271   5.794 -0.1639 -0.4941  0.3028
 7287TIP3   OH221817   2.420   1.835   5.603  0.1918  0.3466  0.1845
 7287TIP3    H121818   2.421   1.786   5.685 -1.7798 -0.6677 -0.3251
 7287TIP3    H221819   2.389   1.922   5.628 -2.3547 -0.5249  0.3316
 7288TIP3   OH221820   1.899   6.351   3.072 -0.5171  0.4275  0.0458
 7288TIP3    H121821   1.905   6.364   3.167  1.3707 -1.5199  0.2729
 7288TIP3    H221822   1.857   6.265   3.062  0.8727 -0.1852 -0.7872
 7289TIP3   OH221823   0.304   5.426   4.667 -0.7174 -0.3395  0.1734
 7289TIP3    H121824   0.379   5.367   4.678 -0.6954 -0.5351 -0.8704
 7289TIP3    H221825   0.340   5.514   4.683  0.7203  0.0029 -3.7977
 7290TIP3   OH221826   3.295   0.099   6.255 -0.0572  0.1383  0.0704
 7290TIP3    H121827   3.345   0.178   6.276  1.1727 -0.6295  0.1026
 7290TIP3    H221828   3.358   0.041   6.213 -0.6475 -1.3063  1.1132
 7291TIP3   OH221829   4.472   0.745   2.248 -0.3333 -0.6543  0.1955
 7291TIP3    H121830   4.438   0.717   2.163 -0.4836  1.3479 -0.4601
 7291TIP3    H221831   4.403   0.721   2.310 -0.6687 -1.2475 -0.3894
 7292TIP3   OH221832   5.570   6.939   4.298 -0.1840  0.0106 -0.2861
 7292TIP3    H121833   5.587   6.896   4.215  0.8272 -0.2747  0.0542
 7292TIP3    H221834   5.614   6.884   4.363  1.4958  1.7340  0.1194
 7293TIP3   OH221835   3.932   4.037   3.638  0.2397 -0.7525 -0.8967
 7293TIP3    H121836   3.991   4.090   3.585 -0.8320  1.3562 -0.0681
 7293TIP3    H221837   3.861   4.096   3.662 -1.2008 -2.6640 -0.1897
 7294TIP3   OH221838   4.787   0.532   5.281  0.1026  0.6432  0.0379
 7294TIP3    H121839   4.783   0.568   5.369 -2.0040  1.5340 -0.3554
 7294TIP3    H221840   4.745   0.446   5.289  1.2233  0.0892  0.1509
 7295TIP3   OH221841   5.349   1.024   1.717 -0.3232  0.3576 -0.1207
 7295TIP3    H121842   5.306   1.003   1.799  0.9062 -0.5683  0.3191
 7295TIP3    H221843   5.400   0.946   1.696 -1.4686  0.1094 -2.3560
 7296TIP3   OH221844   6.320   0.115   1.966  1.0315  0.4725  0.2715
 7296TIP3    H121845   6.368   0.032   1.970 -0.9578 -0.8448 -1.3844
 7296TIP3    H221846   6.254   0.109   2.035  0.0824  0.0849 -0.6367
 7297TIP3   OH221847   5.437   1.710   5.692  0.1439 -0.3319 -0.2365
 7297TIP3    H121848   5.393   1.787   5.655  0.2521 -1.1882 -2.3353
 7297TIP3    H221849   5.365   1.655   5.724 -0.0622 -0.0803 -0.2647
 7298TIP3   OH221850   6.704   7.247   1.027  0.1481 -0.4248 -0.0350
 7298TIP3    H121851   6.730   7.269   0.938 -0.1790 -0.9790 -0.2648
 7298TIP3    H221852   6.613   7.219   1.021 -0.4254  1.0969  0.7131
 7299TIP3   OH221853   3.083   5.454   6.190  0.2026  0.0119 -0.2542
 7299TIP3    H121854   3.046   5.368   6.171  0.6383 -0.3539  0.5160
 7299TIP3    H221855   3.065   5.506   6.111 -0.7628 -0.5451 -0.4104
 7300TIP3   OH221856   2.084   2.737   4.327  0.2145 -0.4444  0.0757
 7300TIP3    H121857   2.146   2.674   4.290  0.1820 -1.3009  1.3909
 7300TIP3    H221858   2.069   2.705   4.417  0.7499  1.8649  1.0470
 7301TIP3   OH221859   1.582   1.305   6.104  0.5145 -0.7999  0.0251
 7301TIP3    H121860   1.583   1.360   6.182  0.4931  1.3469 -1.3914
 7301TIP3    H221861   1.674   1.292   6.082  0.5908  1.2904 -1.2645
 7302TIP3   OH221862   6.309   6.729   1.144  0.3217  0.0942  0.0998
 7302TIP3    H121863   6.255   6.770   1.077  1.1796  2.8815  0.9836
 7302TIP3    H221864   6.397   6.761   1.126  1.1811 -1.9149  0.5123
 7303TIP3   OH221865   0.245   2.165   2.201 -0.0431  0.3926  0.6726
 7303TIP3    H121866   0.202   2.146   2.284 -1.0387 -1.1914 -0.1507
 7303TIP3    H221867   0.194   2.116   2.136  1.3512  0.7122 -0.7243
 7304TIP3   OH221868   6.095   2.921   2.878  0.2433  0.0599 -0.0021
 7304TIP3    H121869   6.008   2.887   2.860  0.3304 -1.2722  1.7993
 7304TIP3    H221870   6.144   2.905   2.797 -0.5429 -1.4701 -0.2079
 7305TIP3   OH221871   3.656   5.117   2.937 -0.3325  0.2709 -0.1617
 7305TIP3    H121872   3.648   5.053   3.007 -0.6271  0.5572  0.0672
 7305TIP3    H221873   3.731   5.172   2.963 -1.0134  0.9554  0.4010
 7306TIP3   OH221874   6.958   5.948   6.076 -0.0387 -0.3863  0.6312
 7306TIP3    H121875   7.012   5.986   6.146 -0.3445 -1.3498  1.4169
 7306TIP3    H221876   6.875   5.996   6.081  1.2846  2.4413 -1.8291
 7307TIP3   OH221877   1.671   2.146   5.888  0.0545 -0.0216 -0.3029
 7307TIP3    H121878   1.704   2.074   5.834 -1.4122 -0.7818 -0.2453
 7307TIP3    H221879   1.740   2.161   5.952  2.2687  1.5098 -2.8243
 7308TIP3   OH221880   1.826   4.411   3.247 -0.5328  0.1789  0.2324
 7308TIP3    H121881   1.787   4.478   3.192 -1.0323 -0.9705 -0.8523
 7308TIP3    H221882   1.765   4.337   3.242 -0.3429 -0.1364  1.9468
 7309TIP3   OH221883   7.384   6.630   2.979  0.4157  0.6290  0.0797
 7309TIP3    H121884   7.474   6.607   2.959  0.5245  0.9543  0.1785
 7309TIP3    H221885   7.365   6.705   2.922 -0.2602 -0.3144 -0.9779
 7310TIP3   OH221886   2.817   6.714   1.978 -0.3391  0.1775 -0.0578
 7310TIP3    H121887   2.880   6.650   2.013 -0.9904 -0.3344  0.2001
 7310TIP3    H221888   2.784   6.673   1.898  0.7829  1.1306 -1.0487
 7311TIP3   OH221889   6.065   7.572   2.052  0.6114 -0.3755  0.2997
 7311TIP3    H121890   6.061   7.510   1.979  0.7825  1.7058 -1.5791
 7311TIP3    H221891   5.998   7.541   2.113  0.4025 -2.1493 -0.7367
 7312TIP3   OH221892   7.375   1.638   4.849  0.2428  0.2478  0.1445
 7312TIP3    H121893   7.406   1.569   4.790  0.3945 -0.4211  0.9893
 7312TIP3    H221894   7.313   1.594   4.907  1.5529  0.4254  1.7555
 7313TIP3   OH221895   7.519   3.175   5.061 -0.0130 -0.0931  0.1240
 7313TIP3    H121896   7.556   3.168   4.972 -0.6735 -1.5619 -0.0672
 7313TIP3    H221897   7.584   3.225   5.110  0.0274  1.3940 -1.3611
 7314TIP3   OH221898   0.542   2.012   2.587 -0.9076  0.4841 -0.0235
 7314TIP3    H121899   0.478   1.967   2.642 -1.0267 -0.1522 -0.6704
 7314TIP3    H221900   0.584   1.943   2.537  0.9914  0.7616  1.0770
 7315TIP3   OH221901   3.900   5.919   0.103  0.3813  0.1795  0.2584
 7315TIP3    H121902   3.906   5.828   0.076 -1.1877 -0.2965  1.4022
 7315TIP3    H221903   3.988   5.954   0.089  0.6254 -1.0815 -1.6171
 7316TIP3   OH221904   5.745   6.443   5.924  0.9648 -0.7257  0.6791
 7316TIP3    H121905   5.785   6.517   5.878  1.0881 -1.4594 -0.4331
 7316TIP3    H221906   5.661   6.430   5.882  0.4497 -0.5286  1.6160
 7317TIP3   OH221907   2.583   3.526   2.636 -0.5806  0.2891 -0.7287
 7317TIP3    H121908   2.670   3.562   2.618  0.5373 -1.4907  0.7542
 7317TIP3    H221909   2.592   3.432   2.619 -1.8817 -0.1082  0.5970
 7318TIP3   OH221910   4.459   6.398   2.324  0.5002 -0.0156  0.1612
 7318TIP3    H121911   4.377   6.372   2.366  0.0834  0.9643 -0.0279
 7318TIP3    H221912   4.455   6.358   2.237  0.4164 -0.3194  0.3041
 7319TIP3   OH221913   7.300   7.520   2.048  0.3773 -0.3820  0.0798
 7319TIP3    H121914   7.386   7.561   2.044  0.4749 -0.6431 -1.3342
 7319TIP3    H221915   7.259   7.556   2.126  1.4243  0.4345  0.2761
 7320TIP3   OH221916   5.956   5.724   1.414  0.2167 -0.0757  0.4540
 7320TIP3    H121917   5.956   5.767   1.329 -1.2505 -0.0547  0.4482
 7320TIP3    H221918   6.017   5.776   1.467  1.4788 -0.3547 -0.6843
 7321TIP3   OH221919   3.350   6.108   3.529 -0.0424  0.1103 -0.0825
 7321TIP3    H121920   3.413   6.037   3.516 -0.6964 -0.2125 -1.7610
 7321TIP3    H221921   3.301   6.084   3.608  0.4881 -0.7306 -0.0063
 7322TIP3   OH221922   4.599   7.376   0.154 -0.1161 -0.5329  0.1531
 7322TIP3    H121923   4.675   7.435   0.160 -0.8391  0.6274 -1.3149
 7322TIP3    H221924   4.593   7.355   0.061 -1.3572 -0.9264  0.3053
 7323TIP3   OH221925   3.074   7.260   1.489 -0.0348 -0.2229  0.0283
 7323TIP3    H121926   3.000   7.219   1.535 -0.7286  0.0582 -0.8018
 7323TIP3    H221927   3.076   7.216   1.404  1.0286 -0.5167  0.1933
 7324TIP3   OH221928   2.530   7.135   0.919  0.0265  0.0485  0.4703
 7324TIP3    H121929   2.598   7.203   0.910 -0.6691  0.5045 -1.8782
 7324TIP3    H221930   2.449   7.184   0.929 -0.4254 -0.4138 -0.7770
 7325TIP3   OH221931   7.584   3.478   0.403  0.3395 -0.2542  0.0239
 7325TIP3    H121932   7.491   3.480   0.426  0.2662 -0.1907 -0.2874
 7325TIP3    H221933   7.594   3.399   0.350  0.6406 -0.7734  0.8336
 7326TIP3   OH221934   1.245   6.357   6.507  0.4122  0.0764  0.4648
 7326TIP3    H121935   1.165   6.375   6.555  1.0390  1.5075  1.0332
 7326TIP3    H221936   1.247   6.423   6.437  0.4988 -0.7286 -0.3204
 7327TIP3   OH221937   7.480   3.233   4.401 -0.2395 -0.5011 -0.0256
 7327TIP3    H121938   7.570   3.264   4.394 -0.2732 -0.1340  0.9438
 7327TIP3    H221939   7.431   3.286   4.339  0.0610 -0.0888  0.0855
 7328TIP3   OH221940   0.841   2.496   5.657  0.7961 -0.2624 -0.5663
 7328TIP3    H121941   0.886   2.412   5.665 -0.0935 -0.9563 -2.2100
 7328TIP3    H221942   0.754   2.479   5.694  0.9629  0.2625  0.0790
 7329TIP3   OH221943   7.427   2.681   3.495 -0.2513  0.1255 -0.4875
 7329TIP3    H121944   7.358   2.676   3.562 -0.2268  0.0425 -0.4671
 7329TIP3    H221945   7.401   2.615   3.430 -0.2839  0.2189 -0.5679
 7330TIP3   OH221946   1.184   2.840   6.230  0.1979  0.2285 -0.9924
 7330TIP3    H121947   1.233   2.912   6.271  2.2960 -0.1250 -2.7223
 7330TIP3    H221948   1.131   2.883   6.163  0.2462  0.3172 -0.9746
 7331TIP3   OH221949   6.670   0.452   2.458  0.0525 -0.4796  0.1244
 7331TIP3    H121950   6.618   0.529   2.432  1.8112  0.7648  0.1178
 7331TIP3    H221951   6.606   0.391   2.493 -1.8305 -0.2564 -2.6030
 7332TIP3   OH221952   2.559   7.758   2.750  0.2646  0.0321 -0.5973
 7332TIP3    H121953   2.497   7.744   2.821  0.1173  1.5156 -0.4090
 7332TIP3    H221954   2.557   7.676   2.700 -1.4496 -0.1336 -0.3069
 7333TIP3   OH221955   1.761   4.285   4.681  0.2362  0.2244  0.2580
 7333TIP3    H121956   1.818   4.211   4.703  0.2617 -0.3466 -1.5854
 7333TIP3    H221957   1.820   4.348   4.639 -0.1054  0.5703  0.2976
 7334TIP3   OH221958   3.487   3.596   3.345  0.4582  0.3283 -0.4623
 7334TIP3    H121959   3.444   3.681   3.347 -0.8584 -0.2965  1.7704
 7334TIP3    H221960   3.565   3.607   3.399  1.0942  0.4868 -1.4018
 7335TIP3   OH221961   8.265   5.683   0.528 -0.2206  0.0046  0.0391
 7335TIP3    H121962   8.290   5.670   0.619  1.2611  1.0884 -0.1722
 7335TIP3    H221963   8.228   5.599   0.501  2.8996 -1.6940  0.5461
 7336TIP3   OH221964   7.796   5.848   1.828 -0.1751 -0.0573  0.7526
 7336TIP3    H121965   7.767   5.927   1.874 -1.2255 -0.0771  0.1524
 7336TIP3    H221966   7.890   5.844   1.844 -0.2520  0.8309  1.5223
 7337TIP3   OH221967   1.829   6.246   4.592  0.4061 -0.6106 -0.0953
 7337TIP3    H121968   1.793   6.334   4.583 -1.0243 -1.0495  0.9302
 7337TIP3    H221969   1.921   6.260   4.613  0.3192  0.6169 -0.4489
 7338TIP3   OH221970   7.228   1.060   5.380 -0.0404  0.2521 -0.4092
 7338TIP3    H121971   7.154   1.104   5.339 -0.7955 -0.6739 -0.0852
 7338TIP3    H221972   7.259   0.999   5.312  0.1412  0.3311 -0.3956
 7339TIP3   OH221973   6.898   1.846   4.726 -0.3445  0.4666 -0.3688
 7339TIP3    H121974   6.985   1.819   4.755 -0.3624 -1.2985 -1.7652
 7339TIP3    H221975   6.911   1.876   4.636 -0.7015  3.3598  0.4551
 7340TIP3   OH221976   1.656   5.017   4.105 -0.4485  0.8753  0.5526
 7340TIP3    H121977   1.609   5.097   4.084 -1.8821  0.4931  2.0178
 7340TIP3    H221978   1.748   5.042   4.107 -0.8464  2.4184  0.7056
 7341TIP3   OH221979   2.578   3.190   5.139 -0.2697  0.2594 -0.3754
 7341TIP3    H121980   2.497   3.208   5.091  0.8312  3.3473 -1.3275
 7341TIP3    H221981   2.606   3.104   5.108 -1.2951  0.7307 -2.8480
 7342TIP3   OH221982   6.977   6.078   2.393 -0.3951  0.1653  0.0078
 7342TIP3    H121983   6.944   6.168   2.396 -1.3123 -0.1938  1.2965
 7342TIP3    H221984   7.007   6.061   2.482 -2.7870 -1.7092  0.5557
 7343TIP3   OH221985   1.993   0.132   1.175 -1.1204  0.3076 -0.4272
 7343TIP3    H121986   2.070   0.130   1.232 -2.5180  0.1715  1.5446
 7343TIP3    H221987   2.028   0.158   1.089  1.2834 -0.9652  0.0672
 7344TIP3   OH221988   7.141   2.556   6.049  0.4741  0.1904 -0.5571
 7344TIP3    H121989   7.151   2.501   5.971  1.2695 -1.6163  0.7365
 7344TIP3    H221990   7.230   2.574   6.078  0.1963 -0.1380  0.5601
 7345TIP3   OH221991   5.248   1.017   1.966 -0.1417 -0.7308 -0.0553
 7345TIP3    H121992   5.264   1.111   1.967 -0.5296 -0.6157 -1.5026
 7345TIP3    H221993   5.244   0.992   2.058  1.0334  0.4671  0.3536
 7346TIP3   OH221994   0.310   0.066   4.743  0.2279 -0.3871  0.0267
 7346TIP3    H121995   0.336  -0.026   4.741 -0.8545 -0.7058 -0.0117
 7346TIP3    H221996   0.270   0.078   4.829  0.4851  0.0914  0.0858
 7347TIP3   OH221997   0.795   2.672   4.176  0.2492 -0.6075  0.3865
 7347TIP3    H121998   0.732   2.634   4.238  0.8013 -0.0426  1.3283
 7347TIP3    H221999   0.783   2.623   4.095 -1.2234 -0.6875  0.6260
 7348TIP3   OH222000   2.331   2.684   4.658 -0.3595 -0.5587  0.0067
 7348TIP3    H122001   2.343   2.692   4.564 -0.6438  1.9305  0.1129
 7348TIP3    H222002   2.416   2.706   4.695 -0.7111  0.2764  0.3497
 7349TIP3   OH222003   3.720   0.443   4.039  0.5681 -0.1896  0.3037
 7349TIP3    H122004   3.723   0.473   3.948  0.2717 -1.4697 -0.1510
 7349TIP3    H222005   3.643   0.486   4.076  0.5965  0.2096 -0.0924
 7350TIP3   OH222006   1.137   3.441   5.153 -0.3638  0.1778  0.4955
 7350TIP3    H122007   1.128   3.401   5.067  0.5898  1.1396 -0.0794
 7350TIP3    H222008   1.048   3.461   5.180 -0.6726 -0.1070 -0.2781
 7351TIP3   OH222009   7.140   5.558   4.450  0.0366  0.2842 -0.1611
 7351TIP3    H122010   7.111   5.634   4.501 -0.5561  0.7074 -1.0837
 7351TIP3    H222011   7.212   5.521   4.500  1.0118  2.0616 -0.1811
 7352TIP3   OH222012   8.069   7.423   2.834 -0.3854 -0.5376 -0.0975
 7352TIP3    H122013   8.014   7.494   2.868 -1.5111 -0.5288 -1.8361
 7352TIP3    H222014   8.027   7.343   2.865  0.4927 -0.5228  1.2678
 7353TIP3   OH222015   5.694   2.270   4.061  0.3445 -0.3899  0.2091
 7353TIP3    H122016   5.747   2.251   4.139 -2.3648 -0.0632  2.3071
 7353TIP3    H222017   5.715   2.361   4.040 -0.1244  0.0949  1.6912
 7354TIP3   OH222018   4.425   6.147   6.690 -0.1486 -0.3218  0.4530
 7354TIP3    H122019   4.416   6.059   6.726  0.3970 -0.2972  0.6543
 7354TIP3    H222020   4.493   6.138   6.623 -1.5318 -0.4912 -0.9846
 7355TIP3   OH222021   0.533   3.077   3.618 -0.1860  0.2139 -0.2311
 7355TIP3    H122022   0.592   3.145   3.585  1.0603 -0.5060  0.4382
 7355TIP3    H222023   0.466   3.124   3.666 -0.8928  1.1490 -2.0265
 7356TIP3   OH222024   4.859   3.100   5.516 -0.5192  0.2333  0.3768
 7356TIP3    H122025   4.791   3.104   5.583  0.4581  1.6360  1.3511
 7356TIP3    H222026   4.929   3.156   5.550  1.4405 -1.7188 -0.2383
 7357TIP3   OH222027   3.354   7.382   2.447  0.8379  0.2036 -0.3204
 7357TIP3    H122028   3.338   7.470   2.411 -0.9954 -0.1655 -0.5246
 7357TIP3    H222029   3.375   7.397   2.539 -0.6678  0.8151 -0.0512
 7358TIP3   OH222030   6.994   6.782   3.156  0.0551 -0.1399  0.0607
 7358TIP3    H122031   6.973   6.816   3.069  0.0439 -0.8710 -0.2259
 7358TIP3    H222032   6.936   6.831   3.215  0.1991  0.4961 -0.3161
 7359TIP3   OH222033   4.806   3.296   2.158 -0.3574 -0.0450 -0.1812
 7359TIP3    H122034   4.897   3.269   2.142 -0.1896  1.7450 -2.8024
 7359TIP3    H222035   4.754   3.241   2.099 -0.7621  0.3771 -0.2219
 7360TIP3   OH222036   2.730   5.500   6.248 -0.4496  0.0799 -0.1149
 7360TIP3    H122037   2.764   5.453   6.172  0.6541 -2.7524  1.9679
 7360TIP3    H222038   2.636   5.504   6.234 -0.1638  0.7464 -2.1551
 7361TIP3   OH222039   2.154   4.521   0.352  0.2504  0.0914 -0.3713
 7361TIP3    H122040   2.197   4.496   0.270  0.5155 -0.8463  0.0393
 7361TIP3    H222041   2.117   4.607   0.334  2.0167  0.7988 -0.8481
 7362TIP3   OH222042   1.871   0.446   3.260  0.9605 -0.0155  0.4542
 7362TIP3    H122043   1.962   0.417   3.270  0.7187 -0.5009  1.3630
 7362TIP3    H222044   1.827   0.372   3.219  0.8418 -0.0370  0.6187
 7363TIP3   OH222045   6.634   1.871   6.288  1.0240 -0.3536  0.2666
 7363TIP3    H122046   6.707   1.820   6.322  1.1972  0.4179  1.1033
 7363TIP3    H222047   6.675   1.945   6.243  0.8392 -1.8651 -2.6044
 7364TIP3   OH222048   2.377   4.578   1.464 -0.1541  0.0409 -0.0429
 7364TIP3    H122049   2.411   4.654   1.511 -0.3466 -0.2388  0.5610
 7364TIP3    H222050   2.372   4.606   1.373  0.6496  0.4448  0.0289
 7365TIP3   OH222051   4.493   0.731   3.200  0.1358 -0.7763 -0.1964
 7365TIP3    H122052   4.418   0.748   3.257  0.0927  0.9826 -0.7156
 7365TIP3    H222053   4.525   0.646   3.227 -1.2753 -0.9941  0.9004
 7366TIP3   OH222054   2.121   3.994   4.967 -0.1693  0.0830 -0.3907
 7366TIP3    H122055   2.199   4.004   4.913  0.6286  0.9528  0.8690
 7366TIP3    H222056   2.078   4.079   4.963 -1.9889 -0.8172 -2.3563
 7367TIP3   OH222057   3.653   1.606   1.481 -0.1197  0.0463  0.2345
 7367TIP3    H122058   3.617   1.541   1.540 -2.0219  0.3304 -0.5351
 7367TIP3    H222059   3.650   1.688   1.530  1.0527 -0.2010  0.7436
 7368TIP3   OH222060   3.657   6.679   3.420 -0.0991  0.3313  0.0341
 7368TIP3    H122061   3.609   6.701   3.340 -0.9724  0.8364  0.6768
 7368TIP3    H222062   3.639   6.752   3.479  1.5527  0.5779  0.2747
 7369TIP3   OH222063   4.895   2.234   2.530 -0.4213 -0.1335 -0.0747
 7369TIP3    H122064   4.851   2.216   2.614 -0.1142  0.5170  0.2335
 7369TIP3    H222065   4.936   2.319   2.543  1.5425 -1.0298 -0.1131
 7370TIP3   OH222066   7.880   2.063   3.166  0.4536  0.4234 -0.5028
 7370TIP3    H122067   7.787   2.083   3.156  0.4294  0.6816  0.1939
 7370TIP3    H222068   7.882   1.978   3.211  0.5506  0.5661 -0.2342
 7371TIP3   OH222069   6.724   4.733   3.857 -0.3669  0.7321 -0.1624
 7371TIP3    H122070   6.693   4.762   3.942  0.4936  2.4798 -0.4016
 7371TIP3    H222071   6.816   4.761   3.854 -0.1547 -0.0003 -1.3549
 7372TIP3   OH222072   4.538   2.963   6.399 -0.3727  0.1676  0.2980
 7372TIP3    H122073   4.574   2.961   6.488 -0.2899  1.0259  0.2957
 7372TIP3    H222074   4.454   3.008   6.409 -0.2505  0.4891 -0.0884
 7373TIP3   OH222075   2.091   2.509   3.988  0.5155  0.1414  0.1776
 7373TIP3    H122076   2.071   2.456   3.911 -0.8063  0.7767  0.0559
 7373TIP3    H222077   2.039   2.588   3.977  1.2400  0.7731  1.1357
 7374TIP3   OH222078   4.744   0.795   2.213  0.3132 -0.2144 -0.1135
 7374TIP3    H122079   4.655   0.789   2.249 -0.3108  1.8109 -1.1219
 7374TIP3    H222080   4.800   0.762   2.283 -1.0501  1.0352  1.6921
 7375TIP3   OH222081   7.340   3.539   4.466 -0.0077 -0.2512 -0.1491
 7375TIP3    H122082   7.338   3.541   4.562 -0.0478  2.5006 -0.1395
 7375TIP3    H222083   7.413   3.596   4.442 -1.4636  1.0336 -1.7608
 7376TIP3   OH222084   6.333   7.617   4.298  0.0839 -0.3367 -0.3225
 7376TIP3    H122085   6.323   7.529   4.335 -1.8425 -0.2003 -0.4245
 7376TIP3    H222086   6.293   7.612   4.212  1.1869  0.3088 -0.8909
 7377TIP3   OH222087   7.904   5.557   1.771 -0.0632 -0.1062  0.2451
 7377TIP3    H122088   7.943   5.643   1.785 -1.5659  0.4878  0.9276
 7377TIP3    H222089   7.979   5.499   1.755  1.0316  1.1428  0.7022
 7378TIP3   OH222090   3.317   0.362   4.171 -0.5170  0.0260 -0.2819
 7378TIP3    H122091   3.279   0.377   4.084  1.1458  1.2378 -0.8451
 7378TIP3    H222092   3.360   0.278   4.164  0.4944  0.5851 -0.9872
 7379TIP3   OH222093   0.897   6.501   6.068  0.0109 -0.0267 -0.1093
 7379TIP3    H122094   0.823   6.441   6.060  0.7045 -1.0623  0.8275
 7379TIP3    H222095   0.939   6.475   6.150  0.9622  1.0430 -0.2434
 7380TIP3   OH222096   7.122   6.090   5.854  0.2294 -0.5053  0.4445
 7380TIP3    H122097   7.089   6.024   5.915  0.9408 -0.3733  0.9847
 7380TIP3    H222098   7.114   6.172   5.901 -2.0126  0.0552 -0.7459
 7381TIP3   OH222099   5.647   2.105   2.233 -0.0671 -0.1682 -0.2546
 7381TIP3    H122100   5.697   2.129   2.154  0.2473 -2.4690 -0.8453
 7381TIP3    H222101   5.684   2.020   2.259  0.3644  0.8576  2.8883
 7382TIP3   OH222102   7.065   0.397   1.104  0.0110  0.4176  0.0703
 7382TIP3    H122103   7.062   0.352   1.020  0.9447 -0.8800  0.7153
 7382TIP3    H222104   7.014   0.341   1.163 -1.3686  1.7428  0.2154
 7383TIP3   OH222105   2.155   0.942   5.005  0.8301 -0.0675 -0.4732
 7383TIP3    H122106   2.136   0.849   5.013  2.2241 -0.3926 -0.6557
 7383TIP3    H222107   2.250   0.947   5.005  0.8443  1.5965  2.1854
 7384TIP3   OH222108   0.752   4.714   5.594  0.1236  0.0249  0.7081
 7384TIP3    H122109   0.708   4.755   5.669  0.8544  2.6154 -0.1829
 7384TIP3    H222110   0.685   4.710   5.526  0.1490  0.0973  0.6785
 7385TIP3   OH222111   1.129   5.848   5.837  0.1811 -0.0176 -0.1982
 7385TIP3    H122112   1.071   5.854   5.913 -1.4810  0.6556 -1.4784
 7385TIP3    H222113   1.074   5.813   5.767  1.9070 -1.4873 -0.8957
 7386TIP3   OH222114   6.490   1.932   6.648 -0.0668 -0.2844  0.2161
 7386TIP3    H122115   6.424   1.943   6.717  0.2482  1.7973  0.2261
 7386TIP3    H222116   6.565   1.983   6.678  0.6409 -0.5781 -0.9824
 7387TIP3   OH222117   5.710   0.494   2.460  0.5548 -0.3502  0.6982
 7387TIP3    H122118   5.802   0.471   2.470  0.3987 -0.9845  0.6949
 7387TIP3    H222119   5.710   0.590   2.458  1.2068 -0.3422  0.7433
 7388TIP3   OH222120   3.898   3.344   2.539 -0.0553  0.0218 -0.0887
 7388TIP3    H122121   3.836   3.326   2.609  0.8922 -0.0158  0.7639
 7388TIP3    H222122   3.948   3.263   2.530  2.4350  1.2277  1.9120
 7389TIP3   OH222123   1.217   0.628   0.421 -0.3986  0.5437  0.1673
 7389TIP3    H122124   1.123   0.636   0.401 -0.7008 -2.7440 -0.3291
 7389TIP3    H222125   1.227   0.671   0.506 -2.4823  0.6027  0.4395
 7390TIP3   OH222126   1.162   1.089   0.126  0.5731 -0.2706  0.0287
 7390TIP3    H122127   1.217   1.049   0.059 -0.8032 -0.7390 -0.8659
 7390TIP3    H222128   1.148   1.019   0.190  0.1801 -0.4945 -0.2892
 7391TIP3   OH222129   3.501   6.315   5.587 -0.3011 -0.3137  0.8016
 7391TIP3    H122130   3.476   6.292   5.497 -1.2178  0.5980  0.7935
 7391TIP3    H222131   3.436   6.380   5.613  2.3186  2.6691  0.5947
 7392TIP3   OH222132   4.785   7.025   6.089 -0.1909  0.1524 -0.4408
 7392TIP3    H122133   4.695   6.998   6.108 -0.1261  0.1615 -0.1121
 7392TIP3    H222134   4.795   7.013   5.995 -1.0006  1.4917 -0.7297
 7393TIP3   OH222135   3.640   1.512   2.579  0.1084 -0.0117  0.5927
 7393TIP3    H122136   3.670   1.540   2.666 -0.2837 -1.5899  1.2904
 7393TIP3    H222137   3.577   1.443   2.598 -0.3804 -0.0126 -0.9594
 7394TIP3   OH222138   0.788   6.951   6.653  0.3627  0.1355 -0.1286
 7394TIP3    H122139   0.712   6.899   6.680  1.3394 -1.8826 -1.0952
 7394TIP3    H222140   0.819   6.909   6.573  1.7166  1.7360 -0.5089
 7395TIP3   OH222141   8.110   2.667   1.327  0.5520  0.2542 -0.5466
 7395TIP3    H122142   8.050   2.617   1.382  2.1197 -1.2222 -0.0911
 7395TIP3    H222143   8.097   2.632   1.239  1.9212 -1.2978 -0.1650
 7396TIP3   OH222144   0.961   0.382   1.237  1.0517  0.2261 -0.2283
 7396TIP3    H122145   0.959   0.404   1.330  2.0686  0.0334 -0.1500
 7396TIP3    H222146   0.979   0.465   1.193  0.4488  0.3401 -0.2724
 7397TIP3   OH222147   5.665   0.889   5.144 -0.3379 -0.0158 -0.3101
 7397TIP3    H122148   5.737   0.951   5.155 -0.3401 -0.5101  3.8359
 7397TIP3    H222149   5.702   0.819   5.090  1.9118  0.3775  0.6056
 7398TIP3   OH222150   7.831   6.387   2.996 -0.1802 -0.3686  0.4158
 7398TIP3    H122151   7.849   6.337   3.075  0.6915  0.8581  1.0390
 7398TIP3    H222152   7.914   6.385   2.948 -0.0541  0.6455  0.5704
 7399TIP3   OH222153   5.915   3.004   2.390  0.0826 -0.3872  0.1065
 7399TIP3    H122154   5.905   2.944   2.464  0.3285 -1.7562 -0.9242
 7399TIP3    H222155   5.879   3.087   2.421 -1.2893 -1.3572  1.2258
 7400TIP3   OH222156   3.409   2.599   1.394  0.0302 -0.2901  0.7869
 7400TIP3    H122157   3.381   2.510   1.370 -2.4552  0.6938 -0.3167
 7400TIP3    H222158   3.504   2.594   1.395  0.0222 -2.5724 -0.8892
 7401TIP3   OH222159   7.475   3.758   3.364 -0.5556 -0.1732 -0.2442
 7401TIP3    H122160   7.386   3.783   3.387 -0.1301 -0.3060  1.7134
 7401TIP3    H222161   7.494   3.682   3.418  1.2800  0.8291  0.6320
 7402TIP3   OH222162   7.989   0.280   5.735 -0.6159 -0.2945  0.4378
 7402TIP3    H122163   8.021   0.255   5.649  0.8096 -0.7325  1.0641
 7402TIP3    H222164   7.965   0.372   5.726  0.7719  0.0381 -0.1156
 7403TIP3   OH222165   4.443   0.704   6.304 -0.2868 -0.2714 -0.1462
 7403TIP3    H122166   4.368   0.728   6.249  0.5137 -0.0079 -1.1520
 7403TIP3    H222167   4.509   0.673   6.242  1.3744  1.8578  0.4646
 7404TIP3   OH222168   4.820   3.172   1.877 -0.0209  0.1680 -0.2365
 7404TIP3    H122169   4.781   3.189   1.791 -1.2901  2.5369  0.6973
 7404TIP3    H222170   4.751   3.130   1.927 -0.6863  2.2222  0.6991
 7405TIP3   OH222171   1.211   2.614   3.007  0.4992  0.4087  0.1221
 7405TIP3    H122172   1.302   2.626   3.036  0.1267 -0.3748  1.7903
 7405TIP3    H222173   1.210   2.528   2.965  0.2127 -0.4306  1.7560
 7406TIP3   OH222174   7.151   1.422   2.423  0.4413 -0.0508 -0.0790
 7406TIP3    H122175   7.172   1.356   2.356 -0.7159 -0.9224  0.3773
 7406TIP3    H222176   7.177   1.505   2.383 -0.0072 -0.5629 -1.5291
 7407TIP3   OH222177   5.008   6.349   2.828 -0.6255 -0.1169 -0.3264
 7407TIP3    H122178   4.996   6.337   2.734  0.8180 -0.7412 -0.4733
 7407TIP3    H222179   4.952   6.283   2.869 -3.0454  1.6558 -0.6118
 7408TIP3   OH222180   7.499   7.256   3.143 -0.1534 -0.1836 -0.0134
 7408TIP3    H122181   7.423   7.263   3.201  0.5547  0.9162  0.8135
 7408TIP3    H222182   7.466   7.286   3.058 -0.6027  0.4692  0.3825
 7409TIP3   OH222183   7.198   7.510   2.921 -0.2272  0.6957 -0.3176
 7409TIP3    H122184   7.226   7.579   2.982 -0.9265  1.3138 -0.6827
 7409TIP3    H222185   7.104   7.502   2.936  0.1433 -1.7195  1.2717
 7410TIP3   OH222186   3.295   0.009   1.230 -0.1590 -0.3557 -0.0166
 7410TIP3    H122187   3.368   0.009   1.168  0.1528 -0.6399  0.3517
 7410TIP3    H222188   3.217   0.015   1.174  0.1550  0.3434 -0.3942
 7411TIP3   OH222189   5.274   2.319   0.319 -0.1006  0.6952 -0.1290
 7411TIP3    H122190   5.352   2.334   0.267  0.4051 -2.3704 -0.4434
 7411TIP3    H222191   5.206   2.298   0.255 -0.6736  1.3722  0.2456
 7412TIP3   OH222192   5.013   6.439   1.120  0.1636 -0.0847 -0.1653
 7412TIP3    H122193   5.093   6.396   1.089  0.3075 -0.2526  0.4226
 7412TIP3    H222194   5.001   6.406   1.209 -0.3669  0.2147 -0.1190
 7413TIP3   OH222195   1.946   3.931   1.430  0.1723 -0.5824  0.3093
 7413TIP3    H122196   1.902   4.009   1.396 -0.7879 -1.2980 -0.1247
 7413TIP3    H222197   1.988   3.892   1.354  0.8289 -0.3799  0.5647
 7414TIP3   OH222198   6.709   7.068   3.587  0.2607 -0.0368  0.4931
 7414TIP3    H122199   6.660   7.138   3.630  1.7895  0.1145  2.1060
 7414TIP3    H222200   6.756   7.024   3.659  2.9543  0.2241 -0.9763
 7415TIP3   OH222201   2.485   6.056   5.232  0.4268 -0.0686  0.3680
 7415TIP3    H122202   2.576   6.029   5.242  0.4976  0.3523  0.8820
 7415TIP3    H222203   2.466   6.108   5.310  0.1205  0.8991 -0.3380
 7416TIP3   OH222204   2.467   0.319   1.387  0.1827  0.2313 -0.0403
 7416TIP3    H122205   2.480   0.355   1.474 -0.6803  1.6801 -0.4723
 7416TIP3    H222206   2.550   0.275   1.367  0.1287 -0.7862  1.7707
 7417TIP3   OH222207   1.917   6.091   5.953 -0.0175  0.0729 -0.1153
 7417TIP3    H122208   1.955   6.035   6.021 -1.3513  1.3287  1.7745
 7417TIP3    H222209   1.927   6.041   5.873  3.3050 -0.6952  0.6438
 7418TIP3   OH222210   8.180   0.751   3.925  0.4461 -0.1232  0.3491
 7418TIP3    H122211   8.221   0.736   3.839  1.2170  0.4490  0.6084
 7418TIP3    H222212   8.173   0.664   3.963 -0.2638 -0.4364 -0.4423
 7419TIP3   OH222213   4.530   7.016   5.786 -0.0039  0.0055 -0.1059
 7419TIP3    H122214   4.461   6.953   5.765 -0.8883  0.6394  0.8168
 7419TIP3    H222215   4.500   7.099   5.748 -0.1667  0.4748  1.0128
 7420TIP3   OH222216   3.561   1.835   0.581 -0.0970  0.5611 -1.1319
 7420TIP3    H122217   3.553   1.792   0.666  1.0891 -1.3651 -1.9102
 7420TIP3    H222218   3.472   1.838   0.546 -0.5765  1.2881  0.1273
 7421TIP3   OH222219   7.105   6.681   4.452 -0.7960 -0.1579 -0.3111
 7421TIP3    H122220   7.195   6.681   4.486 -0.4651 -0.0010 -1.1564
 7421TIP3    H222221   7.071   6.594   4.475 -0.5264 -0.1211  0.2547
 7422TIP3   OH222222   7.233   3.250   2.708  0.1337 -0.1072  0.0117
 7422TIP3    H122223   7.241   3.159   2.740  0.4698 -0.1515 -0.1900
 7422TIP3    H222224   7.314   3.265   2.659 -0.3088  0.0142 -0.6887
 7423TIP3   OH222225   4.253   0.262   5.107  0.2841  0.0340  0.3485
 7423TIP3    H122226   4.283   0.345   5.070  0.3477  0.4821  1.3666
 7423TIP3    H222227   4.188   0.287   5.172 -0.2534 -0.7690  0.1383
 7424TIP3   OH222228   3.568   1.665   2.359  0.6557  0.0598 -1.0961
 7424TIP3    H122229   3.605   1.609   2.427 -1.1069  0.0001 -0.1397
 7424TIP3    H222230   3.590   1.621   2.277  3.4353  0.5022 -0.6826
 7425TIP3   OH222231   6.484   7.309   2.039 -0.6045 -0.2181  0.7431
 7425TIP3    H122232   6.547   7.246   2.073  0.3783 -1.2886 -2.6856
 7425TIP3    H222233   6.534   7.361   1.976 -2.4434  1.0226  0.2171
 7426TIP3   OH222234   3.333   1.316   2.412  1.0125 -0.1645  0.3873
 7426TIP3    H122235   3.250   1.364   2.411  0.7665 -0.5946  0.0558
 7426TIP3    H222236   3.341   1.281   2.323  0.6714 -1.6120  0.9054
 7427TIP3   OH222237   6.376   1.257   4.325 -0.4299  0.4680 -0.3778
 7427TIP3    H122238   6.383   1.222   4.236 -1.9948 -1.6172  0.2452
 7427TIP3    H222239   6.283   1.257   4.344 -0.2434  2.2211  0.8142
 7428TIP3   OH222240   3.164   3.110   3.371 -0.3872  0.2679 -0.0124
 7428TIP3    H122241   3.235   3.155   3.325  1.1089 -1.2929  0.6610
 7428TIP3    H222242   3.183   3.017   3.360 -1.9580 -0.1923  0.7937
 7429TIP3   OH222243   4.688   3.139   0.751  0.5018 -0.2682  0.1179
 7429TIP3    H122244   4.648   3.209   0.803 -0.2324 -0.1419 -0.5963
 7429TIP3    H222245   4.643   3.144   0.666  1.7959 -0.3613 -0.5894
 7430TIP3   OH222246   0.284   4.586   1.827  0.2073 -0.0824 -0.1860
 7430TIP3    H122247   0.225   4.643   1.778 -0.5949 -1.0503 -0.3740
 7430TIP3    H222248   0.280   4.502   1.781  0.8128 -0.5038  0.5068
 7431TIP3   OH222249   6.374   5.665   0.847  0.1303  0.2259  0.5260
 7431TIP3    H122250   6.325   5.585   0.828  1.1676 -0.6755  1.4633
 7431TIP3    H222251   6.333   5.732   0.792  0.4428 -1.3427 -1.7800
 7432TIP3   OH222252   6.896   1.769   5.947  0.1428  0.3073  0.1369
 7432TIP3    H122253   6.940   1.797   6.027  0.0086  0.2064  0.2468
 7432TIP3    H222254   6.918   1.677   5.937  0.1721  0.3232  0.0488
 7433TIP3   OH222255   8.130   0.603   2.831 -0.2422  0.4656  0.3329
 7433TIP3    H122256   8.117   0.541   2.759  0.8091  0.3204  0.2441
 7433TIP3    H222257   8.063   0.670   2.818 -0.1610  0.3650 -0.7028
 7434TIP3   OH222258   6.349   6.529   0.749 -0.2980 -0.0448  0.0906
 7434TIP3    H122259   6.261   6.565   0.751 -1.0009 -1.7064  0.9864
 7434TIP3    H222260   6.369   6.508   0.840  0.7982 -0.2058 -0.1733
 7435TIP3   OH222261   7.270   4.285   0.147 -0.1983  0.5715 -0.1876
 7435TIP3    H122262   7.360   4.258   0.163  0.0637  0.2090 -1.9979
 7435TIP3    H222263   7.217   4.207   0.162  0.0174  0.2796 -0.9212
 7436TIP3   OH222264   6.366   3.766   0.645 -0.2353 -0.4254 -0.1186
 7436TIP3    H122265   6.329   3.682   0.618 -0.7950 -0.5114  0.8622
 7436TIP3    H222266   6.290   3.821   0.663 -0.0358 -0.9915  3.1756
 7437TIP3   OH222267   3.712   1.829   5.302  0.0853  0.0937 -0.3445
 7437TIP3    H122268   3.706   1.912   5.348 -2.6720 -1.2739  2.1241
 7437TIP3    H222269   3.805   1.820   5.281  1.3372  1.6622  3.5937
 7438TIP3   OH222270   0.201   5.063   1.794  0.6367 -1.0880 -0.1260
 7438TIP3    H122271   0.201   5.080   1.888 -0.2435 -1.1057 -0.1164
 7438TIP3    H222272   0.284   5.101   1.763 -0.2917  1.4541  0.2294
 7439TIP3   OH222273   4.767   6.297   6.055  0.7387  0.2193 -0.0849
 7439TIP3    H122274   4.719   6.333   6.130 -1.9060 -2.4483 -0.3074
 7439TIP3    H222275   4.759   6.365   5.987  0.8274  1.5266  1.1544
 7440TIP3   OH222276   5.376   0.720   2.863 -0.0165  0.3654 -0.0207
 7440TIP3    H122277   5.389   0.789   2.928 -0.3716 -0.1941  0.6519
 7440TIP3    H222278   5.352   0.643   2.914 -2.2285  0.3907 -0.9380
 7441TIP3   OH222279   1.169   6.826   3.478 -0.8725  0.1427 -0.3325
 7441TIP3    H122280   1.202   6.788   3.560  1.9663 -1.1492 -1.9146
 7441TIP3    H222281   1.164   6.920   3.497 -0.6140 -0.1542  1.4242
 7442TIP3   OH222282   0.609   0.844   1.181 -0.0527  0.0518 -0.0912
 7442TIP3    H122283   0.648   0.757   1.175 -0.0730  0.1108 -1.6074
 7442TIP3    H222284   0.670   0.894   1.235  0.4369 -0.6558  0.0272
 7443TIP3   OH222285   8.113   3.699   6.202  0.0576 -0.3307  0.1673
 7443TIP3    H122286   8.099   3.793   6.203  0.1754 -0.2835 -1.2652
 7443TIP3    H222287   8.070   3.667   6.282 -2.9576  0.5111 -1.0227
 7444TIP3   OH222288   2.058   7.169   0.051  0.2279 -0.2471  0.1990
 7444TIP3    H122289   2.009   7.101   0.004  1.3929 -0.3714 -0.8864
 7444TIP3    H222290   2.066   7.135   0.140  1.2124 -1.7866 -0.4386
 7445TIP3   OH222291   0.849   5.732   2.090  0.6531 -1.0012 -0.3721
 7445TIP3    H122292   0.875   5.801   2.150 -1.1235 -0.1499 -0.5127
 7445TIP3    H222293   0.864   5.768   2.003  1.5509 -1.5569 -0.4605
 7446TIP3   OH222294   5.215   2.113   1.898  0.3492 -0.1800  0.3839
 7446TIP3    H122295   5.160   2.063   1.958 -0.1786  0.3773  0.3656
 7446TIP3    H222296   5.303   2.108   1.935  0.1138 -0.2577  0.9275
 7447TIP3   OH222297   6.709   1.998   5.886  0.0260  0.0186  0.0651
 7447TIP3    H122298   6.747   1.912   5.906  0.7516  0.0043 -1.2699
 7447TIP3    H222299   6.756   2.027   5.808 -0.4713  1.4751  0.2828
 7448TIP3   OH222300   4.890   5.853   0.707  0.3154  0.2586 -0.1966
 7448TIP3    H122301   4.900   5.833   0.614 -2.1739 -0.4676 -0.3921
 7448TIP3    H222302   4.834   5.931   0.709 -0.6603 -0.4314  0.6639
 7449TIP3   OH222303   2.828   3.306   4.562  0.0891 -0.0692  0.2115
 7449TIP3    H122304   2.858   3.215   4.572  2.1222  0.7662  2.5801
 7449TIP3    H222305   2.905   3.359   4.580 -1.7567  2.1717  2.0170
 7450TIP3   OH222306   0.455   7.594   1.345 -0.1152  0.1187 -0.2836
 7450TIP3    H122307   0.405   7.604   1.426 -0.6074  0.0184 -0.5676
 7450TIP3    H222308   0.467   7.683   1.313 -1.9109  0.0654 -1.2709
 7451TIP3   OH222309   7.077   0.271   0.814 -0.2864 -0.3661  0.1209
 7451TIP3    H122310   7.159   0.266   0.764  0.2848  1.6891  0.7398
 7451TIP3    H222311   7.013   0.306   0.752 -0.4983 -1.1883 -0.1331
 7452TIP3   OH222312   6.933   3.503   2.383  0.2494  0.1033 -0.1697
 7452TIP3    H122313   6.956   3.596   2.377 -0.5731  0.3683  0.6544
 7452TIP3    H222314   6.979   3.472   2.461 -1.1274  0.3402  0.7741
 7453TIP3   OH222315   3.756   7.003   1.075 -0.0877 -0.0252 -0.4717
 7453TIP3    H122316   3.701   7.015   1.153 -0.4013  1.5790 -0.8849
 7453TIP3    H222317   3.694   6.994   1.003  0.1987 -0.7468 -0.6306
 7454TIP3   OH222318   3.799   1.309   4.512  0.8387  0.7986 -0.1573
 7454TIP3    H122319   3.739   1.304   4.437  1.4236  1.6305 -0.6930
 7454TIP3    H222320   3.868   1.369   4.484 -0.2393  3.2523  1.9516
 7455TIP3   OH222321   6.878   2.471   5.483  0.2678 -0.5168  0.3218
 7455TIP3    H122322   6.955   2.458   5.538  1.7957  2.1081 -0.9668
 7455TIP3    H222323   6.841   2.554   5.515 -2.3669 -1.9029  1.1744
 7456TIP3   OH222324   4.655   3.246   1.649  0.2867  0.0158 -0.2312
 7456TIP3    H122325   4.643   3.331   1.690 -1.7555 -0.9084  1.2910
 7456TIP3    H222326   4.581   3.238   1.588  1.0147 -0.2932 -1.0982
 7457TIP3   OH222327   1.610   4.236   1.835 -0.2201 -0.1752  0.3395
 7457TIP3    H122328   1.696   4.272   1.855  0.2059 -0.9900  0.0544
 7457TIP3    H222329   1.548   4.303   1.863  0.3887 -0.5738  2.9295
 7458TIP3   OH222330   0.073   6.074   0.375  0.3617 -0.5222 -0.1835
 7458TIP3    H122331   0.123   5.993   0.367  1.4465  0.2501 -1.5456
 7458TIP3    H222332   0.017   6.076   0.298 -0.5279 -0.5180  0.4404
 7459TIP3   OH222333   1.777   6.693   4.149 -0.3427  0.0381  0.2021
 7459TIP3    H122334   1.762   6.625   4.216 -2.7922  0.0743 -0.2227
 7459TIP3    H222335   1.794   6.772   4.200  1.2927 -0.5902  0.7111
 7460TIP3   OH222336   6.115   1.803   4.223  0.3974 -0.4196  0.0752
 7460TIP3    H122337   6.158   1.810   4.138  0.9861  0.2929  0.4239
 7460TIP3    H222338   6.062   1.724   4.217 -1.7556  1.0488 -1.9261
 7461TIP3   OH222339   4.206   0.102   4.208  0.0270 -0.0715  0.0234
 7461TIP3    H122340   4.157   0.109   4.126  1.6790  0.5786 -0.9641
 7461TIP3    H222341   4.140   0.113   4.277 -1.4506 -0.9513 -1.1904
 7462TIP3   OH222342   3.794   2.978   4.865  0.1107  0.1552  0.0836
 7462TIP3    H122343   3.722   3.015   4.814  0.8685  1.4431 -0.0902
 7462TIP3    H222344   3.758   2.897   4.900 -0.9466  0.0174 -1.2011
 7463TIP3   OH222345   4.304   6.972   1.947 -0.3333 -0.1286 -0.1872
 7463TIP3    H122346   4.386   6.927   1.928 -0.8365 -1.1960  0.0770
 7463TIP3    H222347   4.259   6.977   1.863 -0.5251 -0.6502 -0.1200
 7464TIP3   OH222348   0.410   7.784   2.400  0.5136 -0.2457  0.1213
 7464TIP3    H122349   0.504   7.771   2.408  0.7221 -0.0137 -1.6025
 7464TIP3    H222350   0.389   7.753   2.312 -1.1339 -0.8515  0.6842
 7465TIP3   OH222351   7.565   4.329   2.235  0.1694 -0.1809 -0.2260
 7465TIP3    H122352   7.573   4.413   2.190  2.0999 -0.6319 -0.8072
 7465TIP3    H222353   7.500   4.344   2.303 -0.0254  1.5824 -0.7627
 7466TIP3   OH222354   5.639   1.714   0.873 -0.1037  0.0044 -0.0461
 7466TIP3    H122355   5.626   1.679   0.961  0.2970  0.1459  0.0749
 7466TIP3    H222356   5.717   1.669   0.841 -1.3741 -1.5208 -1.1090
 7467TIP3   OH222357   7.848   7.049   0.298  0.1501 -0.0464  0.0737
 7467TIP3    H122358   7.817   6.959   0.307  1.1948 -0.2736  1.9078
 7467TIP3    H222359   7.821   7.092   0.379  1.1845  0.8127 -0.0204
 7468TIP3   OH222360   2.193   2.916   4.127 -0.2673  0.5922 -0.3875
 7468TIP3    H122361   2.289   2.922   4.124 -0.1779  0.2334  0.9285
 7468TIP3    H222362   2.175   2.871   4.209 -1.5145 -0.9848 -1.4622
 7469TIP3   OH222363   8.140   2.976   2.969 -0.1779 -0.1746  0.0136
 7469TIP3    H122364   8.107   3.056   3.010 -2.2531 -0.3443 -1.1709
 7469TIP3    H222365   8.063   2.920   2.961  1.1471 -2.1557  0.4214
 7470TIP3   OH222366   7.053   0.779   3.563  0.2487 -0.1597  0.6333
 7470TIP3    H122367   7.005   0.829   3.497 -0.7443 -0.0677  1.3945
 7470TIP3    H222368   7.091   0.844   3.621 -0.5431 -0.2407  1.2754
 7471TIP3   OH222369   1.522   0.846   2.689 -0.1317  0.9809 -0.4429
 7471TIP3    H122370   1.523   0.775   2.754 -0.8473  0.3039 -1.1524
 7471TIP3    H222371   1.555   0.922   2.737 -1.1707  0.6436  0.8948
 7472TIP3   OH222372   7.584   1.062   1.240  0.3126 -0.4323 -0.5693
 7472TIP3    H122373   7.554   1.153   1.241 -1.1612 -0.8125  2.6636
 7472TIP3    H222374   7.511   1.014   1.201  0.6534 -0.3997 -1.2772
 7473TIP3   OH222375   6.059   1.503   2.572 -0.4126  0.1088 -0.0405
 7473TIP3    H122376   6.030   1.592   2.589 -0.0692  0.1177  0.5117
 7473TIP3    H222377   5.986   1.448   2.599 -0.0444  0.1455  1.0835
 7474TIP3   OH222378   8.248   7.170   3.372 -0.7962 -0.1985  0.0645
 7474TIP3    H122379   8.182   7.229   3.409 -2.3785 -0.9454 -1.4265
 7474TIP3    H222380   8.230   7.086   3.414  0.6022  0.0254  1.1938
 7475TIP3   OH222381   8.083   2.597   1.055  0.1095 -0.2221 -0.1859
 7475TIP3    H122382   8.129   2.608   0.972  1.9220  1.5727  0.9627
 7475TIP3    H222383   8.014   2.663   1.053  1.3815  1.1960  0.4535
 7476TIP3   OH222384   7.120   2.766   1.811  0.1461 -0.0429 -0.2648
 7476TIP3    H122385   7.104   2.823   1.736  3.8927  1.2548 -0.2951
 7476TIP3    H222386   7.071   2.806   1.883 -0.2874  1.0228 -1.1316
 7477TIP3   OH222387   7.582   0.929   5.241  0.1452  0.4638  0.2170
 7477TIP3    H122388   7.600   0.863   5.308 -0.4345  0.6689  0.5736
 7477TIP3    H222389   7.572   1.011   5.289  1.6731  0.9938 -0.2832
 7478TIP3   OH222390   6.410   2.709   3.829  0.2396 -0.0853 -0.4412
 7478TIP3    H122391   6.349   2.691   3.757 -2.0206  2.0481  0.7961
 7478TIP3    H222392   6.495   2.721   3.786 -0.9604  0.8655 -2.7355
 7479TIP3   OH222393   4.702   1.565   4.427 -0.3935 -0.3520 -0.0969
 7479TIP3    H122394   4.655   1.488   4.460  1.2724 -1.1819  0.4518
 7479TIP3    H222395   4.750   1.533   4.350  0.7395 -0.0188  0.4477
 7480TIP3   OH222396   7.960   6.439   3.346  0.3642  0.5245  0.2658
 7480TIP3    H122397   8.013   6.415   3.422 -1.5212  1.2703  1.9067
 7480TIP3    H222398   7.919   6.357   3.319  0.5908  0.3561  0.4278
 7481TIP3   OH222399   3.419   6.198   3.171 -0.4985 -0.0513 -0.8560
 7481TIP3    H122400   3.334   6.215   3.131  1.1066 -1.3496 -5.5418
 7481TIP3    H222401   3.426   6.103   3.173  0.9384  0.0272 -0.9227
 7482TIP3   OH222402   7.035   5.858   0.675 -0.4612  0.1282 -0.6774
 7482TIP3    H122403   7.036   5.954   0.672  1.1182  0.1589 -0.1543
 7482TIP3    H222404   7.040   5.831   0.583 -2.4511  0.4975 -0.9409
 7483TIP3   OH222405   2.581   4.665   4.879 -0.0017  0.3229 -0.3542
 7483TIP3    H122406   2.568   4.757   4.901  1.3148  0.5161 -0.3007
 7483TIP3    H222407   2.589   4.664   4.783 -1.4575  0.0584 -0.4869
 7484TIP3   OH222408   0.060  -0.019   4.157 -0.1655  0.1998  0.2098
 7484TIP3    H122409   0.067   0.073   4.132 -0.0051  0.3198  0.6915
 7484TIP3    H222410   0.149  -0.053   4.149 -0.2645  0.0226 -0.1922
 7485TIP3   OH222411   5.866   7.253   4.186 -0.2241  0.2226 -0.2676
 7485TIP3    H122412   5.914   7.171   4.194  0.0172  0.3051 -0.8451
 7485TIP3    H222413   5.817   7.245   4.105  1.0874  1.2903 -1.2124
 7486TIP3   OH222414   3.545   2.330   6.190 -0.5270 -0.1059 -0.0523
 7486TIP3    H122415   3.460   2.287   6.196 -0.5349  0.0682  1.4982
 7486TIP3    H222416   3.554   2.377   6.273  0.3937  1.1741 -0.8345
 7487TIP3   OH222417   2.561   2.466   2.936 -0.2120 -0.3776  1.0024
 7487TIP3    H122418   2.548   2.548   2.890  1.2658 -0.2703  0.7224
 7487TIP3    H222419   2.634   2.483   2.996 -0.6780 -1.1412  1.8275
 7488TIP3   OH222420   1.029   3.072   4.531 -0.1255  0.2012  0.7515
 7488TIP3    H122421   1.117   3.037   4.516 -0.5295 -0.3510 -0.4395
 7488TIP3    H222422   0.978   2.995   4.555 -0.5879  0.2854  0.0528
 7489TIP3   OH222423   1.856   0.634   1.506 -0.0490 -0.1674  0.0823
 7489TIP3    H122424   1.908   0.576   1.561 -0.3481 -0.0395  0.5138
 7489TIP3    H222425   1.856   0.718   1.553 -1.1396 -0.3312  0.4150
 7490TIP3   OH222426   5.353   4.731   5.198 -0.5438  0.3878 -0.0497
 7490TIP3    H122427   5.268   4.689   5.210 -0.1505 -0.1683  0.9242
 7490TIP3    H222428   5.400   4.671   5.139 -0.0371 -0.5101  1.2200
 7491TIP3   OH222429   0.712   4.290   5.441  0.0688 -0.0824  0.4884
 7491TIP3    H122430   0.783   4.330   5.390  0.5256 -0.4551  0.8142
 7491TIP3    H222431   0.633   4.336   5.414  0.4928  0.5959  0.3849
 7492TIP3   OH222432   3.907   2.035   2.346  0.0486 -0.0579  0.2923
 7492TIP3    H122433   3.971   2.021   2.416  0.9085  0.9371 -0.2643
 7492TIP3    H222434   3.834   2.081   2.389 -0.5773 -1.6527  1.0408
 7493TIP3   OH222435   2.889   0.297   3.665 -0.2208  0.1493  0.2698
 7493TIP3    H122436   2.843   0.251   3.736  2.8097 -0.8439  1.7554
 7493TIP3    H222437   2.853   0.259   3.585 -1.2756 -1.2639  1.3455
 7494TIP3   OH222438   4.702   5.426   0.107 -0.3413  0.1038 -0.6094
 7494TIP3    H122439   4.659   5.351   0.065 -1.1153 -0.0508  0.4235
 7494TIP3    H222440   4.784   5.437   0.058  0.0668 -1.7988 -0.4388
 7495TIP3   OH222441   3.172   7.138   4.904 -0.6113  1.0058 -0.1360
 7495TIP3    H122442   3.210   7.185   4.830  0.8554  1.7486  1.0221
 7495TIP3    H222443   3.157   7.049   4.872  0.3762  1.2069 -1.2026
 7496TIP3   OH222444   0.911   7.613   1.324  0.2608 -0.1770  0.3656
 7496TIP3    H122445   0.835   7.580   1.277 -0.2558  0.2090  0.9185
 7496TIP3    H222446   0.881   7.625   1.414  1.1174 -0.5189  0.7161
 7497TIP3   OH222447   1.939   0.442   6.115 -0.2382  0.2782 -0.8857
 7497TIP3    H122448   1.847   0.415   6.125 -0.1758  0.8022  1.6762
 7497TIP3    H222449   1.953   0.441   6.020 -2.9119  0.2703 -1.3776
 7498TIP3   OH222450   2.239   5.038   2.056 -0.2081  0.0477  0.5592
 7498TIP3    H122451   2.233   5.134   2.061 -0.7013  0.0298  0.3342
 7498TIP3    H222452   2.325   5.022   2.018 -0.8117  0.4564 -1.0613
 7499TIP3   OH222453   3.664   4.025   5.475 -0.0580 -0.2117 -0.1400
 7499TIP3    H122454   3.652   4.077   5.554  1.2174  0.2429 -0.2319
 7499TIP3    H222455   3.652   3.934   5.504 -1.0168  0.0332  0.2689
 7500TIP3   OH222456   3.176   1.298   5.773  0.6053  0.7033  0.2299
 7500TIP3    H122457   3.111   1.246   5.725  0.7598  2.0209 -1.5029
 7500TIP3    H222458   3.256   1.292   5.719  1.0956  1.3865  0.8609
 7501TIP3   OH222459   0.012   2.073   0.216  0.0020 -0.4002  0.4199
 7501TIP3    H122460   0.065   2.146   0.186  0.5819 -0.8618  0.2851
 7501TIP3    H222461   0.006   2.085   0.311  0.5897 -0.4844  0.4741
 7502TIP3   OH222462   2.035   3.711   1.762  0.5013 -0.2366  0.4414
 7502TIP3    H122463   2.112   3.735   1.710 -0.4272 -1.3814 -1.6035
 7502TIP3    H222464   1.978   3.789   1.758  0.8945  0.0678  0.6868
 7503TIP3   OH222465   6.502   6.695   4.823 -0.0741  0.3517 -0.3411
 7503TIP3    H122466   6.420   6.679   4.870  1.2811 -1.8782  1.4540
 7503TIP3    H222467   6.501   6.630   4.752  0.2691  0.1293 -0.1412
 7504TIP3   OH222468   0.542   6.604   3.961  0.5639  0.6289 -0.0678
 7504TIP3    H122469   0.515   6.693   3.935 -0.0121  0.6654  0.6215
 7504TIP3    H222470   0.555   6.610   4.055  0.4911 -0.0281 -0.0153
 7505TIP3   OH222471   2.436   0.486   1.626  0.5277 -0.1145 -0.4289
 7505TIP3    H122472   2.379   0.539   1.570  0.7020  1.0660  0.4848
 7505TIP3    H222473   2.444   0.536   1.707  0.4600 -1.6990  0.5875
 7506TIP3   OH222474   0.944   5.913   2.303  0.4916  0.1697 -0.1801
 7506TIP3    H122475   0.871   5.966   2.334 -0.5382  0.9820 -3.5188
 7506TIP3    H222476   1.018   5.939   2.358 -0.9115  2.0517  0.9400
 7507TIP3   OH222477   6.900   4.433   4.685 -0.0535  0.6408 -0.3503
 7507TIP3    H122478   6.852   4.509   4.717  2.4407  2.6528 -1.0292
 7507TIP3    H222479   6.902   4.444   4.590  0.5505 -0.1758 -0.4457
 7508TIP3   OH222480   6.488   4.687   4.818  0.5196  0.5102 -0.1013
 7508TIP3    H122481   6.468   4.777   4.843 -0.4393 -0.0026  1.1400
 7508TIP3    H222482   6.452   4.678   4.730 -0.3172  1.0534  0.1679
 7509TIP3   OH222483   6.936   6.679   0.877  0.3976  0.3032 -0.8086
 7509TIP3    H122484   6.993   6.720   0.812  2.8981  0.9329  1.5764
 7509TIP3    H222485   6.927   6.745   0.946 -0.5227 -1.0233  0.3950
 7510TIP3   OH222486   1.147   5.809   4.956 -0.0596  0.0962 -0.5516
 7510TIP3    H122487   1.228   5.802   4.906  0.1534 -0.3300 -0.1465
 7510TIP3    H222488   1.095   5.733   4.928  0.8572 -1.2800  1.3019
 7511TIP3   OH222489   5.146   1.096   5.823  0.3499 -0.1752  0.1931
 7511TIP3    H122490   5.118   1.059   5.907 -0.0028 -0.2015  0.0658
 7511TIP3    H222491   5.078   1.159   5.801  2.0762  2.3331  1.5337
 7512TIP3   OH222492   8.148   4.871  -0.003 -0.2166 -0.2172  0.3055
 7512TIP3    H122493   8.078   4.909   0.050 -0.5167 -2.1142  1.3552
 7512TIP3    H222494   8.228   4.913   0.028 -0.7101  0.7974  0.2180
 7513TIP3   OH222495   3.489   0.428   5.784  0.3533 -0.5189 -0.1799
 7513TIP3    H122496   3.533   0.453   5.702  0.7864  0.7184  0.4168
 7513TIP3    H222497   3.400   0.461   5.775  0.3893 -0.4186 -0.1714
 7514TIP3   OH222498   8.038   6.670   2.115 -0.2763 -0.4822 -0.0827
 7514TIP3    H122499   7.980   6.672   2.191 -0.9008 -0.4068 -0.5553
 7514TIP3    H222500   8.093   6.594   2.129 -0.0959 -0.2254  0.6577
 7515TIP3   OH222501   0.861   0.928   0.601  0.0627  0.6190  0.4246
 7515TIP3    H122502   0.773   0.963   0.587 -0.0291 -0.1986 -1.3065
 7515TIP3    H222503   0.846   0.850   0.656 -0.3810  0.1806 -0.2957
 7516TIP3   OH222504   2.179   4.740   2.520  0.3625  0.0395  0.0870
 7516TIP3    H122505   2.258   4.788   2.543  1.3022 -0.9519 -0.9000
 7516TIP3    H222506   2.130   4.732   2.602  1.5961  0.1386  0.8592
 7517TIP3   OH222507   4.803   1.121   1.613  0.5524 -0.1174 -0.1794
 7517TIP3    H122508   4.807   1.034   1.574 -2.4532 -1.0742  1.3031
 7517TIP3    H222509   4.843   1.110   1.699 -0.9672 -0.4518  0.5230
 7518TIP3   OH222510   4.090   4.230   3.861  0.3587 -0.0360  0.1033
 7518TIP3    H122511   4.031   4.263   3.793 -1.2411 -0.3224  1.2945
 7518TIP3    H222512   4.102   4.304   3.920 -1.0946 -0.7094  1.3388
 7519TIP3   OH222513   6.039   7.073   0.389 -0.3253 -0.3084  0.4630
 7519TIP3    H122514   6.088   7.149   0.421  0.1950  0.1022 -1.1722
 7519TIP3    H222515   6.085   6.997   0.424  1.3932  0.0762 -0.8342
 7520TIP3   OH222516   5.094   3.292   1.110  0.1003  0.5792 -0.5806
 7520TIP3    H122517   5.090   3.363   1.046 -1.1086  0.4345 -0.6840
 7520TIP3    H222518   5.141   3.331   1.185  0.1727  1.2263 -0.9542
 7521TIP3   OH222519   2.764   4.013   5.041 -0.1100 -0.4256  0.1272
 7521TIP3    H122520   2.852   4.004   5.077  0.4271 -0.9093 -1.2244
 7521TIP3    H222521   2.743   4.105   5.051 -0.0813 -0.5682  1.8121
 7522TIP3   OH222522   3.780   0.591   6.365 -0.1999  0.0141  0.6411
 7522TIP3    H122523   3.790   0.509   6.316 -0.2073  0.2728  0.2040
 7522TIP3    H222524   3.729   0.648   6.307  0.8648  0.7631  0.4178
 7523TIP3   OH222525   6.610   4.546   1.487 -0.3763 -0.2385  0.8318
 7523TIP3    H122526   6.537   4.606   1.501 -0.0767  0.1569  0.7197
 7523TIP3    H222527   6.623   4.504   1.572  0.5378  1.1412  1.4281
 7524TIP3   OH222528   0.653   3.402   3.705  0.1289 -0.4295  0.0091
 7524TIP3    H122529   0.674   3.335   3.640  0.5441  0.6955 -1.0762
 7524TIP3    H222530   0.559   3.418   3.694  0.3632  0.3937 -0.9937
 7525TIP3   OH222531   6.570   1.971   4.967 -0.2083 -0.4475 -0.2294
 7525TIP3    H122532   6.610   1.932   4.889  4.9412  0.3777  1.6405
 7525TIP3    H222533   6.582   1.906   5.036  1.4828  1.3329  1.2516
 7526TIP3   OH222534   6.666   7.821   4.399 -0.0490  0.0038  0.0063
 7526TIP3    H122535   6.749   7.820   4.350  0.1009  0.3000  0.2530
 7526TIP3    H222536   6.676   7.752   4.464  0.5865  0.9857  0.9878
 7527TIP3   OH222537   2.900   3.336   1.905  0.3424 -0.3999 -0.4516
 7527TIP3    H122538   2.972   3.354   1.965  1.5075 -0.3511 -1.8260
 7527TIP3    H222539   2.902   3.409   1.843 -2.2957  0.8006  0.7079
 7528TIP3   OH222540   4.580   2.633   6.149 -0.7108 -0.4221 -0.3023
 7528TIP3    H122541   4.609   2.619   6.239 -0.4535  2.3791  0.1372
 7528TIP3    H222542   4.485   2.643   6.155 -0.5377  1.3271 -0.0554
 7529TIP3   OH222543   1.571   3.387   6.040 -0.1665 -0.4094  0.1392
 7529TIP3    H122544   1.498   3.448   6.030 -0.1574 -0.3533  0.4015
 7529TIP3    H222545   1.550   3.336   6.118  0.4714  0.1773  0.7112
 7530TIP3   OH222546   2.766   1.822   2.596  0.1876 -0.8453  0.2448
 7530TIP3    H122547   2.686   1.769   2.603  0.7361 -1.6971  0.1735
 7530TIP3    H222548   2.818   1.778   2.529 -0.0588  0.7445 -1.0760
 7531TIP3   OH222549   0.411   7.119   4.126  0.0172  0.4779 -0.4457
 7531TIP3    H122550   0.503   7.124   4.153  0.3724  0.4728 -1.5659
 7531TIP3    H222551   0.373   7.052   4.181  0.1726  1.8437  1.4107
 7532TIP3   OH222552   3.399   2.520   2.606 -0.3500 -0.0803  0.2564
 7532TIP3    H122553   3.342   2.521   2.529 -0.9784  1.1118  0.7108
 7532TIP3    H222554   3.340   2.536   2.680  0.3144 -0.6923  0.9321
 7533TIP3   OH222555   0.093   3.576   6.162  0.4965 -0.2546 -0.2849
 7533TIP3    H122556   0.048   3.643   6.213  0.5905 -0.2991 -0.1419
 7533TIP3    H222557   0.023   3.520   6.127  0.4587 -0.5583  0.2654
 7534TIP3   OH222558   7.886   3.245   1.252  0.3218 -0.0991  0.2452
 7534TIP3    H122559   7.837   3.326   1.264 -1.2445 -0.9032 -0.3957
 7534TIP3    H222560   7.851   3.186   1.319 -0.5107 -1.0739 -0.9947
 7535TIP3   OH222561   3.283   1.721   2.448 -0.0083 -0.5652 -0.0483
 7535TIP3    H122562   3.378   1.708   2.436  0.1651  1.3912 -1.2053
 7535TIP3    H222563   3.249   1.734   2.360 -1.1184  0.2295  0.4725
 7536TIP3   OH222564   4.140   1.837   4.589 -0.3666 -0.0412 -0.2077
 7536TIP3    H122565   4.177   1.802   4.508  0.0085 -1.7022  0.6377
 7536TIP3    H222566   4.075   1.772   4.615  0.8305 -0.5103  1.7753
 7537TIP3   OH222567   0.183   5.562   6.712  0.2869  0.2130 -0.0245
 7537TIP3    H122568   0.093   5.561   6.744  0.0631 -0.5611 -0.6619
 7537TIP3    H222569   0.236   5.581   6.790 -0.3107 -0.7434  0.6264
 7538TIP3   OH222570   5.131   3.821   3.409 -0.6569  0.2335 -0.5848
 7538TIP3    H122571   5.137   3.809   3.314 -0.2697  0.9305 -0.6508
 7538TIP3    H222572   5.067   3.891   3.420  0.5869  1.3601 -0.4098
 7539TIP3   OH222573   0.596   5.163   3.805 -0.0625  0.3866  0.2161
 7539TIP3    H122574   0.656   5.131   3.872 -0.8837  1.4176  1.5007
 7539TIP3    H222575   0.614   5.257   3.801  0.3366  0.2635 -1.4168
 7540TIP3   OH222576   0.057   7.218   3.904  0.2446 -0.9533 -0.0485
 7540TIP3    H122577   0.147   7.199   3.927 -0.0562 -1.3723  0.8124
 7540TIP3    H222578   0.038   7.159   3.830  0.8618 -0.4056 -0.6560
 7541TIP3   OH222579   1.589   6.109   5.562  0.0107 -0.3328 -0.5950
 7541TIP3    H122580   1.658   6.170   5.536 -0.5477  1.2126  1.3275
 7541TIP3    H222581   1.511   6.140   5.517 -0.7992  1.9274  2.0496
 7542TIP3   OH222582   1.641   6.361   4.108 -0.1156  0.0492 -0.1265
 7542TIP3    H122583   1.584   6.365   4.184  0.4385  1.7611  0.2430
 7542TIP3    H222584   1.711   6.301   4.134 -0.6165 -0.3949  0.2102
 7543TIP3   OH222585   5.778   4.245   1.702 -0.4516  0.0426 -0.2009
 7543TIP3    H122586   5.788   4.186   1.627 -1.4017 -1.9721  1.1850
 7543TIP3    H222587   5.710   4.307   1.674  0.4930  0.4841 -1.6420
 7544TIP3   OH222588   5.722   3.364   2.283 -0.5695  0.2437  0.5754
 7544TIP3    H122589   5.645   3.368   2.227  0.7883  1.0292 -1.3730
 7544TIP3    H222590   5.769   3.446   2.264  0.6287 -0.0955  1.8810
 7545TIP3   OH222591   0.646   4.887   1.137  0.2646  0.2654 -0.5645
 7545TIP3    H122592   0.610   4.817   1.191  2.1767 -0.8117 -0.5673
 7545TIP3    H222593   0.675   4.843   1.057 -0.2240  1.4049 -1.3960
 7546TIP3   OH222594   7.545   3.835   4.148  0.3358 -0.0915 -0.1822
 7546TIP3    H122595   7.472   3.894   4.127 -0.0365 -1.1828 -2.1890
 7546TIP3    H222596   7.615   3.893   4.177 -0.8626  1.1021  0.4680
 7547TIP3   OH222597   5.580   0.927   4.161  0.4065  0.7421  0.2868
 7547TIP3    H122598   5.604   0.843   4.201  1.3728  0.5060 -0.7240
 7547TIP3    H222599   5.520   0.967   4.223  0.3750 -0.4496  1.0594
 7548TIP3   OH222600   3.419   6.958   2.183  0.2983  0.3781  0.4604
 7548TIP3    H122601   3.399   7.013   2.258  0.2282 -0.0817  0.7823
 7548TIP3    H222602   3.515   6.950   2.184  0.4547  1.7095 -0.4644
 7549TIP3   OH222603   0.545   3.935   4.082  0.6350 -0.3236  0.5931
 7549TIP3    H122604   0.615   3.998   4.099 -0.4968  0.8840  0.8711
 7549TIP3    H222605   0.587   3.849   4.095  2.4705  0.2860 -0.7983
 7550TIP3   OH222606   3.732   2.248   6.019 -0.2956 -0.5253  0.3276
 7550TIP3    H122607   3.818   2.251   6.061 -0.3927 -1.4317  0.6107
 7550TIP3    H222608   3.671   2.275   6.087 -0.2952 -0.4479  0.2975
 7551TIP3   OH222609   6.251   5.405   2.400  0.0932  0.6312  0.0570
 7551TIP3    H122610   6.346   5.409   2.390  0.2808  0.3844  1.5064
 7551TIP3    H222611   6.217   5.460   2.329  1.3917  2.3100  0.6730
 7552TIP3   OH222612   3.146   7.202   3.419 -0.2776  0.6763  0.7124
 7552TIP3    H122613   3.161   7.120   3.467  0.8302  0.4997  0.0867
 7552TIP3    H222614   3.069   7.183   3.364  1.5894 -0.9631 -1.5342
 7553TIP3   OH222615   7.837   6.328   5.331 -0.5066  0.1434  0.6597
 7553TIP3    H122616   7.787   6.389   5.277  1.5816  1.0973 -0.3127
 7553TIP3    H222617   7.858   6.378   5.410  0.3243  0.3461  0.3183
 7554TIP3   OH222618   2.634   1.263   5.899  0.5877 -0.0990  0.4930
 7554TIP3    H122619   2.587   1.298   5.974  0.4141  1.6282 -0.3723
 7554TIP3    H222620   2.694   1.333   5.873  0.6422 -0.6454 -0.9511
 7555TIP3   OH222621   2.620   2.887   6.451  0.0196 -0.0688  0.2902
 7555TIP3    H122622   2.656   2.949   6.514  1.6507 -0.2586 -0.4091
 7555TIP3    H222623   2.652   2.802   6.480 -0.4206 -0.3336  0.0198
 7556TIP3   OH222624   6.981   5.030   3.266  0.0855 -0.2752  0.7803
 7556TIP3    H122625   6.969   5.015   3.172 -1.6047 -0.9586  1.0636
 7556TIP3    H222626   7.004   4.944   3.301  0.2372 -0.1239  1.0559
 7557TIP3   OH222627   3.308   4.062   1.162  0.3723 -0.0131  0.6509
 7557TIP3    H122628   3.364   4.110   1.101  0.6074  0.1498  0.9888
 7557TIP3    H222629   3.345   3.974   1.163  0.2827 -0.0531  0.4531
 7558TIP3   OH222630   6.816   2.563   3.539 -0.1962 -0.2943 -0.3784
 7558TIP3    H122631   6.796   2.509   3.462  1.1935 -1.6809  0.1861
 7558TIP3    H222632   6.885   2.515   3.585 -0.0058  1.2095  0.9968
 7559TIP3   OH222633   6.961   4.258   4.877 -0.2033  0.0286 -0.5023
 7559TIP3    H122634   6.957   4.297   4.790  0.3415  2.2021  0.3656
 7559TIP3    H222635   6.920   4.323   4.934 -2.7322 -2.3270  0.6290
 7560TIP3   OH222636   2.080   3.893   3.539  0.6166 -0.4364 -0.5873
 7560TIP3    H122637   2.130   3.926   3.464  0.4281 -0.6132 -0.7918
 7560TIP3    H222638   2.085   3.798   3.532  1.8830 -0.4779  0.4908
 7561TIP3   OH222639   6.468   4.155   5.355 -0.2742 -0.5268 -0.2770
 7561TIP3    H122640   6.404   4.086   5.340 -1.8615  0.9121 -0.5104
 7561TIP3    H222641   6.499   4.179   5.268 -1.6392  0.7216 -0.4655
 7562TIP3   OH222642   8.052   4.713   4.098 -0.7498  0.0792 -0.2769
 7562TIP3    H122643   8.132   4.764   4.088 -0.1675 -0.7819 -0.0509
 7562TIP3    H222644   7.985   4.766   4.054  0.1060  0.3920 -1.2401
 7563TIP3   OH222645   5.563   4.728   2.001 -0.2219 -0.3675 -0.1624
 7563TIP3    H122646   5.604   4.810   2.031  0.7633 -0.4921 -1.1059
 7563TIP3    H222647   5.634   4.664   2.003 -0.5904 -0.8059 -0.9810
 7564TIP3   OH222648   6.767   2.274   0.295  0.4976  1.0389  0.1264
 7564TIP3    H122649   6.855   2.258   0.261  0.4305  1.2689 -0.1567
 7564TIP3    H222650   6.745   2.362   0.265  0.0625  0.8778 -0.0343
 7565TIP3   OH222651   6.263   7.336   4.928 -0.2994 -0.2908 -0.6684
 7565TIP3    H122652   6.342   7.378   4.894  0.1436 -0.2722  0.3737
 7565TIP3    H222653   6.225   7.291   4.852 -0.1357  0.9830 -1.5397
 7566TIP3   OH222654   7.788   1.128   5.078 -0.0825 -0.4994 -0.1916
 7566TIP3    H122655   7.877   1.100   5.058 -0.5021 -0.8091 -1.7698
 7566TIP3    H222656   7.793   1.164   5.167  1.1711 -2.4151  0.5653
 7567TIP3   OH222657   2.614   3.807   5.209 -0.5462 -0.4965 -0.3274
 7567TIP3    H122658   2.707   3.797   5.188 -0.8067  0.6171 -2.2406
 7567TIP3    H222659   2.611   3.882   5.269 -0.2536 -0.0034 -0.9093
 7568TIP3   OH222660   1.099   4.389   4.916 -0.0183  0.1547 -0.6484
 7568TIP3    H122661   1.113   4.458   4.850  1.1307  1.2713  0.6893
 7568TIP3    H222662   1.185   4.378   4.956 -1.3038  1.9942  3.0100
 7569TIP3   OH222663   6.762   6.787   5.208 -0.1828  0.3241  0.2441
 7569TIP3    H122664   6.800   6.704   5.237 -0.8652  0.3406  1.2568
 7569TIP3    H222665   6.837   6.842   5.189  0.3116  0.0410  1.2820
 7570TIP3   OH222666   5.163   2.243   6.188  0.4585 -0.0495  0.1744
 7570TIP3    H122667   5.134   2.154   6.206  0.0546 -0.1842 -1.0454
 7570TIP3    H222668   5.214   2.237   6.108  0.1798  0.8527 -0.0923
 7571TIP3   OH222669   2.624   1.891   6.594 -0.0637  0.6742 -0.1202
 7571TIP3    H122670   2.665   1.812   6.558  0.7873  0.4621  1.2025
 7571TIP3    H222671   2.684   1.919   6.664 -1.8061  0.7913  1.4107
 7572TIP3   OH222672   7.981   4.847   4.399 -0.4760 -0.6459  0.1541
 7572TIP3    H122673   7.996   4.753   4.408  1.1400 -0.2052  3.2503
 7572TIP3    H222674   8.068   4.883   4.380 -0.8731  0.3568  0.2012
 7573TIP3   OH222675   5.391   6.280   1.726 -0.5151 -0.4769 -0.6717
 7573TIP3    H122676   5.383   6.194   1.767  0.0317 -0.1189  0.2088
 7573TIP3    H222677   5.420   6.262   1.637 -1.1251 -1.2355 -0.7263
 7574TIP3   OH222678   8.242   4.411   1.086 -0.6320 -0.5812  0.5633
 7574TIP3    H122679   8.259   4.506   1.090  2.6547 -0.8172 -2.7905
 7574TIP3    H222680   8.178   4.402   1.015 -0.1892 -0.9315  0.2105
 7575TIP3   OH222681   6.671   2.335   5.900 -0.0340  0.1818 -0.6691
 7575TIP3    H122682   6.736   2.373   5.958 -2.0246 -0.4542  2.1589
 7575TIP3    H222683   6.716   2.261   5.859  1.4120  0.5819  0.1267
 7576TIP3   OH222684   0.602   4.873   3.021 -0.3425  0.5897 -0.2063
 7576TIP3    H122685   0.633   4.881   3.112  1.0859 -1.0424 -0.5056
 7576TIP3    H222686   0.520   4.825   3.028  1.3620 -2.5352  0.0905
 7577TIP3   OH222687   1.081   0.266   4.402  0.6442  0.0806 -0.5846
 7577TIP3    H122688   1.134   0.293   4.477  1.7205 -2.1122 -0.4702
 7577TIP3    H222689   1.098   0.172   4.393  1.2347  0.3928 -4.0905
 7578TIP3   OH222690   3.221   4.578   1.860 -0.5556  0.6064 -0.0159
 7578TIP3    H122691   3.225   4.644   1.929 -0.4863  0.7584 -0.1653
 7578TIP3    H222692   3.197   4.626   1.782  0.7417  0.6627 -0.4001
 7579TIP3   OH222693   5.111   7.564   4.658 -0.0258  0.4434 -0.2169
 7579TIP3    H122694   5.192   7.599   4.622 -1.2397  2.5505 -1.0277
 7579TIP3    H222695   5.127   7.469   4.664  3.2560  0.9593  1.7100
 7580TIP3   OH222696   2.280   0.134   4.608  0.7504 -0.0515 -0.1328
 7580TIP3    H122697   2.368   0.144   4.644  1.6321  0.9109 -2.3615
 7580TIP3    H222698   2.293   0.086   4.526 -0.9001 -0.4078 -0.2218
 7581TIP3   OH222699   7.614   4.148   3.660 -0.0071  0.1476 -0.2837
 7581TIP3    H122700   7.691   4.200   3.682  1.0110 -1.2530 -0.4030
 7581TIP3    H222701   7.611   4.148   3.565 -0.6081  0.7987 -0.2788
 7582TIP3   OH222702   8.190   5.123   3.003  0.7574  0.3233 -0.0143
 7582TIP3    H122703   8.213   5.184   2.933 -2.4989  0.4295 -1.1705
 7582TIP3    H222704   8.188   5.037   2.960  0.1880  0.1769  0.2924
 7583TIP3   OH222705   1.033   3.533   1.203 -0.1204 -0.6157 -0.0330
 7583TIP3    H122706   1.030   3.616   1.155 -0.4148 -0.2394  0.6126
 7583TIP3    H222707   1.054   3.468   1.137 -2.6309 -0.4485 -1.1227
 7584TIP3   OH222708   3.229   3.010   3.682  0.0702 -0.3075 -0.2970
 7584TIP3    H122709   3.295   2.947   3.655  0.4669 -0.2063  0.4158
 7584TIP3    H222710   3.181   3.030   3.602  2.4296  1.4575 -1.3771
 7585TIP3   OH222711   4.427   4.388   0.424 -0.2816 -0.6663 -0.1976
 7585TIP3    H122712   4.410   4.348   0.339 -2.9673  0.8924 -0.5185
 7585TIP3    H222713   4.510   4.434   0.413  0.3692 -2.0358 -1.3401
 7586TIP3   OH222714   2.916   4.951   2.816 -0.7501  0.2291  0.9534
 7586TIP3    H122715   2.821   4.967   2.817 -0.8440 -0.3082  1.1302
 7586TIP3    H222716   2.924   4.858   2.796 -0.2553  0.2861  0.8905
 7587TIP3   OH222717   3.175   7.541   5.684 -0.4051 -0.7851  0.7969
 7587TIP3    H122718   3.238   7.471   5.700 -0.2323 -0.5573  1.1258
 7587TIP3    H222719   3.198   7.609   5.747  2.1142  1.3707 -2.1652
 7588TIP3   OH222720   6.560   0.409   4.648  0.1288  0.3035 -0.1667
 7588TIP3    H122721   6.504   0.486   4.645 -0.4586  0.0004  1.8958
 7588TIP3    H222722   6.500   0.335   4.637  0.4482  0.0719 -0.3681
 7589TIP3   OH222723   4.977   5.139   1.078 -0.2822  0.3190  0.1171
 7589TIP3    H122724   5.027   5.191   1.015 -0.1208 -0.9852 -0.8738
 7589TIP3    H222725   5.039   5.073   1.109 -1.3920 -1.5279 -1.3666
 7590TIP3   OH222726   0.162   2.524   4.435 -0.0836  0.2838 -0.1835
 7590TIP3    H122727   0.238   2.526   4.376  0.1434  1.7798  0.1031
 7590TIP3    H222728   0.197   2.554   4.519 -1.3017  2.8397 -0.4989
 7591TIP3   OH222729   7.742   3.979   3.174 -0.5856 -0.2208 -0.1129
 7591TIP3    H122730   7.762   3.899   3.222 -0.1840  0.1345  0.3259
 7591TIP3    H222731   7.789   3.971   3.091 -1.3820 -0.8949 -0.5191
 7592TIP3   OH222732   7.545   4.958   6.462  0.1602 -0.3494 -0.9107
 7592TIP3    H122733   7.453   4.962   6.439  0.3016  0.3669 -1.3923
 7592TIP3    H222734   7.554   4.878   6.513 -0.5890 -0.8011 -1.4757
 7593TIP3   OH222735   7.051   4.298   6.342 -0.3897 -0.5051  0.0721
 7593TIP3    H122736   7.107   4.372   6.362 -0.3843 -1.2863  3.8001
 7593TIP3    H222737   7.110   4.222   6.341 -0.9305 -0.9662  0.9974
 7594TIP3   OH222738   2.921   0.023   5.148 -0.5195  0.0023  0.2446
 7594TIP3    H122739   2.913   0.004   5.242  0.3423 -1.3863  0.0626
 7594TIP3    H222740   2.832   0.045   5.121 -1.1619 -1.4495  1.0230
 7595TIP3   OH222741   7.390   6.849   2.826  0.2320  0.7283  0.0321
 7595TIP3    H122742   7.329   6.851   2.752 -1.0251  0.6037  1.0251
 7595TIP3    H222743   7.395   6.940   2.855 -1.6268  0.3963  1.5933
 7596TIP3   OH222744   4.760   2.272   2.061  0.4811  0.4632 -0.0642
 7596TIP3    H122745   4.803   2.234   2.138 -0.1434 -0.1180  0.0026
 7596TIP3    H222746   4.764   2.366   2.077  4.1066  0.6920 -1.3052
 7597TIP3   OH222747   4.441   4.896   6.503  0.8450 -0.0120  0.4343
 7597TIP3    H122748   4.453   4.924   6.413  1.0622 -0.7107  0.2416
 7597TIP3    H222749   4.460   4.802   6.502 -0.3001 -0.2606  0.9783
 7598TIP3   OH222750   6.290   5.962   6.349 -0.3559 -0.4427 -0.3580
 7598TIP3    H122751   6.266   6.015   6.274  0.4011 -0.0076 -0.3025
 7598TIP3    H222752   6.292   5.872   6.316  0.3935 -0.2094 -0.9727
 7599TIP3   OH222753   0.849   5.086   1.889 -0.2480 -0.8203  0.0471
 7599TIP3    H122754   0.918   5.021   1.878 -0.8671 -1.3358 -0.9506
 7599TIP3    H222755   0.831   5.087   1.983  0.3176 -1.5189  0.1694
 7600TIP3   OH222756   7.447   4.256   4.890 -0.7039  0.3203 -0.2828
 7600TIP3    H122757   7.424   4.274   4.982 -2.4790 -0.9756 -0.4160
 7600TIP3    H222758   7.492   4.172   4.893 -0.1068  0.6268 -0.5405
 7601TIP3   OH222759   7.597   0.996   2.424  0.1119 -0.1089  0.0615
 7601TIP3    H122760   7.637   0.956   2.502 -1.7099 -1.1360  0.5164
 7601TIP3    H222761   7.662   0.984   2.355  1.8809  1.0399  1.4416
 7602TIP3   OH222762   6.951   5.692   5.940 -0.8448 -0.4904 -0.2886
 7602TIP3    H122763   6.965   5.779   5.978 -1.3756 -1.3810  2.1431
 7602TIP3    H222764   7.033   5.645   5.957 -0.0811 -0.1545 -2.7110
 7603TIP3   OH222765   0.998   0.951   4.912 -0.3310 -0.5008  0.1261
 7603TIP3    H122766   0.996   1.046   4.904  0.1119 -0.5710 -1.0889
 7603TIP3    H222767   1.009   0.934   5.005  0.7687  0.6600  0.2181
 7604TIP3   OH222768   5.683   7.092   4.865 -0.2931  0.0312  0.5099
 7604TIP3    H122769   5.697   7.115   4.956 -0.4798  0.4872  0.4250
 7604TIP3    H222770   5.707   6.999   4.860  2.6712  0.7107  0.3698
 7605TIP3   OH222771   2.457   3.031   3.854  0.6774 -0.1864 -0.3112
 7605TIP3    H122772   2.367   3.050   3.881  1.0771  3.6462 -1.1070
 7605TIP3    H222773   2.449   2.989   3.769 -0.3541  0.0008 -0.3139
 7606TIP3   OH222774   1.681   6.067   0.774 -0.0278  0.3482 -0.1907
 7606TIP3    H122775   1.769   6.037   0.751  0.7424  1.3125  1.3006
 7606TIP3    H222776   1.695   6.126   0.848 -2.0593 -0.4969  0.9456
 7607TIP3   OH222777   6.381   7.503   0.239  0.0415 -0.3558  0.0451
 7607TIP3    H122778   6.403   7.595   0.255  1.1516 -0.4706 -0.6977
 7607TIP3    H222779   6.335   7.475   0.318  1.0705  0.4065  0.9455
 7608TIP3   OH222780   8.014   4.260   2.844  0.4630 -0.9179 -0.1214
 7608TIP3    H122781   8.084   4.195   2.844 -0.0263 -1.4522 -0.0766
 7608TIP3    H222782   8.016   4.297   2.932 -1.5796 -3.4546  1.1404
 7609TIP3   OH222783   6.852   5.027   1.782  0.4445 -0.0595  0.0785
 7609TIP3    H122784   6.874   5.070   1.865  1.4033 -2.5263  1.2203
 7609TIP3    H222785   6.934   5.027   1.733  0.2040  0.2475 -0.3277
 7610TIP3   OH222786   1.492   5.393   3.225  0.5291  0.0959 -0.1584
 7610TIP3    H122787   1.407   5.377   3.184  1.4315 -1.3095 -1.6178
 7610TIP3    H222788   1.555   5.383   3.153  1.8917  1.9162  0.6918
 7611TIP3   OH222789   7.399   4.825   4.044  1.0338  0.1097 -1.4702
 7611TIP3    H122790   7.335   4.806   3.976  0.6739 -1.0270 -0.8396
 7611TIP3    H222791   7.457   4.748   4.044 -0.0559 -0.7850  0.7004
 7612TIP3   OH222792   0.249   3.549   1.595  0.0464  0.4295  0.3032
 7612TIP3    H122793   0.296   3.592   1.523  0.0373 -1.3003 -0.8147
 7612TIP3    H222794   0.219   3.466   1.557  0.2834 -0.6787  2.3814
 7613TIP3   OH222795   4.566   1.621   5.780  0.0887  0.0801  0.0869
 7613TIP3    H122796   4.514   1.696   5.750  1.2051 -0.1738 -2.7752
 7613TIP3    H222797   4.509   1.545   5.765 -0.4312  0.1610  1.4710
 7614TIP3   OH222798   1.308   0.534   6.384 -0.9058  0.1058  0.2871
 7614TIP3    H122799   1.264   0.449   6.378 -0.5668  0.0257 -1.6907
 7614TIP3    H222800   1.269   0.586   6.314  1.0646  0.5331 -0.5652
 7615TIP3   OH222801   3.031   6.230   0.519 -0.2428  0.1440 -0.3574
 7615TIP3    H122802   3.046   6.323   0.537 -2.1387  0.4532 -0.1070
 7615TIP3    H222803   3.078   6.214   0.437  0.3458  1.2556 -0.2605
 7616TIP3   OH222804   0.208   4.748   0.293 -0.2997 -0.3350 -0.1022
 7616TIP3    H122805   0.276   4.755   0.225  0.6706 -2.2359  0.5962
 7616TIP3    H222806   0.198   4.837   0.327  1.5238  0.0774 -0.5568
 7617TIP3   OH222807   4.357   3.486   0.826 -0.4595 -0.4732  0.0982
 7617TIP3    H122808   4.433   3.486   0.767  0.0589 -0.1408  0.7554
 7617TIP3    H222809   4.312   3.568   0.807 -0.1425 -0.2387  0.3548
 7618TIP3   OH222810   2.649   2.695   3.384  0.6669 -0.3854 -0.4688
 7618TIP3    H122811   2.665   2.712   3.477 -0.5960 -2.4508  0.1946
 7618TIP3    H222812   2.698   2.616   3.365  1.2951  0.2803 -1.7296
 7619TIP3   OH222813   6.246   6.021   6.075  0.1321 -0.0976  0.2748
 7619TIP3    H122814   6.214   6.098   6.028 -2.2921 -0.8464  0.5581
 7619TIP3    H222815   6.277   5.962   6.007 -0.7403 -0.0394 -0.1848
 7620TIP3   OH222816   7.028   7.094   1.087 -0.1115 -0.3130 -0.7235
 7620TIP3    H122817   7.060   7.146   1.161 -0.1411  0.0976 -0.9988
 7620TIP3    H222818   7.106   7.049   1.054  0.5668  1.9399 -2.4269
 7621TIP3   OH222819   8.130   4.969   5.009  0.0118  0.3978  0.4170
 7621TIP3    H122820   8.101   5.059   4.998 -0.4686  0.0890 -1.0198
 7621TIP3    H222821   8.154   4.940   4.921 -0.5746 -1.1261  0.7231
 7622TIP3   OH222822   7.062   2.245   5.642 -0.5349 -0.0991 -0.7357
 7622TIP3    H122823   6.985   2.193   5.621  0.0446 -1.1328 -0.3802
 7622TIP3    H222824   7.125   2.225   5.573 -0.0196 -0.5022 -0.1630
 7623TIP3   OH222825   7.627   0.026   4.226 -0.1161 -0.0976  0.1544
 7623TIP3    H122826   7.603   0.117   4.207  0.7120  0.2857  0.8925
 7623TIP3    H222827   7.655   0.027   4.317 -0.4480 -1.1766  0.2815
 7624TIP3   OH222828   6.734   3.584   3.039  0.5230  0.4297  0.5916
 7624TIP3    H122829   6.730   3.674   3.008  0.0308  0.4810  0.7978
 7624TIP3    H222830   6.806   3.544   2.989  0.0002  0.6161 -0.3275
 7625TIP3   OH222831   7.680   6.365   2.272  0.4842 -0.6612 -0.1245
 7625TIP3    H122832   7.754   6.329   2.322  1.3031  1.7006  0.5192
 7625TIP3    H222833   7.708   6.359   2.181  2.1127  1.2827  0.1589
 7626TIP3   OH222834   1.958   5.417   1.960  0.5361 -0.1567  0.5124
 7626TIP3    H122835   1.901   5.480   2.005 -1.4780 -2.1056  0.8841
 7626TIP3    H222836   2.023   5.391   2.025 -0.5549 -0.7523  1.4034
 7627TIP3   OH222837   5.376   7.356   1.718 -0.0924  0.6912  0.2264
 7627TIP3    H122838   5.425   7.416   1.663 -3.1271  2.4098 -0.8302
 7627TIP3    H222839   5.363   7.278   1.663  0.6957  0.5646  0.2137
 7628TIP3   OH222840   3.073   7.479   4.989  0.0630 -0.9585 -0.1614
 7628TIP3    H122841   3.141   7.413   4.978 -0.5229 -1.5154 -0.4902
 7628TIP3    H222842   3.048   7.473   5.081  0.8538 -0.3554  0.0991
 7629TIP3   OH222843  -0.015   7.752   5.850  0.1538 -0.2109 -0.0298
 7629TIP3    H122844   0.064   7.804   5.837  0.5009 -0.8538 -0.5140
 7629TIP3    H222845  -0.008   7.681   5.787 -1.1048  0.0571 -0.4866
 7630TIP3   OH222846   7.268   5.297   2.561 -0.4821  0.2086  0.4028
 7630TIP3    H122847   7.356   5.305   2.597 -0.1160 -1.1167 -0.1523
 7630TIP3    H222848   7.211   5.292   2.637  0.2083 -1.8050  0.8287
 7631TIP3   OH222849   6.400   6.654   0.185  0.3112 -0.3855 -0.1088
 7631TIP3    H122850   6.403   6.565   0.149  2.4759 -0.7336  0.7781
 7631TIP3    H222851   6.357   6.644   0.270 -0.2840 -0.3911 -0.3988
 7632TIP3   OH222852   2.548   1.482   3.586 -0.2247  0.1234  0.2443
 7632TIP3    H122853   2.571   1.427   3.661 -1.6150  0.2653  0.7982
 7632TIP3    H222854   2.464   1.448   3.556  0.2055  0.2222 -1.1110
 7633TIP3   OH222855   4.307   7.779   4.091  0.2107 -0.5327  0.3877
 7633TIP3    H122856   4.334   7.719   4.021 -0.4431 -1.7267  1.1163
 7633TIP3    H222857   4.267   7.853   4.045  1.8246 -0.2064 -0.5731
 7634TIP3   OH222858   4.619   5.261   1.968 -0.0437  0.2004  0.0521
 7634TIP3    H122859   4.534   5.280   1.930 -0.7144  1.4847  2.0198
 7634TIP3    H222860   4.681   5.309   1.913 -0.6415 -0.2616 -1.0532
 7635TIP3   OH222861   2.666   6.904   0.674 -0.0391 -0.5710  0.3865
 7635TIP3    H122862   2.700   6.817   0.656  1.1123  0.0404 -0.6109
 7635TIP3    H222863   2.587   6.890   0.725  0.6113 -2.1485  1.0013
 7636TIP3   OH222864   0.775   1.161   2.847 -0.8538 -0.2676 -0.1860
 7636TIP3    H122865   0.836   1.235   2.855 -0.9851 -0.3172  1.7001
 7636TIP3    H222866   0.695   1.201   2.813 -0.3698  0.1267 -0.9012
 7637TIP3   OH222867   5.608   6.313   1.311  0.4208 -0.5909 -0.1851
 7637TIP3    H122868   5.559   6.237   1.343 -0.7225 -1.1361 -2.9844
 7637TIP3    H222869   5.694   6.278   1.287  0.6446 -0.5345  0.5022
 7638TIP3   OH222870   5.288   5.335   0.984 -0.0687 -0.0131 -0.4770
 7638TIP3    H122871   5.340   5.403   0.941  0.6341 -0.0615  0.2684
 7638TIP3    H222872   5.210   5.381   1.016  0.4968  0.5028  0.1963
 7639TIP3   OH222873   5.479   5.666   0.401 -0.3516 -0.1945 -0.1391
 7639TIP3    H122874   5.573   5.654   0.412 -0.1741  0.6383 -0.6832
 7639TIP3    H222875   5.459   5.748   0.447 -0.4521  0.6811 -1.6773
 7640TIP3   OH222876   6.492   3.718   1.791  0.2860 -0.6909 -0.1912
 7640TIP3    H122877   6.448   3.677   1.717 -0.1135  0.7913 -0.8021
 7640TIP3    H222878   6.511   3.645   1.850 -0.5383 -1.7276 -1.1515
 7641TIP3   OH222879   2.389   2.807   5.222  0.5152 -0.4291 -0.0214
 7641TIP3    H122880   2.405   2.714   5.204  2.7887 -0.2496  0.6486
 7641TIP3    H222881   2.473   2.839   5.255 -0.4075  1.7239  0.4099
 7642TIP3   OH222882   0.704   3.036   4.833  0.2262 -0.2927 -0.5965
 7642TIP3    H122883   0.638   2.982   4.789 -0.7702 -1.0602  1.6559
 7642TIP3    H222884   0.653   3.106   4.875  0.2529 -2.4784  3.6037
 7643TIP3   OH222885   7.238   3.140   0.607 -0.5973 -0.4762  0.3393
 7643TIP3    H122886   7.191   3.196   0.545  0.6211  1.9632  1.4632
 7643TIP3    H222887   7.327   3.137   0.574  0.0133  0.6595  1.7579
 7644TIP3   OH222888   4.840   1.536   0.889  0.1525  0.0116  0.5460
 7644TIP3    H122889   4.798   1.450   0.891  0.8683 -0.3845 -0.5335
 7644TIP3    H222890   4.932   1.517   0.872 -0.0982  1.0839 -2.4895
 7645TIP3   OH222891   2.076   0.598   6.560  0.2059  0.0412  0.4614
 7645TIP3    H122892   2.118   0.536   6.620 -0.1934  0.9699  1.7400
 7645TIP3    H222893   2.069   0.550   6.477  0.1790 -1.5051  1.3268
 7646TIP3   OH222894   3.217   4.717   1.309  0.1479 -0.4338 -0.1875
 7646TIP3    H122895   3.302   4.718   1.265  1.4709  0.5409  2.2266
 7646TIP3    H222896   3.201   4.625   1.329  0.6551 -0.6149 -0.6048
 7647TIP3   OH222897   3.743   3.887   5.914  0.1612  0.5333  0.6014
 7647TIP3    H122898   3.767   3.832   5.989 -0.0779 -0.1649  0.1788
 7647TIP3    H222899   3.664   3.933   5.942  1.1004  1.6838  1.4425
 7648TIP3   OH222900   4.126   3.550   0.411 -0.0964 -0.2657 -0.3716
 7648TIP3    H122901   4.202   3.506   0.449  0.4616 -0.3465 -1.5437
 7648TIP3    H222902   4.056   3.538   0.475  1.0051  0.2443  0.9534
 7649TIP3   OH222903   6.421   7.200   5.867  0.3004  0.1007 -0.5574
 7649TIP3    H122904   6.337   7.230   5.902 -0.6647 -2.8102 -0.0524
 7649TIP3    H222905   6.417   7.222   5.774 -2.4445 -2.4938 -1.2148
 7650TIP3   OH222906   5.293   3.500   5.170  0.3754  0.3714  0.0901
 7650TIP3    H122907   5.353   3.540   5.106  1.3372 -0.7500  0.2633
 7650TIP3    H222908   5.236   3.444   5.117  1.2860 -0.6959  0.1892
 7651TIP3   OH222909   0.147   1.492   6.336  0.1182 -0.2697  0.4635
 7651TIP3    H122910   0.056   1.520   6.345 -0.2493 -1.0605 -0.6099
 7651TIP3    H222911   0.172   1.464   6.424 -1.0955 -1.2453  0.5252
 7652TIP3   OH222912   2.334   4.490   1.730  0.0042 -0.3365 -0.1519
 7652TIP3    H122913   2.375   4.404   1.733  1.0171  0.1536  0.4216
 7652TIP3    H222914   2.339   4.515   1.637  3.5787  0.8707  0.2184
 7653TIP3   OH222915   2.820   0.742   5.341 -0.2225 -0.1501  0.4678
 7653TIP3    H122916   2.767   0.815   5.308  1.7475  0.8351 -0.7572
 7653TIP3    H222917   2.875   0.781   5.409  1.4786 -0.1872 -0.7986
 7654TIP3   OH222918   4.018   6.199   5.168  0.2259 -0.1568  0.3050
 7654TIP3    H122919   3.948   6.248   5.211  1.2058  1.6564 -0.0956
 7654TIP3    H222920   4.056   6.145   5.237 -2.4628 -2.3499  0.2342
 7655TIP3   OH222921   3.360   7.410   0.394 -0.4491  0.0737 -0.2902
 7655TIP3    H122922   3.442   7.460   0.390 -1.5531  1.9632 -0.4165
 7655TIP3    H222923   3.365   7.363   0.478  0.9981 -0.3061 -0.5608
 7656TIP3   OH222924   1.735   0.857   3.140 -0.2513  0.8187 -0.0157
 7656TIP3    H122925   1.668   0.809   3.188  2.0933 -0.2972  2.3476
 7656TIP3    H222926   1.754   0.802   3.064 -1.6823  0.9899 -0.5440
 7657TIP3   OH222927   3.185   6.132   6.704 -0.0986 -0.9053  0.3253
 7657TIP3    H122928   3.152   6.114   6.616  1.5649  3.2521 -1.4134
 7657TIP3    H222929   3.266   6.080   6.710 -1.2612 -2.7952  0.3202
 7658TIP3   OH222930   4.347   0.974   0.519  0.0422  0.1957 -0.3202
 7658TIP3    H122931   4.308   0.890   0.545 -0.8916  0.3457 -1.1884
 7658TIP3    H222932   4.411   0.950   0.452  0.1218  0.1440 -0.2282
 7659TIP3   OH222933   0.891   4.556   0.391  0.1256  0.2712  0.7111
 7659TIP3    H122934   0.884   4.546   0.486 -2.2834 -1.0342  0.4853
 7659TIP3    H222935   0.800   4.553   0.360  0.8242  1.0368 -1.6184
 7660TIP3   OH222936   7.123   4.956   1.676  0.1926  0.2535  0.1675
 7660TIP3    H122937   7.172   5.003   1.608 -1.6170  0.4225 -1.0907
 7660TIP3    H222938   7.111   4.868   1.640 -0.3444  0.1926  0.4901
 7661TIP3   OH222939   0.600   5.789   4.396  0.1392 -0.3696 -0.3730
 7661TIP3    H122940   0.538   5.759   4.329 -2.3026 -0.0539  1.5666
 7661TIP3    H222941   0.596   5.884   4.390 -0.4670 -0.3294  0.4834
 7662TIP3   OH222942   4.357   1.273   3.672 -0.1004  0.0912  0.0465
 7662TIP3    H122943   4.434   1.320   3.640 -1.2871  2.4274  0.4334
 7662TIP3    H222944   4.358   1.288   3.767  0.1360 -1.7546  0.3785
 7663TIP3   OH222945   2.109   5.397   0.287 -0.3086  0.6452 -0.2560
 7663TIP3    H122946   2.016   5.410   0.307 -0.1131  2.5873 -0.4463
 7663TIP3    H222947   2.119   5.423   0.196  0.3362 -0.1252 -0.4206
 7664TIP3   OH222948   6.126   0.334   2.948  0.0428  0.1646  0.1178
 7664TIP3    H122949   6.195   0.387   2.987 -0.5478  0.9692  0.0979
 7664TIP3    H222950   6.129   0.354   2.854  0.3098 -0.4256 -0.0083
 7665TIP3   OH222951   1.539   1.041   6.273  0.2564  0.4029  0.1759
 7665TIP3    H122952   1.528   0.964   6.219  1.8894  0.9179 -0.9641
 7665TIP3    H222953   1.591   1.011   6.348 -1.1853 -0.0954  1.0203
 7666TIP3   OH222954   1.252   3.876   3.934  0.1791  0.5391 -0.4169
 7666TIP3    H122955   1.263   3.840   4.022 -2.9096  0.8655  0.2223
 7666TIP3    H222956   1.292   3.811   3.876 -1.2871 -1.7446  0.9949
 7667TIP3   OH222957   6.506   2.733   4.687  0.0279 -0.0888 -0.4210
 7667TIP3    H122958   6.530   2.660   4.631  0.1251 -0.3981  0.0151
 7667TIP3    H222959   6.468   2.692   4.765  1.3751  0.2495  0.4622
 7668TIP3   OH222960   1.679   6.642   2.389 -0.1496 -0.3443  0.3033
 7668TIP3    H122961   1.736   6.642   2.312  0.0291 -1.9893  0.3879
 7668TIP3    H222962   1.636   6.727   2.388  0.9199  0.2048 -0.8100
 7669TIP3   OH222963   1.730   1.431   0.412 -0.0106  0.5572  0.1454
 7669TIP3    H122964   1.684   1.416   0.494  1.1443 -1.3122  0.5061
 7669TIP3    H222965   1.667   1.408   0.344 -0.5890  0.9974  0.5230
 7670TIP3   OH222966   0.877   7.525   5.026 -0.8948 -0.6531 -0.0904
 7670TIP3    H122967   0.903   7.564   4.942  0.3548 -1.7387 -0.2426
 7670TIP3    H222968   0.815   7.587   5.063  0.9086  1.4033 -0.3680
 7671TIP3   OH222969   2.519   6.646   4.022 -0.1912 -0.2709  0.0960
 7671TIP3    H122970   2.482   6.714   3.966 -0.3748  0.6173  1.2828
 7671TIP3    H222971   2.613   6.650   4.006 -0.2674 -0.2427 -0.3701
 7672TIP3   OH222972   1.048   2.708   4.328 -0.0656 -0.0610 -0.0493
 7672TIP3    H122973   0.974   2.667   4.282 -1.2023 -0.5148  2.0288
 7672TIP3    H222974   1.017   2.716   4.419  1.7509  1.5213  0.4811
 7673TIP3   OH222975   5.642   1.722   3.538  0.2771  0.6664  0.0921
 7673TIP3    H122976   5.636   1.804   3.588  0.8383  1.2500 -0.7747
 7673TIP3    H222977   5.563   1.674   3.562 -0.2550  1.6255  0.3352
 7674TIP3   OH222978   4.837   5.756   4.734 -0.1700 -0.1366 -0.3905
 7674TIP3    H122979   4.893   5.721   4.804  0.8017  0.5741 -0.7890
 7674TIP3    H222980   4.819   5.681   4.678 -0.5064 -0.5968  0.3124
 7675TIP3   OH222981   7.047   2.929   1.608 -0.0325 -0.5382  0.2822
 7675TIP3    H122982   7.015   3.011   1.572  0.2570 -0.3916  0.3598
 7675TIP3    H222983   6.987   2.863   1.573  1.1664 -0.6238 -1.7595
 7676TIP3   OH222984   1.384   3.303   5.111  0.3001 -0.4932  0.0167
 7676TIP3    H122985   1.327   3.379   5.099  0.6387 -0.2757 -0.2453
 7676TIP3    H222986   1.460   3.338   5.158  1.5552 -0.1340 -2.1367
 7677TIP3   OH222987   2.807   4.574   4.999  0.7512  0.1082  0.0740
 7677TIP3    H122988   2.713   4.586   4.987  0.3424 -2.4778 -0.0106
 7677TIP3    H222989   2.841   4.566   4.910  0.8140 -0.2844  0.1303
 7678TIP3   OH222990   4.923   7.480   2.435 -0.4468 -0.1256  0.4622
 7678TIP3    H122991   4.858   7.542   2.466 -0.7898  0.1776 -0.8219
 7678TIP3    H222992   4.893   7.395   2.467 -1.6214 -0.0244 -0.3310
 7679TIP3   OH222993   7.860   6.594   4.162  0.1602 -0.5048  0.2768
 7679TIP3    H122994   7.944   6.631   4.135  0.9533 -1.4120  1.4242
 7679TIP3    H222995   7.848   6.518   4.105 -0.2205  0.0012 -0.3329
 7680TIP3   OH222996   4.854   2.975   0.162  0.4984 -0.3138 -0.1183
 7680TIP3    H122997   4.899   3.060   0.168  3.2343 -1.5162 -1.6755
 7680TIP3    H222998   4.768   2.996   0.125  0.7059  1.8611  0.4897
 7681TIP3   OH222999   1.207   2.278   2.343 -0.1888  0.4362  0.0586
 7681TIP3    H123000   1.275   2.338   2.376 -0.4559  0.3565  0.7837
 7681TIP3    H223001   1.250   2.193   2.343 -0.2132  0.4223  0.2965
 7682TIP3   OH223002   2.847   0.939   5.527  0.3918 -0.2325  0.1043
 7682TIP3    H123003   2.875   0.927   5.618 -0.9712 -0.8125  0.4702
 7682TIP3    H223004   2.789   1.014   5.529  0.6723 -0.0036 -0.3617
 7683TIP3   OH223005   8.003   6.626   0.621  0.3029 -0.3007 -0.0296
 7683TIP3    H123006   8.045   6.612   0.706 -1.4243  0.7471  1.0663
 7683TIP3    H223007   7.966   6.541   0.598  0.9411 -0.6370  0.1507
 7684TIP3   OH223008   6.528   7.133   0.692 -0.0099  0.3336 -0.1001
 7684TIP3    H123009   6.554   7.097   0.607  0.3803  0.2237  0.0649
 7684TIP3    H223010   6.436   7.110   0.701 -0.1116  0.5360 -0.5944
 7685TIP3   OH223011   3.904   2.848   2.183  0.0844  0.1619 -0.4014
 7685TIP3    H123012   3.968   2.780   2.200 -0.0248  0.5408  1.8307
 7685TIP3    H223013   3.952   2.930   2.193 -0.3079  0.4394 -0.7281
 7686TIP3   OH223014   4.922   5.413   0.814  0.0692  0.3888  0.1002
 7686TIP3    H123015   4.865   5.380   0.883 -1.3676  2.0947 -0.1979
 7686TIP3    H223016   5.005   5.366   0.827 -0.1949  0.5069  2.8426
 7687TIP3   OH223017   5.150   6.110   0.806 -0.3746 -0.5659 -0.3645
 7687TIP3    H123018   5.114   6.119   0.718  0.7741 -2.1074 -1.0581
 7687TIP3    H223019   5.075   6.121   0.864 -1.6566 -1.9126 -1.6620
 7688TIP3   OH223020   4.916   6.786   4.607  0.2173 -0.4634 -0.4463
 7688TIP3    H123021   4.961   6.786   4.691  0.6177  1.2285 -0.6230
 7688TIP3    H223022   4.967   6.725   4.552  0.7795 -0.5010  0.1085
 7689TIP3   OH223023   7.737   6.981   0.003  0.3410  0.0474  0.4312
 7689TIP3    H123024   7.730   6.963   0.097  0.3344 -1.1968  0.2097
 7689TIP3    H223025   7.753   7.075  -0.002  0.1772  0.1590  1.6717
 7690TIP3   OH223026   5.394   2.313   1.633 -0.0135  0.1557 -0.1655
 7690TIP3    H123027   5.400   2.283   1.542  3.1545  0.5787 -0.1884
 7690TIP3    H223028   5.379   2.408   1.626 -2.1658 -0.1289 -0.1469
 7691TIP3   OH223029   4.811   6.815   1.362  0.1121  0.0843  0.6517
 7691TIP3    H123030   4.889   6.787   1.314 -0.9995  0.6882 -1.6650
 7691TIP3    H223031   4.763   6.735   1.381 -0.6620 -0.0398 -1.5883
 7692TIP3   OH223032   7.992   7.503   3.836  0.3683  0.2683  0.3347
 7692TIP3    H123033   8.042   7.421   3.838 -0.9317 -0.5629  0.1757
 7692TIP3    H223034   7.922   7.486   3.773 -0.4590  1.1850  0.9928
 7693TIP3   OH223035   0.264   6.268   1.950 -0.9245  0.1946  0.2629
 7693TIP3    H123036   0.236   6.298   1.863 -0.6705  0.2390  0.1937
 7693TIP3    H223037   0.325   6.197   1.931 -1.8890 -0.6957  0.4351
 7694TIP3   OH223038   8.278   3.139   4.018 -0.0412  0.2574 -0.2614
 7694TIP3    H123039   8.252   3.200   3.949 -0.0310 -0.0204 -0.5131
 7694TIP3    H223040   8.206   3.076   4.023 -0.2584  0.5378  0.2996
 7695TIP3   OH223041   1.676   2.780   4.621  1.1100  0.5724 -0.1476
 7695TIP3    H123042   1.741   2.712   4.639  0.8573 -0.0441 -1.4422
 7695TIP3    H223043   1.607   2.765   4.685 -0.0503 -1.9233 -1.8220
 7696TIP3   OH223044   6.555   1.956   2.487  0.1951 -0.3655 -0.1980
 7696TIP3    H123045   6.603   1.888   2.441 -0.3429 -0.0388 -1.2671
 7696TIP3    H223046   6.529   2.018   2.419  2.7927  2.2774  0.9707
 7697TIP3   OH223047   7.908   2.462   4.551  0.1111  0.0161  0.0384
 7697TIP3    H123048   7.840   2.403   4.520 -0.1097  0.1155  0.3340
 7697TIP3    H223049   7.913   2.530   4.484 -2.0003  1.5209  1.3020
 7698TIP3   OH223050   2.601   6.803   2.694  0.2225  0.2297  0.3829
 7698TIP3    H123051   2.512   6.834   2.706  0.0403 -0.2316  0.2390
 7698TIP3    H223052   2.620   6.751   2.772 -0.4223 -1.4921 -0.5580
 7699TIP3   OH223053   8.046   3.454   5.670  0.7592  0.2970  0.1221
 7699TIP3    H123054   7.976   3.514   5.643  0.6496 -1.2873 -3.6965
 7699TIP3    H223055   8.001   3.371   5.685  1.6679 -0.5935 -1.7980
 7700TIP3   OH223056   7.605   5.866   1.332 -0.0069 -0.0442 -0.5455
 7700TIP3    H123057   7.522   5.857   1.380  0.3478  1.9708  0.5881
 7700TIP3    H223058   7.665   5.805   1.375  0.5536  2.3267  2.3695
 7701TIP3   OH223059   6.997   0.577   5.405  0.4053 -0.1478 -0.2015
 7701TIP3    H123060   6.906   0.596   5.382  0.8052 -0.2347 -2.0135
 7701TIP3    H223061   7.036   0.663   5.422  0.1665 -0.0547 -0.1115
 7702TIP3   OH223062   6.659   0.163   5.243  0.1987 -0.2851 -0.0422
 7702TIP3    H123063   6.673   0.184   5.151 -0.3326 -1.4118 -0.4002
 7702TIP3    H223064   6.736   0.197   5.288  1.0094 -0.7115 -1.0640
 7703TIP3   OH223065   3.535   4.756   6.587  0.2961 -0.5664 -0.0151
 7703TIP3    H123066   3.515   4.810   6.664  0.0831  0.7260 -0.9442
 7703TIP3    H223067   3.457   4.703   6.574  0.1099 -0.3773  0.3214
 7704TIP3   OH223068   1.784   0.643   5.888  0.0091  0.7466 -0.1439
 7704TIP3    H123069   1.714   0.581   5.910 -0.9054  2.4115  2.0876
 7704TIP3    H223070   1.857   0.588   5.860 -1.8501 -1.1068 -1.6159
 7705TIP3   OH223071   8.262   5.658   0.800  0.7907  0.6000 -0.1989
 7705TIP3    H123072   8.173   5.677   0.831  0.6956  0.4374 -0.3723
 7705TIP3    H223073   8.319   5.705   0.861  0.6467 -0.5652  0.8943
 7706TIP3   OH223074   6.368   3.996   2.716  0.1647  0.2041  0.1356
 7706TIP3    H123075   6.330   3.952   2.792  0.7390  0.2883  0.4791
 7706TIP3    H223076   6.293   4.024   2.664 -0.3188  2.0309  1.7294
 7707TIP3   OH223077   4.097   0.228   3.680 -0.1738 -0.1033 -0.1646
 7707TIP3    H123078   4.138   0.157   3.731 -1.4261 -0.1517  0.8243
 7707TIP3    H223079   4.010   0.194   3.658 -0.6373  0.9612 -0.0371
 7708TIP3   OH223080   6.757   0.216   4.976  0.6312  0.1949  0.2243
 7708TIP3    H123081   6.804   0.300   4.976 -0.0613  0.6648 -2.4008
 7708TIP3    H223082   6.811   0.158   4.922  0.0640 -0.4201  0.3025
 7709TIP3   OH223083   1.500   4.924   5.229 -0.3457 -0.1833 -0.8734
 7709TIP3    H123084   1.550   4.980   5.288  1.1918  1.0276 -3.1768
 7709TIP3    H223085   1.503   4.837   5.269 -0.4575  0.7839  1.4011
 7710TIP3   OH223086   6.546   4.348   3.775 -0.0752  0.5846 -0.0728
 7710TIP3    H123087   6.482   4.340   3.846  2.5120 -1.1042  2.2765
 7710TIP3    H223088   6.554   4.259   3.740 -0.0451  1.0655 -1.3253
 7711TIP3   OH223089   0.604   0.343   3.510  0.3679  0.1207 -0.1580
 7711TIP3    H123090   0.591   0.436   3.529 -0.3589 -0.1703  0.8738
 7711TIP3    H223091   0.699   0.331   3.508  0.4821  1.0443 -1.1935
 7712TIP3   OH223092   1.759   3.603   1.301 -0.2846  0.6460  0.2614
 7712TIP3    H123093   1.826   3.551   1.256 -1.3939 -0.6795  0.0721
 7712TIP3    H223094   1.762   3.688   1.258  0.1371  0.0819 -0.8781
 7713TIP3   OH223095   7.347   1.422   4.031 -0.0272  0.0456 -0.3502
 7713TIP3    H123096   7.442   1.431   4.036 -0.0703  1.3397 -1.3102
 7713TIP3    H223097   7.314   1.483   4.096 -0.2093 -0.2291 -0.1836
 7714TIP3   OH223098   6.662   3.452   5.268  0.3547  0.4203  0.3216
 7714TIP3    H123099   6.629   3.541   5.279 -0.0349  0.5544 -1.4924
 7714TIP3    H223100   6.662   3.439   5.173  1.3393 -1.1710  0.5099
 7715TIP3   OH223101   2.711   0.454   2.321  0.6767  0.6276  0.5058
 7715TIP3    H123102   2.726   0.494   2.235 -1.1874 -1.4933 -0.9185
 7715TIP3    H223103   2.780   0.387   2.328  0.5990  0.5463  0.4921
 7716TIP3   OH223104   2.201   1.815   3.487  0.1842  0.0006 -0.3826
 7716TIP3    H123105   2.155   1.731   3.492  1.9755 -1.0653 -1.0952
 7716TIP3    H223106   2.130   1.879   3.480 -1.2281 -1.6142 -2.1979
 7717TIP3   OH223107   6.111   1.292   3.766  0.2160  0.1536 -0.5274
 7717TIP3    H123108   6.096   1.304   3.860  2.9492  3.4956 -0.2967
 7717TIP3    H223109   6.025   1.300   3.726 -0.7820  0.6146  1.5777
 7718TIP3   OH223110   0.672   7.614   5.788 -0.4644 -0.0618 -0.1071
 7718TIP3    H123111   0.735   7.646   5.724  0.9464 -1.2715  0.6038
 7718TIP3    H223112   0.687   7.669   5.865 -1.2141  0.4951 -0.3414
 7719TIP3   OH223113   3.607   3.287   1.195 -0.2406 -0.1026  0.1853
 7719TIP3    H123114   3.644   3.202   1.172 -1.1065 -0.2247 -0.8212
 7719TIP3    H223115   3.657   3.315   1.272  3.0796  0.4961 -1.9924
 7720TIP3   OH223116   5.803   1.585   0.298 -0.2712 -0.6302  0.6557
 7720TIP3    H123117   5.721   1.568   0.252 -0.2636 -0.8647  0.7257
 7720TIP3    H223118   5.869   1.590   0.229 -0.6909  2.0073  0.3519
 7721TIP3   OH223119   1.276   0.403   5.200 -0.4366 -0.8337 -0.0823
 7721TIP3    H123120   1.340   0.397   5.271 -0.7886  1.9747  0.5795
 7721TIP3    H223121   1.320   0.364   5.124  0.2081 -3.2701  1.4237
 7722TIP3   OH223122   3.398   3.310   3.274 -0.5792  0.4139  0.0233
 7722TIP3    H123123   3.414   3.396   3.313  0.3241  0.7586 -1.0647
 7722TIP3    H223124   3.477   3.260   3.292 -1.1855 -0.2995  0.8427
 7723TIP3   OH223125   3.921   6.768   6.136 -0.4996  0.1060  0.6792
 7723TIP3    H123126   3.839   6.799   6.097  0.5512  1.1593 -0.8370
 7723TIP3    H223127   3.971   6.848   6.152 -0.1957 -0.4411  2.6476
 7724TIP3   OH223128   1.401   4.291   5.520  0.2515  0.6750  0.2188
 7724TIP3    H123129   1.454   4.211   5.513 -2.4861 -1.4719  1.6910
 7724TIP3    H223130   1.414   4.321   5.610  0.7871  1.5519 -0.1431
 7725TIP3   OH223131   0.489   3.564   2.773 -0.6286  0.0580  0.3452
 7725TIP3    H123132   0.480   3.645   2.722  1.7791  0.9043  1.0989
 7725TIP3    H223133   0.507   3.594   2.862  2.5223 -1.1361  0.2539
 7726TIP3   OH223134   6.509   5.823   5.003  0.1148  0.2390  0.9268
 7726TIP3    H123135   6.431   5.786   5.046  1.3744 -1.1856  2.1136
 7726TIP3    H223136   6.548   5.880   5.069 -0.0302  1.1238  0.2596
 7727TIP3   OH223137   4.903   6.428   3.346 -0.6174  0.2024 -0.6002
 7727TIP3    H123138   4.922   6.397   3.434 -0.4792 -1.6082 -1.2362
 7727TIP3    H223139   4.813   6.400   3.329 -1.2948  2.1030 -0.4199
 7728TIP3   OH223140   0.609   3.451   5.434 -0.5877  0.2663 -0.5440
 7728TIP3    H123141   0.700   3.429   5.455 -0.3783  1.2001 -0.4126
 7728TIP3    H223142   0.561   3.435   5.515  0.0115  2.6883  0.3784
 7729TIP3   OH223143   6.259   2.061   2.424 -0.0114  0.1303 -0.3241
 7729TIP3    H123144   6.281   2.133   2.484 -1.6011  1.3708 -1.1442
 7729TIP3    H223145   6.340   2.041   2.379  0.1967  2.4947 -1.1496
 7730TIP3   OH223146   4.925   6.636   4.850 -0.0800 -0.1635 -0.1837
 7730TIP3    H123147   4.949   6.616   4.941  1.6970  0.1900 -0.5484
 7730TIP3    H223148   4.922   6.551   4.806  0.3835 -0.2332 -0.0895
 7731TIP3   OH223149   2.761   0.957   1.510 -0.3932 -0.1052  0.1655
 7731TIP3    H123150   2.783   1.035   1.459  1.3325 -1.0202 -0.5370
 7731TIP3    H223151   2.670   0.938   1.486 -0.1981  0.5442 -1.1565
 7732TIP3   OH223152   0.926   5.305   1.566  0.2336  0.2555  0.1101
 7732TIP3    H123153   0.993   5.271   1.507 -0.6771 -0.7987 -0.3742
 7732TIP3    H223154   0.850   5.320   1.509  0.0932  1.6077  0.6078
 7733TIP3   OH223155   6.850   0.133   6.053 -0.3417 -0.7627 -0.1968
 7733TIP3    H123156   6.908   0.180   5.994 -0.0894 -0.7829  0.0312
 7733TIP3    H223157   6.785   0.199   6.080 -0.5808 -0.8081 -0.6527
 7734TIP3   OH223158   5.937   5.304   2.754  0.1849 -0.3324  0.2069
 7734TIP3    H123159   5.867   5.344   2.703  0.0201  0.3609  0.9496
 7734TIP3    H223160   6.001   5.374   2.766  0.1558 -0.4310  1.0511
 7735TIP3   OH223161   1.769   3.609   1.645 -0.3515  0.2159 -0.2296
 7735TIP3    H123162   1.756   3.523   1.685 -0.5841  0.8229  1.0540
 7735TIP3    H223163   1.859   3.608   1.615 -0.0095 -0.0972  0.7664
 7736TIP3   OH223164   5.901   5.481   1.248 -0.3609 -0.2745 -0.4789
 7736TIP3    H123165   5.921   5.547   1.315  0.6836  0.7953 -1.8021
 7736TIP3    H223166   5.814   5.506   1.215  0.8625  1.7756 -2.4140
 7737TIP3   OH223167   2.221   1.277   1.848  0.2054 -0.2550 -0.1008
 7737TIP3    H123168   2.211   1.226   1.768  0.9751  1.1682 -1.1526
 7737TIP3    H223169   2.168   1.355   1.833 -0.5199 -0.4586  1.2464
 7738TIP3   OH223170   6.829   1.570   2.199 -0.2042  0.2653 -0.8327
 7738TIP3    H123171   6.810   1.476   2.194 -0.2205  0.2492 -0.5281
 7738TIP3    H223172   6.906   1.575   2.256 -0.7546  0.4997 -0.0875
 7739TIP3   OH223173   0.059   5.510   4.548 -0.0224  0.1094  0.1497
 7739TIP3    H123174   0.087   5.580   4.490 -0.0664 -0.9261 -1.1617
 7739TIP3    H223175   0.141   5.474   4.583  0.0796 -0.1348 -0.3334
 7740TIP3   OH223176   4.118   1.976   0.999 -0.4107  0.2864 -0.0516
 7740TIP3    H123177   4.183   1.959   0.931 -2.0888  0.3750 -1.7645
 7740TIP3    H223178   4.113   1.894   1.048 -0.5093 -0.4668 -1.2644
 7741TIP3   OH223179   4.764   6.790   2.572 -0.1521 -1.1860 -0.1631
 7741TIP3    H123180   4.812   6.864   2.610 -2.7333  0.7869 -0.4865
 7741TIP3    H223181   4.755   6.728   2.644 -0.8613  0.3675  1.1636
 7742TIP3   OH223182   6.300   4.805   5.404  0.0519  0.3100  0.0894
 7742TIP3    H123183   6.312   4.763   5.319 -2.5189  1.5706 -0.9815
 7742TIP3    H223184   6.311   4.735   5.467 -0.2361 -1.1402 -1.4096
 7743TIP3   OH223185   7.239   0.953   0.010  0.0564  0.3061  1.0654
 7743TIP3    H123186   7.148   0.923   0.012 -0.2322  1.0280 -0.0985
 7743TIP3    H223187   7.290   0.878   0.041 -0.8948 -0.2877  1.2348
 7744TIP3   OH223188   2.317   7.685   0.207 -0.1410  0.3808  0.0810
 7744TIP3    H123189   2.333   7.778   0.191 -3.6465  0.6910 -2.9809
 7744TIP3    H223190   2.377   7.640   0.147  0.9125  0.6480  0.9022
 7745TIP3   OH223191   1.540   5.743   2.088 -0.1614 -0.3593  0.7394
 7745TIP3    H123192   1.615   5.766   2.142  0.4263 -1.5640  0.4602
 7745TIP3    H223193   1.538   5.648   2.087 -2.3822 -0.3859  1.6541
 7746TIP3   OH223194   5.307   4.316   2.631 -0.4725  0.1364 -0.5967
 7746TIP3    H123195   5.296   4.236   2.580  2.7154 -0.0042 -1.3163
 7746TIP3    H223196   5.248   4.379   2.590 -1.9097 -1.3984 -0.9925
 7747TIP3   OH223197   3.983   0.193   3.206  0.2159 -0.3709 -0.2846
 7747TIP3    H123198   3.985   0.280   3.246 -1.6725 -0.8834  1.1036
 7747TIP3    H223199   3.975   0.210   3.112  1.2093  0.9163 -0.1640
 7748TIP3   OH223200   0.165   1.297   5.788  0.1006 -0.3412 -0.4051
 7748TIP3    H123201   0.078   1.319   5.819  0.2033  0.3052 -0.5623
 7748TIP3    H223202   0.224   1.325   5.858  0.2531  0.1577 -0.7278
 7749TIP3   OH223203   1.533   6.379   5.916 -0.2408  0.1107  0.6354
 7749TIP3    H123204   1.525   6.364   6.010 -0.2338  0.4968  0.6981
 7749TIP3    H223205   1.499   6.299   5.876  1.3603 -0.7939  0.9785
 7750TIP3   OH223206   0.164   2.228   4.407 -0.1839 -0.0905  0.1632
 7750TIP3    H123207   0.114   2.217   4.487 -0.6203  1.3540  0.1247
 7750TIP3    H223208   0.154   2.321   4.385  0.4796 -0.3091 -1.1925
 7751TIP3   OH223209   4.191   5.485   0.123 -0.0137 -0.5055 -0.2305
 7751TIP3    H123210   4.217   5.473   0.214 -0.3993  3.0545  0.4777
 7751TIP3    H223211   4.110   5.434   0.114 -0.7614  0.2138  1.8760
 7752TIP3   OH223212   7.459   6.715   1.723  0.3392 -0.1724 -0.1084
 7752TIP3    H123213   7.392   6.648   1.711 -1.3315  0.8147  2.8236
 7752TIP3    H223214   7.485   6.707   1.815  2.1026  1.4513 -0.3935
 7753TIP3   OH223215   5.007   4.324   1.215 -0.3046  0.1959  0.1795
 7753TIP3    H123216   4.976   4.263   1.283 -0.7240 -0.2035 -0.3623
 7753TIP3    H223217   4.953   4.402   1.227 -0.3246  0.1550  0.3588
 7754TIP3   OH223218   6.166   2.411   6.261  0.3693  0.3984 -0.0847
 7754TIP3    H123219   6.093   2.355   6.234 -0.1816  1.4676 -0.9249
 7754TIP3    H223220   6.156   2.418   6.357 -1.3008  1.3433 -0.2703
 7755TIP3   OH223221   1.043   2.374   0.702 -0.2040 -0.4352  0.3759
 7755TIP3    H123222   0.987   2.452   0.705  1.8986  1.1338  1.7115
 7755TIP3    H223223   1.011   2.320   0.774 -1.3335 -0.5880 -0.2155
 7756TIP3   OH223224   8.061   0.954   0.181 -0.2766  0.2443 -0.2014
 7756TIP3    H123225   8.122   0.985   0.249 -1.2396 -0.3830  0.9857
 7756TIP3    H223226   7.979   1.001   0.199 -0.8507 -0.7032 -0.2654
 7757TIP3   OH223227   8.031   6.177   3.832 -0.0386 -0.6734 -0.0774
 7757TIP3    H123228   8.122   6.204   3.822 -0.4462  0.8107  0.0183
 7757TIP3    H223229   8.035   6.096   3.883  1.1238  0.5036  1.8125
 7758TIP3   OH223230   2.885   1.768   3.283  0.1921  0.4986  0.2053
 7758TIP3    H123231   2.902   1.676   3.263 -0.0354  0.3838  0.5236
 7758TIP3    H223232   2.826   1.766   3.358 -0.1435  0.8985 -0.0392
 7759TIP3   OH223233   1.794   4.393   4.968 -0.0278  0.4421  0.0300
 7759TIP3    H123234   1.796   4.489   4.965 -0.3400  0.5417  1.7629
 7759TIP3    H223235   1.759   4.367   4.883 -0.8369  1.9199 -0.1328
 7760TIP3   OH223236   0.289   1.124   4.093 -0.0500 -0.4787 -0.1783
 7760TIP3    H123237   0.315   1.169   4.012  1.3205  0.0707  0.5364
 7760TIP3    H223238   0.344   1.045   4.094 -2.1872 -2.0935 -1.2487
 7761TIP3   OH223239   4.715   3.084   3.121 -0.5721  0.2870 -0.1334
 7761TIP3    H123240   4.725   3.048   3.209  0.3575 -0.3710 -0.4844
 7761TIP3    H223241   4.626   3.060   3.095 -0.9494  0.7393  0.7311
 7762TIP3   OH223242   4.927   3.107   5.225  0.3123  0.4939  0.5963
 7762TIP3    H123243   4.923   3.144   5.314  0.5876  0.9337  0.4254
 7762TIP3    H223244   4.835   3.093   5.201  0.2477 -0.1598  1.1646
 7763TIP3   OH223245   3.435   2.222   1.963  0.0855  0.4337 -0.2415
 7763TIP3    H123246   3.512   2.253   2.011 -0.3389  0.7903  0.2336
 7763TIP3    H223247   3.374   2.296   1.967 -0.6284 -0.1663  0.1755
 7764TIP3   OH223248   7.563   0.717   5.028 -0.4816  0.0007  0.0230
 7764TIP3    H123249   7.654   0.712   5.056  0.3852  2.5662 -1.8788
 7764TIP3    H223250   7.555   0.805   4.990 -3.4611 -0.5559 -0.8849
 7765TIP3   OH223251   4.027   2.436   6.470 -0.4748 -0.3099 -0.5132
 7765TIP3    H123252   4.066   2.509   6.423  0.6357  0.7436  1.8541
 7765TIP3    H223253   3.958   2.476   6.523 -2.2638 -1.5791 -1.8021
 7766TIP3   OH223254   6.043   2.700   1.704  0.1691  0.0833 -0.0585
 7766TIP3    H123255   6.115   2.711   1.641  0.0744  1.2377  0.0032
 7766TIP3    H223256   6.060   2.766   1.771 -0.0389 -0.7640  0.8440
 7767TIP3   OH223257   5.882   6.455   4.266 -0.0821  0.0011  0.3420
 7767TIP3    H123258   5.880   6.451   4.362  0.5320 -1.1606  0.3232
 7767TIP3    H223259   5.814   6.393   4.239  0.0569 -0.0139  0.0256
 7768TIP3   OH223260   6.606   3.399   1.926  0.2706 -0.1111  0.0641
 7768TIP3    H123261   6.551   3.398   1.848 -1.0725  1.7456  0.9217
 7768TIP3    H223262   6.668   3.471   1.911  0.9757 -0.7016  0.0895
 7769TIP3   OH223263   3.773   5.055   4.131  0.2394 -0.0933  0.0397
 7769TIP3    H123264   3.835   5.126   4.146  0.1641 -0.4890  2.6763
 7769TIP3    H223265   3.691   5.086   4.169 -0.7692 -0.2619 -1.8689
 7770TIP3   OH223266   8.041   3.610   0.062 -0.3741  0.3712 -0.4798
 7770TIP3    H123267   8.049   3.703   0.043 -0.5415  0.2230 -1.3045
 7770TIP3    H223268   7.962   3.603   0.116  0.4411  0.8674  0.8435
 7771TIP3   OH223269   3.090   0.088   3.542 -0.2573 -0.0538  0.0262
 7771TIP3    H123270   3.059   0.035   3.615 -1.2490 -1.9907 -1.6833
 7771TIP3    H223271   3.017   0.146   3.521 -0.9060 -1.1527 -0.8671
 7772TIP3   OH223272   6.943   7.473   1.679 -0.3846  0.3960  0.3020
 7772TIP3    H123273   6.990   7.511   1.605 -2.1439  1.7405 -0.1960
 7772TIP3    H223274   6.919   7.385   1.650 -0.9263  0.8524 -0.6766
 7773TIP3   OH223275   1.007   6.955   4.735 -0.5710  0.3693 -0.2283
 7773TIP3    H123276   1.019   7.031   4.678 -0.0489  2.5604  2.5499
 7773TIP3    H223277   0.971   6.992   4.816 -3.2247 -2.8050  0.2637
 7774TIP3   OH223278   7.165   5.418   5.993  0.2521  0.2730 -1.0088
 7774TIP3    H123279   7.207   5.500   5.968  0.7391  0.2488 -0.2858
 7774TIP3    H223280   7.183   5.358   5.921  1.3866  0.2890 -0.7523
 7775TIP3   OH223281   6.229   5.966   2.314  0.4565  0.4351  0.0546
 7775TIP3    H123282   6.277   5.915   2.249 -1.9118  1.0202 -2.3474
 7775TIP3    H223283   6.260   6.055   2.302 -0.4487  0.6530 -0.8140
 7776TIP3   OH223284   3.914   5.739   0.349  0.5577  0.0549 -0.0497
 7776TIP3    H123285   3.917   5.797   0.273 -1.5157 -0.1645 -0.3699
 7776TIP3    H223286   3.824   5.706   0.350  1.3871 -2.4177  0.6852
 7777TIP3   OH223287   3.144   4.371   3.068  0.1518  0.0689  0.4341
 7777TIP3    H123288   3.124   4.398   3.158  1.7921  1.1181  0.5158
 7777TIP3    H223289   3.194   4.290   3.078  0.5096  0.2940  0.4848
 7778TIP3   OH223290   1.422   6.500   0.391  0.3252 -0.0237  0.4319
 7778TIP3    H123291   1.426   6.413   0.351  0.3067  0.3172 -0.3321
 7778TIP3    H223292   1.508   6.538   0.373 -0.4488  0.9970 -1.3178
 7779TIP3   OH223293   2.065   6.592   3.270  0.1510 -0.0775  0.2690
 7779TIP3    H123294   1.994   6.544   3.313 -0.6782  0.0525 -0.9154
 7779TIP3    H223295   2.022   6.639   3.199  1.1898  1.2181  0.4646
 7780TIP3   OH223296   3.756   5.236   4.626  0.2277 -0.0953  0.2794
 7780TIP3    H123297   3.794   5.155   4.661  1.4980  1.5908  3.1350
 7780TIP3    H223298   3.662   5.224   4.635  0.1798 -2.2631 -1.9668
 7781TIP3   OH223299   1.271   0.710   3.005  0.1540  0.3177 -0.4838
 7781TIP3    H123300   1.228   0.656   3.071  1.6185 -0.6387 -0.2539
 7781TIP3    H223301   1.235   0.681   2.922 -0.3026  0.1857 -0.2416
 7782TIP3   OH223302   4.929   2.357   6.269 -0.2218  0.1473  0.4033
 7782TIP3    H123303   5.016   2.320   6.255 -0.4438 -0.1923 -0.1063
 7782TIP3    H223304   4.942   2.452   6.267  0.0947  0.0970  0.0469
 7783TIP3   OH223305   2.209   2.109   6.324  0.4098 -0.6416  0.4653
 7783TIP3    H123306   2.297   2.077   6.344  1.3612  1.4025 -0.1908
 7783TIP3    H223307   2.223   2.197   6.288 -1.8434 -0.6542 -0.5982
 7784TIP3   OH223308   6.595   6.251   2.583  0.0629 -0.0020  0.1631
 7784TIP3    H123309   6.578   6.268   2.491  0.5188 -1.6730 -0.2641
 7784TIP3    H223310   6.511   6.268   2.627  0.0799  1.6790 -0.3969
 7785TIP3   OH223311   7.529   1.015   0.203 -0.0984 -0.1094  0.1364
 7785TIP3    H123312   7.483   0.948   0.154  0.8210 -1.2653  0.7907
 7785TIP3    H223313   7.470   1.036   0.276 -0.5301  0.0319 -0.2518
 7786TIP3   OH223314   0.041   0.456   5.621  0.6802  0.0329  0.4640
 7786TIP3    H123315   0.002   0.530   5.667  1.9139 -0.1233  1.8203
 7786TIP3    H223316  -0.007   0.451   5.538 -0.0941  1.7103  0.7808
 7787TIP3   OH223317   8.306   7.383   2.044  0.1643  0.2218  0.4945
 7787TIP3    H123318   8.344   7.299   2.069  0.6569  0.0434 -0.7900
 7787TIP3    H223319   8.223   7.386   2.091  0.4675 -0.6521  1.1215
 7788TIP3   OH223320   6.518   2.700   0.811 -0.0077 -0.1556  0.1765
 7788TIP3    H123321   6.533   2.726   0.720 -1.3667  0.4675  0.0956
 7788TIP3    H223322   6.595   2.730   0.858 -0.3065  1.6218 -0.3940
 7789TIP3   OH223323   1.855   2.307   2.992 -0.3182 -0.1440  0.1306
 7789TIP3    H123324   1.872   2.236   2.931  2.5860 -0.2688  0.9367
 7789TIP3    H223325   1.865   2.387   2.940 -0.1333 -0.2874 -0.0564
 7790TIP3   OH223326   1.300   6.966   2.198 -0.1886  0.5856  0.4238
 7790TIP3    H123327   1.353   7.044   2.184  0.1022  0.2743 -0.2513
 7790TIP3    H223328   1.286   6.930   2.111  0.4646 -0.6185  0.7973
 7791TIP3   OH223329   7.111   0.178   3.674 -0.2724  0.2089 -0.4268
 7791TIP3    H123330   7.181   0.236   3.643 -0.4694  0.2919 -0.7219
 7791TIP3    H223331   7.111   0.189   3.769 -0.2109  0.5819 -0.4678
 7792TIP3   OH223332   4.411   5.441   1.873 -0.1570  0.6105  0.0389
 7792TIP3    H123333   4.344   5.508   1.883 -1.6099 -0.4881 -1.7089
 7792TIP3    H223334   4.467   5.473   1.803  0.7147  1.1677  0.9719
 7793TIP3   OH223335   2.024   3.575   5.585  0.3559  0.1651  0.0266
 7793TIP3    H123336   2.059   3.659   5.616 -0.5518  0.4107  0.4178
 7793TIP3    H223337   2.091   3.543   5.524  1.4168  0.4385  1.0187
 7794TIP3   OH223338   5.902   5.665   5.489 -0.1431  0.1831  0.1416
 7794TIP3    H123339   5.808   5.655   5.506 -0.4868 -1.8373 -2.2947
 7794TIP3    H223340   5.943   5.595   5.540 -0.3410 -0.9118 -1.1528
 7795TIP3   OH223341   1.700   0.084   2.533  0.0901 -0.0732 -0.2043
 7795TIP3    H123342   1.621   0.088   2.480 -0.2787 -0.1812  0.3264
 7795TIP3    H223343   1.687   0.007   2.589  0.3946  0.1364  0.1552
 7796TIP3   OH223344   3.832   0.459   6.717  0.2415  0.0055  0.0050
 7796TIP3    H123345   3.850   0.426   6.629 -0.2381 -0.7313  0.1731
 7796TIP3    H223346   3.750   0.415   6.743  0.4285  0.1377  0.8468
 7797TIP3   OH223347   5.228   0.329   1.867  0.0027 -0.3240  0.2001
 7797TIP3    H123348   5.294   0.297   1.805  0.5060 -1.5861  1.3286
 7797TIP3    H223349   5.277   0.382   1.930  0.0057 -1.4465  1.1709
 7798TIP3   OH223350   3.757   0.415   2.709 -0.0237  0.0741 -0.1903
 7798TIP3    H123351   3.664   0.430   2.696  0.2771  6.8305  1.9379
 7798TIP3    H223352   3.767   0.405   2.804  1.5067  0.1529 -0.3153
 7799TIP3   OH223353   1.333   4.676   1.367  0.2399 -0.1322  0.0901
 7799TIP3    H123354   1.261   4.703   1.309  0.7698  0.6889 -0.2063
 7799TIP3    H223355   1.299   4.691   1.455 -0.1189 -0.2043 -0.0312
 7800TIP3   OH223356   2.815   1.775   1.202  0.3412  0.2082  0.6026
 7800TIP3    H123357   2.721   1.765   1.213  0.5042 -0.9883  1.0319
 7800TIP3    H223358   2.824   1.839   1.131 -0.7906  0.1691  0.4057
 7801TIP3   OH223359   2.874   6.327   3.521  0.1539 -0.6470  0.2980
 7801TIP3    H123360   2.854   6.325   3.427  1.4658  0.3591 -0.0297
 7801TIP3    H223361   2.969   6.324   3.526  0.0959 -0.9662  1.6244
 7802TIP3   OH223362   5.589   1.513   6.577 -0.3524 -0.1671 -0.1555
 7802TIP3    H123363   5.630   1.558   6.504 -1.0805  1.7415  0.5363
 7802TIP3    H223364   5.506   1.481   6.543 -1.0822  1.4602 -0.0148
 7803TIP3   OH223365   6.089   6.832   1.715 -0.2643  0.0008 -0.1574
 7803TIP3    H123366   6.158   6.765   1.721 -0.8664 -0.6552 -0.3954
 7803TIP3    H223367   6.020   6.790   1.663 -0.4682  0.9723 -0.6878
 7804TIP3   OH223368   2.321   5.292   5.601  0.0362 -0.0564 -0.5174
 7804TIP3    H123369   2.349   5.235   5.530 -0.8450  0.8236 -1.6265
 7804TIP3    H223370   2.358   5.378   5.579  1.1311 -0.1137  0.9810
 7805TIP3   OH223371   0.435   1.307   5.536 -0.0863  0.1097 -0.4429
 7805TIP3    H123372   0.400   1.247   5.603  0.9691  1.7795  1.7375
 7805TIP3    H223373   0.500   1.255   5.490 -1.6083 -1.4264 -0.9935
 7806TIP3   OH223374   1.523   7.050   5.466 -0.2461 -0.2625 -0.0124
 7806TIP3    H123375   1.570   7.027   5.546  0.8866 -0.4472 -0.7067
 7806TIP3    H223376   1.469   6.973   5.447 -0.9047 -0.0166  0.8418
 7807TIP3   OH223377   1.583   4.090   5.482 -0.4905 -0.5207 -0.0057
 7807TIP3    H123378   1.640   4.133   5.418 -0.5346 -0.2229  0.1566
 7807TIP3    H223379   1.540   4.020   5.432 -0.1248 -0.6274 -0.1724
 7808TIP3   OH223380   2.545   1.653   2.634 -0.2401 -0.2467  0.0677
 7808TIP3    H123381   2.566   1.600   2.711 -0.7812  0.1016  0.4675
 7808TIP3    H223382   2.461   1.693   2.656 -0.2059  0.1662 -0.5477
 7809TIP3   OH223383   7.341   4.262   5.472 -0.2886  0.3877 -0.2006
 7809TIP3    H123384   7.254   4.223   5.485 -1.5758  2.4723 -1.8090
 7809TIP3    H223385   7.323   4.351   5.442  2.4431  1.0260 -0.2261
 7810TIP3   OH223386   2.318   3.668   2.676  0.2411 -0.4888 -0.3478
 7810TIP3    H123387   2.405   3.661   2.635 -0.6871 -0.9965 -2.3564
 7810TIP3    H223388   2.257   3.669   2.602 -1.4721 -0.0521  1.0201
 7811TIP3   OH223389   5.551   1.033   4.529  0.5669  0.0220 -0.0333
 7811TIP3    H123390   5.509   1.098   4.585  0.0401 -0.4669  0.1465
 7811TIP3    H223391   5.496   1.030   4.451 -0.1594 -1.1327  0.4983
 7812TIP3   OH223392   6.583   3.424   4.399 -0.6407 -0.1185  0.1418
 7812TIP3    H123393   6.647   3.479   4.353 -1.4970  1.9947  1.3424
 7812TIP3    H223394   6.619   3.411   4.486 -1.1990 -0.1145  0.3798
 7813TIP3   OH223395   1.548   6.619   6.409 -0.2519 -0.1929 -0.3706
 7813TIP3    H123396   1.618   6.559   6.386  0.3716  1.1047 -2.0605
 7813TIP3    H223397   1.574   6.654   6.494  0.8405 -0.1935 -0.6868
 7814TIP3   OH223398   2.391   1.520   6.458  0.2433  0.2718  0.2099
 7814TIP3    H123399   2.457   1.488   6.396 -0.9100  1.7941 -1.9166
 7814TIP3    H223400   2.443   1.556   6.531  1.6983 -0.1458 -0.5765
 7815TIP3   OH223401   6.024   1.664   3.062 -0.3122  0.2333  0.8254
 7815TIP3    H123402   6.088   1.728   3.032 -0.5164  0.2096  0.3243
 7815TIP3    H223403   5.946   1.715   3.083 -0.4119  0.1714  0.6095
 7816TIP3   OH223404   7.417   6.204   2.957 -0.0903  0.1184  0.3325
 7816TIP3    H123405   7.343   6.255   2.989 -0.8537  0.0168 -1.1849
 7816TIP3    H223406   7.379   6.144   2.893  1.3107  0.1049 -0.5291
 7817TIP3   OH223407   7.951   0.185   2.467  0.8395 -0.1592 -0.5341
 7817TIP3    H123408   7.919   0.103   2.506 -0.3138 -0.2156 -1.5628
 7817TIP3    H223409   7.899   0.196   2.388  1.8132  0.9618 -1.0467
 7818TIP3   OH223410   7.030   3.823   3.970  0.0486 -0.6013  0.3234
 7818TIP3    H123411   6.980   3.904   3.970  0.9458 -0.0395  0.4205
 7818TIP3    H223412   7.018   3.787   3.882 -1.1371 -0.8649  0.5846
 7819TIP3   OH223413   3.344   3.901   2.902  0.2980 -0.5021 -0.3114
 7819TIP3    H123414   3.281   3.832   2.922 -0.0785  0.1369  0.7779
 7819TIP3    H223415   3.290   3.973   2.870  0.7833 -1.0930 -2.7067
 7820TIP3   OH223416   1.706   0.387   3.713  0.1210  0.1958 -0.1125
 7820TIP3    H123417   1.768   0.445   3.756 -0.7520  2.1427 -1.3380
 7820TIP3    H223418   1.661   0.341   3.785  1.1641  0.6775  0.8660
 7821TIP3   OH223419   4.580   7.286   6.228  0.3086 -0.3538 -0.1292
 7821TIP3    H123420   4.537   7.268   6.145 -0.8463  0.4323  0.2739
 7821TIP3    H223421   4.609   7.377   6.221  0.0144 -0.2121  0.3924
 7822TIP3   OH223422   4.807   7.018   3.193  0.5694  0.0528 -0.2894
 7822TIP3    H123423   4.854   7.035   3.111  0.0657  1.3334 -0.3395
 7822TIP3    H223424   4.829   7.093   3.249  1.7252 -1.3078  1.1435
 7823TIP3   OH223425   7.920   4.407   2.578  0.5489  0.1010 -0.4350
 7823TIP3    H123426   7.854   4.368   2.635  0.7299 -0.1752 -0.4168
 7823TIP3    H223427   7.989   4.437   2.638  1.2110 -1.0862 -0.5765
 7824TIP3   OH223428   7.298   0.225   4.468 -0.3557  0.3804  0.0677
 7824TIP3    H123429   7.389   0.195   4.462 -0.4163 -0.5346  2.3786
 7824TIP3    H223430   7.303   0.320   4.463  0.6153  0.2945 -0.8402
 7825TIP3   OH223431   6.224   0.536   1.158 -0.0587  0.1064 -0.0312
 7825TIP3    H123432   6.154   0.502   1.102 -0.7395  0.4951  0.5626
 7825TIP3    H223433   6.197   0.514   1.247  0.3542  0.6489  0.2376
 7826TIP3   OH223434   1.115   2.208   6.038 -0.5054 -0.0354 -0.3825
 7826TIP3    H123435   1.196   2.164   6.014 -0.9824  0.1630 -2.6165
 7826TIP3    H223436   1.046   2.147   6.014 -1.1027  1.1004 -1.6765
 7827TIP3   OH223437   6.714   4.182   2.537 -0.2339 -0.4233 -0.0511
 7827TIP3    H123438   6.806   4.164   2.520 -0.0498 -0.2670  0.7194
 7827TIP3    H223439   6.691   4.252   2.475  0.6289  0.7149  0.8551
 7828TIP3   OH223440   4.544   3.370   4.375  0.2868  0.5938  0.3054
 7828TIP3    H123441   4.589   3.422   4.309 -0.6498 -0.6752 -1.4267
 7828TIP3    H223442   4.610   3.308   4.407  0.8424  1.4523  0.8713
 7829TIP3   OH223443   1.797   1.841   4.033  0.8330 -0.7373 -0.0968
 7829TIP3    H123444   1.873   1.873   3.984  0.6924 -1.2947 -0.6892
 7829TIP3    H223445   1.769   1.763   3.986 -0.4922 -0.1946 -0.2651
 7830TIP3   OH223446   1.479   7.756   1.442 -0.2756  0.4739 -0.4705
 7830TIP3    H123447   1.384   7.749   1.435 -0.3692  0.2355  0.8175
 7830TIP3    H223448   1.501   7.709   1.522  1.0228 -0.1921 -1.1732
 7831TIP3   OH223449   1.449   0.812   5.295 -0.5910  0.3866 -0.2544
 7831TIP3    H123450   1.455   0.750   5.223 -2.5232 -0.5142  0.2736
 7831TIP3    H223451   1.472   0.760   5.373  0.7610  1.1557 -0.1126
 7832TIP3   OH223452   3.272   1.837   0.526 -0.2375  0.2696 -0.0925
 7832TIP3    H123453   3.226   1.907   0.481  1.6750  2.3244  0.9561
 7832TIP3    H223454   3.266   1.860   0.619 -1.3535 -2.1421  0.5284
 7833TIP3   OH223455   4.774   1.352   3.809 -0.2636 -0.3047 -0.4499
 7833TIP3    H123456   4.788   1.351   3.904 -0.0617  1.8303 -0.3986
 7833TIP3    H223457   4.860   1.368   3.772 -0.2337 -1.7890 -1.0526
 7834TIP3   OH223458   2.072   3.468   0.604  0.7317  0.1170  0.3927
 7834TIP3    H123459   2.014   3.437   0.673  0.5841  2.4914  1.4187
 7834TIP3    H223460   2.020   3.462   0.524 -0.5375  1.0491  1.1092
 7835TIP3   OH223461   2.760   1.445   6.682  0.2667  0.1969  0.6782
 7835TIP3    H123462   2.852   1.428   6.703  0.4354  2.0955  1.6219
 7835TIP3    H223463   2.711   1.378   6.730  1.0467  0.4043  1.7712
 7836TIP3   OH223464   4.026   2.622   0.734 -0.1317 -0.4929 -0.1367
 7836TIP3    H123465   4.098   2.604   0.674 -0.3161 -0.7722 -0.2742
 7836TIP3    H223466   3.952   2.644   0.677 -0.2361 -0.5040 -0.0054
 7837TIP3   OH223467   3.200   3.542   2.687 -0.2704 -0.0049 -0.2584
 7837TIP3    H123468   3.190   3.601   2.761 -0.6466  0.4912 -0.6970
 7837TIP3    H223469   3.282   3.569   2.645 -0.7206  0.5784 -0.7799
 7838TIP3   OH223470   2.501   6.618   4.288 -0.0417  0.0597  0.2299
 7838TIP3    H123471   2.550   6.697   4.310 -0.4687  0.1848  0.7376
 7838TIP3    H223472   2.486   6.625   4.193  1.4046 -0.2612 -0.0427
 7839TIP3   OH223473   3.416   4.737   3.956  0.2750 -0.1223  0.2415
 7839TIP3    H123474   3.467   4.717   4.035  1.0779 -1.7758 -0.6457
 7839TIP3    H223475   3.473   4.796   3.906  1.0852 -1.4223 -0.4293
 7840TIP3   OH223476   3.403   2.534   5.250 -0.0385  0.1087 -0.1708
 7840TIP3    H123477   3.362   2.548   5.336  1.3514  0.8460  0.4039
 7840TIP3    H223478   3.330   2.510   5.193 -0.8411 -1.6247  1.4669
 7841TIP3   OH223479   0.675   1.293   2.080 -0.0381 -0.2709  0.0137
 7841TIP3    H123480   0.609   1.334   2.024  0.0992 -0.5949 -0.3887
 7841TIP3    H223481   0.723   1.367   2.118  1.1747 -0.0162 -1.8643
 7842TIP3   OH223482   6.122   6.204   4.716  0.3223 -0.4142  0.4184
 7842TIP3    H123483   6.052   6.141   4.697  0.0961 -0.3663  1.0831
 7842TIP3    H223484   6.158   6.226   4.630 -0.2985 -0.6459  0.0932
 7843TIP3   OH223485   0.108   5.096   4.006  0.4721 -0.4973  0.1585
 7843TIP3    H123486   0.058   5.161   3.957  2.6797 -0.1549 -1.8232
 7843TIP3    H223487   0.102   5.125   4.097 -2.2944 -0.1324 -0.0427
 7844TIP3   OH223488   4.520   4.297   6.490 -0.3851  0.1942  0.7850
 7844TIP3    H123489   4.573   4.308   6.412 -1.9063  0.2107 -0.2770
 7844TIP3    H223490   4.582   4.306   6.563  1.1694 -0.4910 -0.4113
 7845TIP3   OH223491   2.323   1.017   5.674 -0.3453  0.8547 -0.2304
 7845TIP3    H123492   2.399   1.074   5.656 -0.8197  1.3839 -0.5949
 7845TIP3    H223493   2.249   1.077   5.682 -0.8193  0.3028 -0.3870
 7846TIP3   OH223494   2.847   3.760   5.921  0.5683 -0.0639 -0.0009
 7846TIP3    H123495   2.882   3.671   5.910  0.8600  0.0367  0.0905
 7846TIP3    H223496   2.789   3.753   5.997  1.5853  0.0986  0.8199
 7847TIP3   OH223497   2.643   3.588   5.494 -0.6243 -0.1729 -0.5603
 7847TIP3    H123498   2.736   3.568   5.495 -0.4922  0.4047  0.7044
 7847TIP3    H223499   2.634   3.664   5.551 -1.7892  0.1640 -1.1674
 7848TIP3   OH223500   1.904   1.027   4.127  0.0394  0.3426 -0.2644
 7848TIP3    H123501   1.826   1.065   4.087  0.5049  0.6528 -0.8846
 7848TIP3    H223502   1.962   1.101   4.142 -0.4235  0.3584  1.7253
 7849TIP3   OH223503   4.735   6.109   2.294  0.1573  0.2438 -0.1191
 7849TIP3    H123504   4.813   6.068   2.255 -0.1503 -0.1812 -0.3018
 7849TIP3    H223505   4.757   6.120   2.386  0.8218  1.0787 -0.3652
 7850TIP3   OH223506   2.188   1.188   2.140  0.1934 -0.3726  0.1649
 7850TIP3    H123507   2.214   1.238   2.063  0.8058  0.3421  0.8189
 7850TIP3    H223508   2.210   1.244   2.214  0.5692 -1.4669  0.9127
 7851TIP3   OH223509   6.961   4.695   4.109  0.3214 -0.2096 -0.2804
 7851TIP3    H123510   6.992   4.744   4.186 -2.4865  2.6451 -0.7637
 7851TIP3    H223511   6.868   4.680   4.126  0.5618 -3.6798 -1.1996
 7852TIP3   OH223512   0.737   7.314   2.253 -0.3464 -0.6468 -0.2899
 7852TIP3    H123513   0.806   7.373   2.222 -2.1515  1.1247 -1.1483
 7852TIP3    H223514   0.766   7.289   2.341  2.2439 -1.4473 -1.2811
 7853TIP3   OH223515   1.525   5.238   1.545 -0.1811 -0.3884  0.0426
 7853TIP3    H123516   1.576   5.216   1.467  0.4815 -2.7707  1.0470
 7853TIP3    H223517   1.435   5.243   1.515  0.2266  0.2310 -1.1151
 7854TIP3   OH223518   2.112   5.205   5.730  0.0032 -0.1611 -0.0335
 7854TIP3    H123519   2.117   5.267   5.803  2.0730 -0.6836  0.3345
 7854TIP3    H223520   2.185   5.229   5.673 -1.9437  0.6302 -2.3350
 7855TIP3   OH223521   0.114   3.312   0.159  0.1696  0.4541 -0.5028
 7855TIP3    H123522   0.032   3.359   0.147  0.5162  0.8298 -1.4986
 7855TIP3    H223523   0.176   3.357   0.102  1.0936  0.2203  0.2824
 7856TIP3   OH223524   2.715   6.617   1.211  0.8662  0.1705 -0.4138
 7856TIP3    H123525   2.634   6.639   1.258  0.7258 -1.6096  0.2670
 7856TIP3    H223526   2.741   6.699   1.168 -0.6757  1.0690  0.2713
 7857TIP3   OH223527   7.901  -0.003   1.721 -0.0505 -0.2146  0.1060
 7857TIP3    H123528   7.823  -0.032   1.768 -0.1119 -0.2961 -0.0456
 7857TIP3    H223529   7.867   0.042   1.644  0.0555 -0.8429 -0.3175
 7858TIP3   OH223530   1.958   5.361   3.884  0.3389  0.0478 -0.4130
 7858TIP3    H123531   2.027   5.393   3.826  0.9854 -0.6636 -0.0590
 7858TIP3    H223532   1.998   5.362   3.972 -0.7912  1.5985  0.1194
 7859TIP3   OH223533   5.261   5.426   5.108 -0.6036  0.6725 -0.1071
 7859TIP3    H123534   5.339   5.373   5.124 -0.2266  1.4688  0.7341
 7859TIP3    H223535   5.194   5.387   5.165 -0.1537  1.4596  1.0033
 7860TIP3   OH223536   1.947   6.640   0.189  0.3430 -0.2913 -0.7518
 7860TIP3    H123537   1.904   6.724   0.200 -0.7433 -0.7708 -1.2173
 7860TIP3    H223538   2.021   6.658   0.131  0.2583  0.3813 -0.6506
 7861TIP3   OH223539   5.368   2.568   4.458 -0.0824 -0.3234  0.1220
 7861TIP3    H123540   5.405   2.591   4.543 -0.3517  0.9557 -0.0945
 7861TIP3    H223541   5.397   2.478   4.443 -0.5709 -0.8179  1.8563
 7862TIP3   OH223542   2.016   3.260   4.109 -0.3912 -0.1163  0.3815
 7862TIP3    H123543   1.997   3.323   4.179 -0.7928 -0.4602  0.5855
 7862TIP3    H223544   1.985   3.176   4.143 -0.2003 -0.3608 -0.0409
 7863TIP3   OH223545   0.851   6.067   1.357 -0.0249  0.0324  0.0755
 7863TIP3    H123546   0.826   6.159   1.371  0.6860  0.3564 -0.7450
 7863TIP3    H223547   0.793   6.018   1.416 -0.0902  1.0356  0.8712
 7864TIP3   OH223548   7.275   6.408   1.375 -0.2445 -0.2552  0.5003
 7864TIP3    H123549   7.347   6.348   1.394 -0.6410 -0.9398 -0.0928
 7864TIP3    H223550   7.317   6.493   1.361  0.3821 -0.5204  0.7620
 7865TIP3   OH223551   3.563   5.058   0.179  0.3744  0.1871 -0.3600
 7865TIP3    H123552   3.651   5.046   0.216 -0.7899 -0.4680  2.4179
 7865TIP3    H223553   3.546   4.977   0.131  0.6067 -0.4721  0.6490
 7866TIP3   OH223554   6.655   1.298   5.876 -0.1984  0.5176 -0.3735
 7866TIP3    H123555   6.672   1.365   5.810 -0.5692  3.3946  2.1672
 7866TIP3    H223556   6.714   1.226   5.855  3.9392  3.6412 -0.6375
 7867TIP3   OH223557   3.478   1.003   2.349 -0.7579 -0.2917  0.0816
 7867TIP3    H123558   3.444   0.914   2.357 -2.1533  0.0013 -1.9571
 7867TIP3    H223559   3.408   1.058   2.385 -0.9209  0.1095 -0.8372
 7868TIP3   OH223560   4.303   1.454   4.541  0.1368 -1.1624  0.2070
 7868TIP3    H123561   4.392   1.421   4.546  0.3579 -0.8722 -1.3259
 7868TIP3    H223562   4.292   1.506   4.621  0.8219 -2.3736  1.1185
 7869TIP3   OH223563   2.463   4.923   1.952 -0.1295 -0.2046 -0.1356
 7869TIP3    H123564   2.419   4.838   1.954 -0.3440 -0.1016 -0.5614
 7869TIP3    H223565   2.548   4.906   1.993 -0.1930 -0.6083 -0.1656
 7870TIP3   OH223566   8.245   4.701   5.767 -0.5616  0.2336 -0.2193
 7870TIP3    H123567   8.302   4.654   5.708  0.3163  2.4109 -1.2303
 7870TIP3    H223568   8.252   4.654   5.850 -0.1722 -1.6528 -1.2607
 7871TIP3   OH223569   2.476   2.812  -0.012 -0.2811 -0.1074 -0.0531
 7871TIP3    H123570   2.384   2.812   0.015  0.2745  1.8888  2.2329
 7871TIP3    H223571   2.523   2.844   0.065  1.9987  1.9397 -2.1362
 7872TIP3   OH223572   8.293   3.076   6.220 -0.3912 -0.0137  0.2413
 7872TIP3    H123573   8.282   3.101   6.311 -0.8619  0.1488  0.1433
 7872TIP3    H223574   8.241   3.140   6.171 -0.1058 -0.0697 -0.1459
 7873TIP3   OH223575   5.353   7.090   5.663 -0.3143  0.3363 -0.4866
 7873TIP3    H123576   5.383   7.070   5.575 -0.4842  0.4605 -0.5728
 7873TIP3    H223577   5.384   7.179   5.680  2.5649 -0.7969  0.8101
 7874TIP3   OH223578   1.406   7.373   6.059 -0.0484 -0.2202 -0.2314
 7874TIP3    H123579   1.383   7.453   6.105 -0.6451  0.7871 -2.1668
 7874TIP3    H223580   1.351   7.374   5.981  0.0450 -2.4496 -0.3822
 7875TIP3   OH223581   7.553   4.655   0.156  0.2067 -0.0159 -0.0859
 7875TIP3    H123582   7.578   4.695   0.072  1.9754  0.6437  0.6934
 7875TIP3    H223583   7.493   4.718   0.195  0.5844  0.4325 -0.2091
 7876TIP3   OH223584   4.212   0.376   5.974  0.6317  0.3590  0.3582
 7876TIP3    H123585   4.206   0.393   6.068 -1.2250  0.1736  0.3172
 7876TIP3    H223586   4.125   0.398   5.940  0.7669 -1.0791 -1.0482
 7877TIP3   OH223587   0.634   0.594   4.127  0.5658  0.0415 -0.2726
 7877TIP3    H123588   0.673   0.512   4.097  0.9434 -0.4820  1.5414
 7877TIP3    H223589   0.566   0.567   4.189  0.4114  1.0969  0.0365
 7878TIP3   OH223590   0.151   7.193   4.778 -0.5742 -0.1149  0.3594
 7878TIP3    H123591   0.097   7.138   4.835  0.0265 -0.6128  0.4520
 7878TIP3    H223592   0.235   7.200   4.823 -0.3270  0.0699 -0.1257
 7879TIP3   OH223593   5.615   3.992   1.660  0.0449  0.2529  0.0505
 7879TIP3    H123594   5.571   4.075   1.646  0.9756  0.2649 -3.9554
 7879TIP3    H223595   5.708   4.012   1.650  0.3237 -1.1392 -0.4081
 7880TIP3   OH223596   5.915   7.050   5.186 -0.4264  0.0925  0.0257
 7880TIP3    H123597   5.948   6.970   5.146  1.4866 -0.4640  2.4705
 7880TIP3    H223598   5.947   7.120   5.128 -2.8790 -0.8069 -2.6315
 7881TIP3   OH223599   3.327   1.162   6.014  0.5180 -0.1656 -0.1351
 7881TIP3    H123600   3.373   1.189   5.934 -1.5823  2.0196 -0.7401
 7881TIP3    H223601   3.308   1.244   6.058 -0.1204 -1.2276  1.6322
 7882TIP3   OH223602   5.765   7.339   2.554 -0.3925  0.3487 -0.1852
 7882TIP3    H123603   5.733   7.274   2.492 -0.5666 -0.8860  1.1540
 7882TIP3    H223604   5.707   7.414   2.542 -1.9065 -0.7367  0.0965
 7883TIP3   OH223605   6.442   7.305   3.052  0.2290  0.0679 -0.0742
 7883TIP3    H123606   6.431   7.241   2.982 -0.4836  0.8045 -0.6524
 7883TIP3    H223607   6.368   7.289   3.111  0.4338 -0.0891  0.1416
 7884TIP3   OH223608   7.412   2.498   2.618 -0.4515 -0.3323  0.0467
 7884TIP3    H123609   7.459   2.577   2.590  0.3944 -0.9934 -0.4572
 7884TIP3    H223610   7.374   2.522   2.703  0.4435  0.3733  0.2685
 7885TIP3   OH223611   3.287   6.484   5.311 -0.6249  0.3959 -0.6983
 7885TIP3    H123612   3.222   6.461   5.377 -1.2020  3.2583 -0.1399
 7885TIP3    H223613   3.244   6.468   5.228 -1.9073  1.6998 -0.3280
 7886TIP3   OH223614   4.483   0.623   3.641  0.3471  0.4198 -0.5879
 7886TIP3    H123615   4.428   0.656   3.712  1.7164  1.2497  0.1278
 7886TIP3    H223616   4.488   0.695   3.579  0.1583  0.1282 -0.9500
 7887TIP3   OH223617   0.263   6.012   5.954 -0.0104  0.0853 -1.2429
 7887TIP3    H123618   0.204   6.055   6.015 -0.4127 -2.2344  0.1445
 7887TIP3    H223619   0.205   5.969   5.891  0.2423 -0.5757 -1.0389
 7888TIP3   OH223620   7.438   4.909   4.904  0.4177  0.1513  0.6600
 7888TIP3    H123621   7.527   4.932   4.877  0.3351 -0.8715 -0.5605
 7888TIP3    H223622   7.449   4.834   4.963  0.3297 -0.6099 -0.2666
 7889TIP3   OH223623   4.107   4.016   2.626  0.2877  0.1663  0.5092
 7889TIP3    H123624   4.179   3.963   2.589 -0.6235 -1.9613  1.6210
 7889TIP3    H223625   4.042   4.018   2.556  0.3280 -0.1983  0.4564
 7890TIP3   OH223626   7.846   0.547   5.688  0.0645 -0.3460 -0.1985
 7890TIP3    H123627   7.870   0.640   5.687 -0.8021 -0.1149 -0.7208
 7890TIP3    H223628   7.840   0.523   5.596  1.1330 -1.1557 -0.0591
 7891TIP3   OH223629   2.642   0.776   6.640 -0.2905 -0.1761  0.2797
 7891TIP3    H123630   2.616   0.684   6.636 -3.4141  0.5545  0.8971
 7891TIP3    H223631   2.563   0.824   6.613  1.3514  2.3396 -0.3826
 7892TIP3   OH223632   6.089   2.691   0.906  0.1249  0.5687 -0.2149
 7892TIP3    H123633   6.165   2.700   0.849  1.8742 -1.8013  1.5154
 7892TIP3    H223634   6.113   2.740   0.985  0.0441 -0.4659  0.4686
 7893TIP3   OH223635   5.642   5.956   6.422 -0.0925  0.1331  0.8630
 7893TIP3    H123636   5.722   6.008   6.415 -0.2493  0.2192 -0.5336
 7893TIP3    H223637   5.663   5.873   6.380 -1.0010  0.5151 -0.4079
 7894TIP3   OH223638   3.427   3.586   2.548 -0.4105 -0.0684  0.3018
 7894TIP3    H123639   3.499   3.564   2.607 -0.2022 -1.3233 -0.3880
 7894TIP3    H223640   3.443   3.677   2.522 -0.0194  0.2142  1.4581
 7895TIP3   OH223641   0.103   6.699   6.113 -0.9477  0.2281  0.1438
 7895TIP3    H123642   0.079   6.614   6.150 -3.3047  1.4808  1.6713
 7895TIP3    H223643   0.157   6.741   6.180  0.4326 -0.1103 -0.7146
 7896TIP3   OH223644   2.683   7.198   6.620 -0.0785  0.4960 -0.1599
 7896TIP3    H123645   2.632   7.144   6.680 -0.2858 -0.2386 -0.9716
 7896TIP3    H223646   2.766   7.151   6.611  1.7801  2.7754  2.8931
 7897TIP3   OH223647   2.095   5.220   3.326  0.2947 -0.0598 -0.6512
 7897TIP3    H123648   2.085   5.168   3.246 -0.5773 -0.5823 -0.2195
 7897TIP3    H223649   2.006   5.245   3.350  0.6177  0.7638 -0.2697
 7898TIP3   OH223650   2.437   4.313   1.521 -0.4381 -0.5095  0.4453
 7898TIP3    H123651   2.519   4.351   1.552 -0.3188 -0.8721  0.5756
 7898TIP3    H223652   2.406   4.373   1.453  0.2102 -0.6675  0.0079
 7899TIP3   OH223653   4.948   4.788   4.684 -0.1204 -0.1965  0.1109
 7899TIP3    H123654   4.976   4.845   4.612 -1.7508  0.8536  0.2522
 7899TIP3    H223655   4.939   4.702   4.644  1.2613 -0.1432 -0.3760
 7900TIP3   OH223656   4.820   3.208   0.050 -0.6228  0.7497  0.3427
 7900TIP3    H123657   4.794   3.248  -0.033  1.8554  1.5862 -0.1156
 7900TIP3    H223658   4.817   3.280   0.113 -0.5051  0.5975  0.5228
 7901TIP3   OH223659   7.136  -0.018   5.485  0.5564 -0.1195 -0.5061
 7901TIP3    H123660   7.104   0.016   5.401 -1.1283 -0.1990  0.0621
 7901TIP3    H223661   7.106   0.047   5.549  0.9073 -0.5986  0.1472
 7902TIP3   OH223662   8.203   0.045   6.554  0.0401  0.1443  0.3715
 7902TIP3    H123663   8.206  -0.010   6.475  1.1695  0.1347  0.4075
 7902TIP3    H223664   8.272   0.011   6.610  0.3822  1.2430  0.6403
 7903TIP3   OH223665   0.884   3.854   4.891 -0.3583  0.3420 -0.1208
 7903TIP3    H123666   0.870   3.765   4.923  2.0407 -0.1074 -0.1078
 7903TIP3    H223667   0.928   3.842   4.806  0.7334  1.4924  0.2508
 7904TIP3   OH223668   1.125   6.961   1.517  0.9375 -0.1921  0.2889
 7904TIP3    H123669   1.117   6.866   1.519  1.5511 -0.2683 -0.4155
 7904TIP3    H223670   1.035   6.993   1.516  0.5974 -0.8878 -3.2642
 7905TIP3   OH223671   4.898   2.127   2.273  0.1028 -0.2908 -0.0378
 7905TIP3    H123672   4.888   2.156   2.363 -1.7529 -0.0223 -0.3060
 7905TIP3    H223673   4.952   2.048   2.280 -0.1839 -0.3950  1.3276
 7906TIP3   OH223674   1.883   1.074   6.642  0.2170  0.0985  0.4398
 7906TIP3    H123675   1.979   1.072   6.645  0.1930 -1.1476  1.1230
 7906TIP3    H223676   1.860   1.165   6.661  1.2407  0.1772  1.4220
 7907TIP3   OH223677   4.328   2.820   4.011  0.4888 -0.0746 -0.8861
 7907TIP3    H123678   4.314   2.909   4.044 -0.3550 -0.6891  0.4713
 7907TIP3    H223679   4.304   2.825   3.918 -1.1654  0.7648 -0.4559
 7908TIP3   OH223680   5.255   4.583   3.697  0.3294  0.1388 -0.3139
 7908TIP3    H123681   5.349   4.569   3.696  0.2654 -0.3905  0.4033
 7908TIP3    H223682   5.234   4.617   3.610  1.1183 -0.1192 -0.6039
 7909TIP3   OH223683   0.154   0.549   3.860 -0.0582 -0.3593 -0.5134
 7909TIP3    H123684   0.099   0.591   3.794  0.2104 -0.1063 -0.5771
 7909TIP3    H223685   0.115   0.462   3.871 -1.1854  0.2343  0.3139
 7910TIP3   OH223686   0.216   6.098   6.422  0.0143  0.1835  0.1372
 7910TIP3    H123687   0.140   6.096   6.365 -0.1849 -1.0881  0.4369
 7910TIP3    H223688   0.245   6.007   6.428  2.0652  0.7325 -0.6332
 7911TIP3   OH223689   4.824   7.646   2.137  0.0386  0.3674 -0.0422
 7911TIP3    H123690   4.863   7.560   2.152  0.1607  0.4392  0.0488
 7911TIP3    H223691   4.889   7.709   2.169 -0.9506  0.4522  1.9874
 7912TIP3   OH223692   7.974   1.646   5.764  0.0589  0.4488  0.0005
 7912TIP3    H123693   8.005   1.667   5.676 -0.4583  0.8274 -0.0992
 7912TIP3    H223694   8.050   1.607   5.808  0.3805  0.4533 -0.5447
 7913TIP3   OH223695   4.711   6.381   2.453  0.5776 -0.4874 -0.3257
 7913TIP3    H123696   4.622   6.398   2.423  0.4497  0.6087  0.5927
 7913TIP3    H223697   4.766   6.432   2.393  0.4670  0.0264 -0.0031
 7914TIP3   OH223698   4.653   6.940   5.229 -0.2624  0.4301  0.2572
 7914TIP3    H123699   4.649   6.973   5.319 -0.1266 -1.1288  0.8651
 7914TIP3    H223700   4.723   6.992   5.188 -0.4062  1.2430  1.0088
 7915TIP3   OH223701   8.167   2.663   5.941 -0.1642  0.2741 -0.3236
 7915TIP3    H123702   8.163   2.720   6.019 -1.9041 -0.3781  0.1029
 7915TIP3    H223703   8.095   2.692   5.886 -1.3520 -1.7264  0.0771
 7916TIP3   OH223704   3.241   7.724   3.944  0.0834  0.6914 -0.3109
 7916TIP3    H123705   3.320   7.687   3.984  0.0774  0.7837 -0.2136
 7916TIP3    H223706   3.270   7.754   3.858  0.0858  0.4476 -0.3947
 7917TIP3   OH223707   6.344   0.860   5.022 -0.2260  0.1569  0.1778
 7917TIP3    H123708   6.305   0.923   4.962  2.1362  1.4298 -0.1300
 7917TIP3    H223709   6.371   0.787   4.966  1.0331  0.8799 -0.1820
 7918TIP3   OH223710   7.187   2.949   4.524  0.3493  0.1723 -0.2648
 7918TIP3    H123711   7.250   2.894   4.570 -0.0183  0.1575  0.2363
 7918TIP3    H223712   7.101   2.917   4.552  0.0718 -0.7046 -1.9842
 7919TIP3   OH223713   5.645   4.293   6.292 -0.2540 -0.1177 -0.8123
 7919TIP3    H123714   5.557   4.321   6.315 -0.0805  0.0038 -0.2903
 7919TIP3    H223715   5.636   4.252   6.206 -0.7919  0.0294 -0.8243
 7920TIP3   OH223716   4.911   1.832   5.573 -0.3719  0.0945 -0.0490
 7920TIP3    H123717   4.990   1.809   5.622 -1.0422 -0.0128  1.0152
 7920TIP3    H223718   4.938   1.904   5.516  0.7156 -0.5395 -0.3700
 7921TIP3   OH223719   5.557   7.072   1.352  0.2443 -0.9217 -0.1797
 7921TIP3    H123720   5.568   7.160   1.388 -1.9052 -0.3415 -0.7677
 7921TIP3    H223721   5.640   7.053   1.310  0.4133  1.3372 -1.0415
 7922TIP3   OH223722   7.927   3.076   2.774 -0.3557 -1.1278  0.1696
 7922TIP3    H123723   7.918   3.108   2.864  0.4847  0.7391 -0.3655
 7922TIP3    H223724   8.020   3.085   2.754 -0.9530  2.0471 -2.0386
 7923TIP3   OH223725   0.264   0.699   5.523 -0.3241  0.2871 -0.5303
 7923TIP3    H123726   0.345   0.650   5.534  0.7226  2.2734  1.4674
 7923TIP3    H223727   0.195   0.633   5.526  1.1793 -1.5512 -3.1061
 7924TIP3   OH223728   8.119   0.633   2.235  0.1745  0.3728 -0.4812
 7924TIP3    H123729   8.035   0.678   2.242  0.3653  0.5641  0.7081
 7924TIP3    H223730   8.097   0.540   2.235  0.0446  0.3288  2.1338
 7925TIP3   OH223731   2.922   3.796   5.621  0.2557  0.3164  0.6487
 7925TIP3    H123732   3.011   3.823   5.645  0.1919  1.4147 -0.2726
 7925TIP3    H223733   2.913   3.708   5.658  1.1008  0.8597  2.2814
 7926TIP3   OH223734   4.583   0.948   1.909  0.1171 -0.9198  0.4455
 7926TIP3    H123735   4.536   1.027   1.936  2.1711 -0.0202  1.6013
 7926TIP3    H223736   4.657   0.942   1.970  1.5791 -2.1956 -1.3587
 7927TIP3   OH223737   0.411   4.538  -0.001 -0.3382  0.2898  1.1607
 7927TIP3    H123738   0.358   4.574   0.070  0.3226 -0.7642  2.2262
 7927TIP3    H223739   0.466   4.610  -0.030 -0.0206  0.5220  2.3040
 7928TIP3   OH223740   8.135   6.669   3.486 -0.3161  0.2149  0.0378
 7928TIP3    H123741   8.163   6.578   3.489  1.4901  0.7517  2.7045
 7928TIP3    H223742   8.044   6.668   3.516 -0.5791 -0.7620 -0.7551
 7929TIP3   OH223743   6.274   2.996   0.618  0.1369 -0.3064  0.0208
 7929TIP3    H123744   6.183   3.010   0.644  0.1798 -3.3418  2.3421
 7929TIP3    H223745   6.318   3.077   0.645 -1.6708  0.8509 -0.2903
 7930TIP3   OH223746   7.968   7.800   5.323 -0.3571 -0.4045  0.3868
 7930TIP3    H123747   7.998   7.736   5.388 -0.2977 -1.7937 -0.9585
 7930TIP3    H223748   7.938   7.874   5.375  0.9375 -0.9233  1.9465
 7931TIP3   OH223749   3.673   2.280   1.738 -0.1489 -0.1365 -0.2534
 7931TIP3    H123750   3.740   2.313   1.678 -1.4492 -0.1862 -1.8142
 7931TIP3    H223751   3.722   2.234   1.806  1.3741 -0.6535 -1.6326
 7932TIP3   OH223752   3.505   7.666   4.362 -0.2897 -0.6339  0.5166
 7932TIP3    H123753   3.525   7.738   4.422  1.7069 -0.5523 -0.1748
 7932TIP3    H223754   3.511   7.587   4.416 -0.3989 -0.4370  0.8176
 7933TIP3   OH223755   2.534   6.975   4.849  0.7695  0.4931 -0.2217
 7933TIP3    H123756   2.588   6.976   4.928  0.0627  1.3230  0.2696
 7933TIP3    H223757   2.550   7.061   4.809  1.0297  0.1210 -0.9191
 7934TIP3   OH223758   4.387   4.860   5.151 -0.0156 -0.4640 -0.3894
 7934TIP3    H123759   4.421   4.779   5.189 -0.9691 -0.7905 -0.2044
 7934TIP3    H223760   4.464   4.904   5.114  0.6310 -1.0475  0.2532
 7935TIP3   OH223761   0.947   3.101   3.370 -0.5399 -0.1427 -0.6317
 7935TIP3    H123762   0.879   3.067   3.311 -0.7823 -0.5264 -0.1371
 7935TIP3    H223763   0.955   3.193   3.346 -0.9531 -0.1886 -0.9668
 7936TIP3   OH223764   7.839   4.726   1.179 -1.0056 -0.1883 -0.3186
 7936TIP3    H123765   7.837   4.637   1.215  0.3568 -0.0725  0.1151
 7936TIP3    H223766   7.761   4.732   1.124 -2.6023 -0.7591  1.7367
 7937TIP3   OH223767   0.774   3.955   2.885  0.1194 -0.2438  0.0102
 7937TIP3    H123768   0.827   4.035   2.890  0.8397 -0.7534  0.8507
 7937TIP3    H223769   0.753   3.946   2.792 -0.8243  1.4611  0.0141
 7938TIP3   OH223770   7.947   7.109   3.287 -1.0113 -0.1407 -0.2433
 7938TIP3    H123771   7.853   7.114   3.267 -1.2613  1.6796  1.0841
 7938TIP3    H223772   7.960   7.175   3.355  1.5765  0.9286 -1.6327
 7939TIP3   OH223773   3.933   0.804   3.412  0.0073 -0.0365 -0.1723
 7939TIP3    H123774   3.917   0.810   3.318  0.1377  2.2364 -0.1083
 7939TIP3    H223775   3.846   0.806   3.452 -0.0206  2.9898 -0.1678
 7940TIP3   OH223776   1.638   0.458   2.324 -0.2450 -0.6811 -0.5484
 7940TIP3    H123777   1.657   0.468   2.418 -0.6584 -0.5187 -0.4853
 7940TIP3    H223778   1.555   0.502   2.311 -0.7553 -1.6794 -0.7709
 7941TIP3   OH223779   2.144   7.633   5.396  0.6489 -0.0027 -0.2733
 7941TIP3    H123780   2.058   7.668   5.419  0.1553 -0.1674 -1.7635
 7941TIP3    H223781   2.170   7.582   5.473  0.2710  1.5323  0.9439
 7942TIP3   OH223782   4.348   2.010   1.212 -0.8784  0.3954  0.0907
 7942TIP3    H123783   4.266   2.019   1.261 -0.6413  0.3693  0.5000
 7942TIP3    H223784   4.399   2.088   1.235 -0.8532  0.4928 -0.2897
 7943TIP3   OH223785   6.340   0.743   5.954  0.1583 -0.7352 -0.2619
 7943TIP3    H123786   6.412   0.705   6.005  1.2444  0.8646 -0.5262
 7943TIP3    H223787   6.356   0.838   5.957 -2.0140 -0.3197 -0.2419
 7944TIP3   OH223788   4.953   6.292   0.864  0.0095  0.1591  0.5600
 7944TIP3    H123789   4.987   6.349   0.794 -1.7620  0.1779 -0.3207
 7944TIP3    H223790   4.890   6.346   0.911  0.1733 -0.3029  1.3380
 7945TIP3   OH223791   6.857   3.863   0.825 -1.0559  0.3826 -0.0381
 7945TIP3    H123792   6.838   3.879   0.917  0.9168  0.3332  0.4133
 7945TIP3    H223793   6.852   3.949   0.784 -1.1514  0.5247  0.2685
 7946TIP3   OH223794   6.309   6.934   3.989  0.0968  0.2076  0.4281
 7946TIP3    H123795   6.230   6.882   4.002 -1.1325  1.6591 -0.7494
 7946TIP3    H223796   6.310   6.994   4.064  0.2784 -0.0598  0.6374
 7947TIP3   OH223797   2.207   6.567   2.679  0.7462 -0.4042 -0.0936
 7947TIP3    H123798   2.142   6.517   2.629  0.5275 -1.1621  0.9167
 7947TIP3    H223799   2.245   6.627   2.615 -0.8066 -0.0832 -0.7530
 7948TIP3   OH223800   7.348   2.067   0.207  0.2557  0.0189  0.2818
 7948TIP3    H123801   7.429   2.039   0.166 -0.3208  1.8994 -2.5118
 7948TIP3    H223802   7.360   2.052   0.300  2.3393 -3.1225 -0.3560
 7949TIP3   OH223803   0.264   4.036   5.375 -0.6392 -0.0482 -0.1071
 7949TIP3    H123804   0.264   4.098   5.448  0.3281  0.0445 -0.1715
 7949TIP3    H223805   0.185   4.057   5.325 -1.2641 -0.0579  0.8651
 7950TIP3   OH223806   0.202   7.487   4.809  0.2650 -0.1916 -0.2770
 7950TIP3    H123807   0.215   7.405   4.761  1.0400 -0.2649  0.0471
 7950TIP3    H223808   0.174   7.550   4.742  0.0085 -0.6319 -0.5863
 7951TIP3   OH223809   4.482   2.083   3.243  0.0035 -0.4786  0.1020
 7951TIP3    H123810   4.503   2.065   3.334 -0.5938 -0.7486  0.1903
 7951TIP3    H223811   4.493   2.178   3.234 -1.2685 -0.2432  0.8184
 7952TIP3   OH223812   8.094   6.375   2.877  0.0234  0.4654 -0.1719
 7952TIP3    H123813   8.184   6.355   2.850  1.9800  2.7532  3.7301
 7952TIP3    H223814   8.099   6.463   2.914 -3.5262  0.0955  1.6170
 7953TIP3   OH223815   3.072   4.623   2.975  0.1017 -0.2340  0.0834
 7953TIP3    H123816   3.059   4.666   3.060 -0.6052 -1.5729  0.6808
 7953TIP3    H223817   3.059   4.530   2.993  0.1065 -0.5583 -1.4682
 7954TIP3   OH223818   6.935   5.499   2.493  0.7128  0.0406 -0.1212
 7954TIP3    H123819   6.904   5.586   2.518  0.9577  0.0652  0.1061
 7954TIP3    H223820   6.865   5.463   2.438  0.6177  0.3835 -0.2225
 7955TIP3   OH223821   6.785   3.389   4.642 -0.0883 -0.2990  0.4338
 7955TIP3    H123822   6.729   3.312   4.638 -0.4510  0.0063 -1.1191
 7955TIP3    H223823   6.851   3.367   4.708 -0.0782 -2.0036 -0.0839
 7956TIP3   OH223824   6.599   5.986   6.297  0.1918 -0.4772 -0.1634
 7956TIP3    H123825   6.614   5.908   6.351 -0.5030 -1.9138 -1.9229
 7956TIP3    H223826   6.504   5.994   6.292  0.2407 -0.2276 -0.9256
 7957TIP3   OH223827   5.790   1.223   6.483 -0.4177  0.0637 -0.0183
 7957TIP3    H123828   5.864   1.282   6.500  0.0232 -0.8733  1.5466
 7957TIP3    H223829   5.730   1.239   6.556 -1.4047  0.2565 -0.8627
 7958TIP3   OH223830   0.184   6.797   5.551 -0.1140  0.6712 -0.5227
 7958TIP3    H123831   0.168   6.750   5.633  0.7776 -0.4152 -0.9455
 7958TIP3    H223832   0.135   6.748   5.485 -3.1406  3.1296 -0.2854
 7959TIP3   OH223833   0.111   3.052   4.258  0.3104 -0.0723  0.3240
 7959TIP3    H123834   0.053   3.067   4.184 -0.8954  0.7438  1.3930
 7959TIP3    H223835   0.195   3.029   4.218 -0.3061  0.3226 -1.2827
 7960TIP3   OH223836   4.933   0.918   2.580  0.2675  0.0427  0.8727
 7960TIP3    H123837   4.870   0.857   2.542  0.4239  0.7426 -0.6054
 7960TIP3    H223838   5.012   0.867   2.595 -0.5247 -0.7736  2.4531
 7961TIP3   OH223839   4.561   4.082   1.613 -0.3763 -0.1925 -0.1463
 7961TIP3    H123840   4.628   4.139   1.650  2.1981 -1.8198 -1.9981
 7961TIP3    H223841   4.577   3.996   1.653 -1.1744 -0.6698 -0.8059
 7962TIP3   OH223842   2.189   2.563   1.926 -0.4363 -0.0736  0.2239
 7962TIP3    H123843   2.110   2.517   1.896 -0.2292  0.4083 -1.1220
 7962TIP3    H223844   2.251   2.554   1.854  1.2277 -1.5115  1.7418
 7963TIP3   OH223845   1.756   6.551   4.694 -0.1862  0.1114 -0.1472
 7963TIP3    H123846   1.825   6.566   4.759 -0.6370  0.9820  0.1436
 7963TIP3    H223847   1.697   6.489   4.736 -0.6417  0.9056  0.4225
 7964TIP3   OH223848   3.128   5.609   2.668  0.0131 -0.4196  0.0344
 7964TIP3    H123849   3.144   5.621   2.575  0.9019 -0.0812  0.2241
 7964TIP3    H223850   3.206   5.564   2.700  0.0969  0.2396  0.7791
 7965TIP3   OH223851   1.264   1.628   3.968 -0.6483  0.5291  0.0615
 7965TIP3    H123852   1.323   1.628   3.893 -0.6015  3.0846  0.0034
 7965TIP3    H223853   1.195   1.690   3.945 -2.0812 -0.6139  1.0908
 7966TIP3   OH223854   4.523   2.639   5.770  0.1170 -0.0376 -0.1549
 7966TIP3    H123855   4.567   2.572   5.822  1.3793  1.1256  0.3483
 7966TIP3    H223856   4.585   2.660   5.700  0.0386  1.0642  0.0910
 7967TIP3   OH223857   6.727   7.649   5.840 -0.3058  0.3261  0.5476
 7967TIP3    H123858   6.692   7.613   5.758  0.1064  0.6678  0.2173
 7967TIP3    H223859   6.769   7.731   5.814  1.3718 -0.4251  0.8163
 7968TIP3   OH223860   8.245   4.158   0.170 -0.2617  0.0808  0.4324
 7968TIP3    H123861   8.203   4.135   0.253 -0.5568 -1.6455 -0.1503
 7968TIP3    H223862   8.177   4.144   0.104 -0.2746  2.1764 -0.0737
 7969TIP3   OH223863   6.566   7.033   1.786  0.3369 -0.6144 -0.4964
 7969TIP3    H123864   6.639   7.044   1.725  0.1282 -1.2944 -0.8874
 7969TIP3    H223865   6.521   6.954   1.755 -1.3084  0.4894 -1.0108
 7970TIP3   OH223866   6.654   1.957   5.384 -0.4228 -0.3153 -0.2199
 7970TIP3    H123867   6.643   2.026   5.318  2.5530  0.3659 -0.1719
 7970TIP3    H223868   6.721   1.900   5.347 -0.4408 -1.2974  1.2061
 7971TIP3   OH223869   4.808   4.968   3.070  0.1080  0.8751 -0.3620
 7971TIP3    H123870   4.837   5.047   3.115 -2.2161  1.5950  0.0078
 7971TIP3    H223871   4.787   4.906   3.140 -0.5971  0.9005 -0.5419
 7972TIP3   OH223872   3.340   5.489   4.580 -0.8345  0.1318  0.4683
 7972TIP3    H123873   3.436   5.491   4.587 -0.6993  0.5717 -1.0254
 7972TIP3    H223874   3.310   5.550   4.647  0.0845  1.8324 -0.5730
 7973TIP3   OH223875   2.615   1.604   4.424  0.0738 -0.0143 -0.2160
 7973TIP3    H123876   2.660   1.595   4.340 -2.5920  0.4455 -1.8222
 7973TIP3    H223877   2.609   1.699   4.437  0.3214 -0.0838  0.4109
 7974TIP3   OH223878   2.844   5.972   0.285  0.0068 -0.3017 -0.1124
 7974TIP3    H123879   2.930   5.938   0.261 -1.0397 -1.8203 -1.9833
 7974TIP3    H223880   2.841   6.058   0.243  0.6002 -0.2603 -0.0835
 7975TIP3   OH223881   6.129   7.656   3.777 -0.0919 -0.2228  0.0889
 7975TIP3    H123882   6.197   7.716   3.806 -0.0383 -0.3039  0.1311
 7975TIP3    H223883   6.167   7.611   3.701  0.4992 -1.4071  1.0596
 7976TIP3   OH223884   4.391   4.583   1.987  0.0444 -0.1563  0.0162
 7976TIP3    H123885   4.431   4.641   1.923 -1.8816  1.1324 -0.0856
 7976TIP3    H223886   4.339   4.640   2.043 -0.8036 -1.6176  0.7966
 7977TIP3   OH223887   7.371   7.602   3.742  0.1568  0.5474  0.4520
 7977TIP3    H123888   7.401   7.546   3.813  0.2860  0.2040  0.1238
 7977TIP3    H223889   7.387   7.552   3.663 -3.1883 -0.5948  0.3453
 7978TIP3   OH223890   3.638   6.000   2.156  0.0679  0.3141 -0.0976
 7978TIP3    H123891   3.562   5.943   2.169 -1.0714  1.8990  0.4785
 7978TIP3    H223892   3.611   6.062   2.088 -0.1531  2.4477  1.8070
 7979TIP3   OH223893   3.129   3.294   6.479 -0.1382  0.3149 -0.0431
 7979TIP3    H123894   3.040   3.328   6.484 -0.9238 -1.7351  1.4410
 7979TIP3    H223895   3.149   3.264   6.568  0.7857 -2.1024 -0.9761
 7980TIP3   OH223896   7.495   4.847   1.759  0.0668 -0.4961 -0.4708
 7980TIP3    H123897   7.441   4.906   1.811  0.4579 -0.0852 -0.5254
 7980TIP3    H223898   7.584   4.861   1.792  0.2963 -0.3471 -1.1366
 7981TIP3   OH223899   0.543   4.589   6.145 -0.2543  0.2073  0.3466
 7981TIP3    H123900   0.566   4.600   6.238 -0.2606  0.0216  0.3721
 7981TIP3    H223901   0.515   4.675   6.116  2.1750  0.8810 -0.1681
 7982TIP3   OH223902   1.997   6.364   0.093  0.6180  0.5950  0.3553
 7982TIP3    H123903   2.018   6.411   0.012 -1.1424  0.6938 -0.0991
 7982TIP3    H223904   1.962   6.431   0.151  0.6970  0.3106  0.7338
 7983TIP3   OH223905   3.451   1.337   2.655  0.5693  0.2463  0.3318
 7983TIP3    H123906   3.445   1.257   2.708  1.9492  0.9234  1.5856
 7983TIP3    H223907   3.401   1.317   2.576 -1.1268 -1.0141  1.6317
 7984TIP3   OH223908   6.955   1.786   0.608 -0.2010  0.8754  0.2479
 7984TIP3    H123909   6.987   1.809   0.521 -1.5622 -0.4507 -0.6579
 7984TIP3    H223910   6.976   1.861   0.662 -1.1995  2.6865 -1.7104
 7985TIP3   OH223911   5.214   2.810   6.140 -0.7671  0.2538 -0.2574
 7985TIP3    H123912   5.144   2.797   6.077 -2.2943  0.1018  1.3900
 7985TIP3    H223913   5.290   2.769   6.100 -1.6282  0.2924 -2.0371
 7986TIP3   OH223914   5.277   0.926   6.503  0.6023 -0.5942  0.1341
 7986TIP3    H123915   5.323   1.001   6.465 -1.1427  0.5518  0.1624
 7986TIP3    H223916   5.307   0.924   6.594 -0.0385  0.6787  0.3858
 7987TIP3   OH223917   0.373   7.556   3.758 -1.0189  0.4290 -0.0078
 7987TIP3    H123918   0.321   7.618   3.809 -0.7759  0.4098  0.2695
 7987TIP3    H223919   0.453   7.545   3.809 -0.5784  0.7527 -0.6129
 7988TIP3   OH223920   6.398   6.547   6.656  0.1741 -0.8167 -0.5132
 7988TIP3    H123921   6.305   6.537   6.637  0.1628 -0.2479 -0.7759
 7988TIP3    H223922   6.406   6.526   6.749 -0.1974 -0.9836 -0.5206
 7989TIP3   OH223923   0.958   6.524   0.621 -0.3009  0.3904 -0.1055
 7989TIP3    H123924   1.018   6.561   0.556  0.1100 -0.6645 -0.3476
 7989TIP3    H223925   0.941   6.435   0.590 -2.4361  0.8383 -0.3140
 7990TIP3   OH223926   7.930   2.172   1.799 -0.1749 -0.2369 -0.3806
 7990TIP3    H123927   7.936   2.255   1.846  2.4362  0.0244 -1.0167
 7990TIP3    H223928   7.858   2.125   1.842 -0.4215  1.5273  1.2783
 7991TIP3   OH223929   5.811   0.301   4.165 -0.9621  0.4315 -0.2411
 7991TIP3    H123930   5.889   0.246   4.173  0.5622  2.2037 -1.7212
 7991TIP3    H223931   5.811   0.328   4.073 -3.1792  0.7455 -0.1934
 7992TIP3   OH223932   1.407   1.141   3.862 -0.6284  0.1284 -0.0964
 7992TIP3    H123933   1.400   1.149   3.957  0.3129 -0.8328  0.0725
 7992TIP3    H223934   1.318   1.122   3.833 -1.0838  1.2526  0.4921
 7993TIP3   OH223935   8.179   3.879   1.605 -0.9473  0.5060  0.0925
 7993TIP3    H123936   8.149   3.815   1.540  0.3512  1.3566 -1.4248
 7993TIP3    H223937   8.214   3.826   1.677  0.6302 -0.5680 -1.3764
 7994TIP3   OH223938   0.090   1.458   1.458  0.0824  0.7426 -0.2297
 7994TIP3    H123939   0.078   1.409   1.376  0.5695  2.4310 -1.3485
 7994TIP3    H223940   0.165   1.515   1.442  0.7581  0.4935  1.7307
 7995TIP3   OH223941   5.340   7.099   4.270 -0.0457 -0.6851  0.6303
 7995TIP3    H123942   5.342   7.184   4.314 -0.2929 -0.1137 -0.4081
 7995TIP3    H223943   5.412   7.050   4.309  0.1382  0.0205  1.2128
 7996TIP3   OH223944   2.566   4.765   6.691  0.3803 -0.0972  0.0427
 7996TIP3    H123945   2.551   4.796   6.780 -0.9703 -1.7263  0.4286
 7996TIP3    H223946   2.512   4.821   6.635 -1.3232 -1.1142  0.6244
 7997TIP3   OH223947   1.252   2.114   1.857  0.3196 -0.4241 -0.0934
 7997TIP3    H123948   1.209   2.194   1.886 -0.0074 -1.1184  1.4141
 7997TIP3    H223949   1.309   2.089   1.929 -0.1230 -1.9387 -0.2240
 7998TIP3   OH223950   0.336   6.166   4.059  0.2915  0.1898  0.2041
 7998TIP3    H123951   0.306   6.107   4.128  0.2745 -1.1678 -0.9205
 7998TIP3    H223952   0.388   6.232   4.105  0.2485 -0.6453  1.5170
 7999TIP3   OH223953   0.828   0.613   5.264  0.0258  0.1088  0.4633
 7999TIP3    H123954   0.755   0.596   5.205 -1.2449  1.0255  1.7035
 7999TIP3    H223955   0.860   0.527   5.289 -1.1907 -0.3278  0.5574
 8000TIP3   OH223956   0.298   6.183   5.035  0.6199 -0.1488  0.0756
 8000TIP3    H123957   0.356   6.185   5.111  0.5496 -1.5202  0.1839
 8000TIP3    H223958   0.213   6.157   5.070  0.1362  0.9446 -0.2260
 8001TIP3   OH223959   7.789   5.810   4.049 -0.2695 -0.2772  0.2832
 8001TIP3    H123960   7.859   5.748   4.027  0.8516  0.3181  1.9962
 8001TIP3    H223961   7.762   5.785   4.138  0.4573  1.8738  1.1576
 8002TIP3   OH223962   1.749   0.919   0.121 -0.4981  0.2536  0.7972
 8002TIP3    H123963   1.824   0.933   0.064  1.2203 -2.6800  2.0739
 8002TIP3    H223964   1.771   0.966   0.202 -2.3973  3.4292 -0.3564
 8003TIP3   OH223965   1.803   0.896   4.475 -0.8997 -0.1660  0.2131
 8003TIP3    H123966   1.775   0.988   4.467 -0.2660  0.0816  0.7133
 8003TIP3    H223967   1.766   0.853   4.398 -1.9942  0.2985  0.4569
 8004TIP3   OH223968   1.050   0.819   4.415  0.3162 -0.2177 -0.7846
 8004TIP3    H123969   1.082   0.756   4.479 -0.4317 -0.3700 -0.5582
 8004TIP3    H223970   0.993   0.768   4.357 -0.3652  0.2580 -0.5479
 8005TIP3   OH223971   0.908   1.031   0.930  0.4351  0.2823  0.2720
 8005TIP3    H123972   0.843   1.078   0.981 -0.1740  0.0208 -0.2545
 8005TIP3    H223973   0.967   1.100   0.897 -0.0591  0.6111  0.0634
 8006TIP3   OH223974   7.315   3.085   5.600  0.0089 -0.2162 -0.3357
 8006TIP3    H123975   7.234   3.044   5.628  0.8644 -0.5622  1.7953
 8006TIP3    H223976   7.384   3.039   5.648  1.5663 -0.3519 -2.5269
 8007TIP3   OH223977   7.648   4.542   4.486 -0.7163  0.1695 -0.3634
 8007TIP3    H123978   7.720   4.566   4.545  1.1468  0.8852 -2.7785
 8007TIP3    H223979   7.569   4.561   4.536  0.7188 -0.2272  2.2579
 8008TIP3   OH223980   0.875   3.432   5.553 -0.5767 -0.4061  0.2645
 8008TIP3    H123981   0.916   3.506   5.599 -0.9003 -1.1435  1.8331
 8008TIP3    H223982   0.875   3.362   5.618 -3.1990 -0.8107 -0.0599
 8009TIP3   OH223983   7.420   3.221   3.898  0.3117 -0.3692 -0.0948
 8009TIP3    H123984   7.337   3.214   3.851  1.1225 -1.1755 -1.4771
 8009TIP3    H223985   7.415   3.304   3.945 -1.4555 -0.6271  0.2292
 8010TIP3   OH223986   5.829   7.748   0.588 -0.0808 -0.0021  0.3263
 8010TIP3    H123987   5.873   7.663   0.580 -1.3817 -0.7134  0.4400
 8010TIP3    H223988   5.842   7.790   0.503 -0.8626 -1.0545 -0.3423
 8011TIP3   OH223989   2.995   2.687   4.022  0.1950 -0.0251 -0.5435
 8011TIP3    H123990   3.027   2.776   4.040 -1.9730  0.7660 -0.2308
 8011TIP3    H223991   2.991   2.683   3.926  1.0351 -0.0727 -0.5792
 8012TIP3   OH223992   0.724   6.562   1.882 -0.5616 -0.6061 -0.5078
 8012TIP3    H123993   0.774   6.582   1.803 -2.0101  0.0965 -1.2904
 8012TIP3    H223994   0.695   6.472   1.870 -0.2832 -0.6963 -0.5007
 8013TIP3   OH223995   0.177   3.198   5.772 -0.5135  0.0638  0.2580
 8013TIP3    H123996   0.166   3.292   5.763  2.0749  0.5216  0.9803
 8013TIP3    H223997   0.184   3.184   5.867 -0.3215 -0.7721  0.1282
 8014TIP3   OH223998   0.380   1.077   0.717 -0.2993  0.3830 -0.1359
 8014TIP3    H123999   0.316   1.007   0.701  0.4833 -0.5034  0.4883
 8014TIP3    H224000   0.327   1.152   0.744 -1.0566 -0.5598  1.1235
 8015TIP3   OH224001   6.078   4.878   1.661  0.7997  0.4677  0.7455
 8015TIP3    H124002   6.000   4.916   1.700 -0.4450 -2.6443  1.5743
 8015TIP3    H224003   6.122   4.833   1.733  0.1415 -2.7327 -0.6690
 8016TIP3   OH224004   6.040   4.349   3.319  0.3490  0.4402 -0.2181
 8016TIP3    H124005   6.121   4.319   3.360 -0.8334 -0.8229  1.3536
 8016TIP3    H224006   6.059   4.349   3.226  1.4670 -2.2437 -0.0991
 8017TIP3   OH224007   0.281   7.660   0.994  0.1385 -0.0911 -0.1919
 8017TIP3    H124008   0.246   7.620   0.915 -1.7117  2.1346 -0.6106
 8017TIP3    H224009   0.370   7.685   0.971 -0.3941  0.5959 -1.6413
 8018TIP3   OH224010   2.399   3.923   0.828  1.2030  0.2879  0.2430
 8018TIP3    H124011   2.320   3.974   0.847  1.3158 -0.3050  2.5694
 8018TIP3    H224012   2.366   3.836   0.804  1.0504 -0.8584  4.0055
 8019TIP3   OH224013   0.677   6.497   2.867 -0.0576 -0.7908  0.5062
 8019TIP3    H124014   0.689   6.566   2.802  1.0541  0.9787  2.4258
 8019TIP3    H224015   0.765   6.461   2.880 -0.5713 -2.3915 -0.2159
 8020TIP3   OH224016   1.506   4.468   3.188  0.3238 -0.0230  0.2159
 8020TIP3    H124017   1.571   4.522   3.232 -1.1244  0.0057  2.4410
 8020TIP3    H224018   1.438   4.529   3.161 -0.2960 -0.4618  0.7842
 8021TIP3   OH224019   4.862   2.733   4.690  0.3140 -0.1084  0.1774
 8021TIP3    H124020   4.887   2.644   4.665  0.4805  0.2662 -1.0490
 8021TIP3    H224021   4.940   2.785   4.672  0.4203  0.2084  1.4545
 8022TIP3   OH224022   3.826   1.141   3.331 -0.1642  0.1392  0.1140
 8022TIP3    H124023   3.862   1.080   3.396 -0.3212 -0.1294 -0.0505
 8022TIP3    H224024   3.768   1.198   3.381 -0.9294 -0.5891  0.0799
 8023TIP3   OH224025   7.014   1.521   5.629 -0.4234  0.3165 -0.3577
 8023TIP3    H124026   7.087   1.547   5.686 -1.1264 -0.3916  0.9217
 8023TIP3    H224027   7.047   1.446   5.580 -0.3940 -0.2801  0.5378
 8024TIP3   OH224028   4.044   2.010   4.001  0.1872 -0.2047 -0.3016
 8024TIP3    H124029   4.091   1.973   3.927 -0.2294 -0.4161 -0.4652
 8024TIP3    H224030   3.953   1.985   3.987 -0.5241  2.6873 -1.6150
 8025TIP3   OH224031   4.873   1.387   1.570 -0.6775 -0.0464  0.7804
 8025TIP3    H124032   4.849   1.295   1.571 -1.2283  0.0847  0.3801
 8025TIP3    H224033   4.916   1.400   1.485  0.3291 -0.1497  1.2520
 8026TIP3   OH224034   1.268   5.753   2.402 -0.3984 -0.8867 -0.6975
 8026TIP3    H124035   1.350   5.704   2.407 -0.4632 -0.8676  0.7275
 8026TIP3    H224036   1.201   5.691   2.432 -0.5386 -0.0672  0.7155
 8027TIP3   OH224037   7.112   7.560   2.268 -0.1279  0.0076 -0.1545
 8027TIP3    H124038   7.054   7.631   2.239 -0.9079 -1.1541 -1.6209
 8027TIP3    H224039   7.083   7.540   2.357 -0.5231  0.8993 -0.0738
 8028TIP3   OH224040   5.354   5.929   5.555 -0.7877 -0.6606  0.2435
 8028TIP3    H124041   5.287   5.864   5.535 -0.7675 -0.5447 -0.2161
 8028TIP3    H224042   5.340   5.998   5.490  0.7433 -1.3213 -0.8614
 8029TIP3   OH224043   6.003   0.017   1.534  0.4804 -0.4185 -0.0894
 8029TIP3    H124044   5.992   0.086   1.599 -1.4399 -1.8604  1.2654
 8029TIP3    H224045   5.915   0.002   1.499  0.5161 -3.0668  0.7038
 8030TIP3   OH224046   7.115   6.573   2.460  0.9766 -0.3224  0.0539
 8030TIP3    H124047   7.196   6.616   2.489  1.1722 -1.7806  1.9124
 8030TIP3    H224048   7.106   6.498   2.519 -1.9699  0.0208  0.2142
 8031TIP3   OH224049   3.856   4.455   0.399  0.7387 -0.1239  0.4890
 8031TIP3    H124050   3.795   4.449   0.473  0.4970  2.7038  0.6218
 8031TIP3    H224051   3.940   4.427   0.435  0.1428 -1.1694  1.1209
 8032TIP3   OH224052   6.824   1.820   2.017 -0.1668 -0.5049  0.2059
 8032TIP3    H124053   6.857   1.737   2.050  0.0330 -0.5001  0.0232
 8032TIP3    H224054   6.737   1.829   2.056 -0.2528 -0.8732  0.0981
 8033TIP3   OH224055   2.001   2.014   3.432 -0.1479  0.4052  0.3135
 8033TIP3    H124056   1.982   2.057   3.349  2.1216  2.1373  0.6081
 8033TIP3    H224057   1.914   1.993   3.467 -1.2162  1.0972 -1.7181
 8034TIP3   OH224058   5.706   1.496   3.314 -0.6547 -0.3924 -0.0807
 8034TIP3    H124059   5.722   1.560   3.383 -1.6207 -1.2382  0.9639
 8034TIP3    H224060   5.641   1.436   3.351 -0.5663 -1.3632 -1.4154
 8035TIP3   OH224061   0.477   3.943   0.504  0.7304  0.6040  0.0922
 8035TIP3    H124062   0.521   3.886   0.566 -0.6535 -0.3926  0.2139
 8035TIP3    H224063   0.488   4.031   0.539 -0.9380 -0.0127  2.4148
 8036TIP3   OH224064   7.517   3.338   2.329  0.0866 -0.2979  0.0044
 8036TIP3    H124065   7.554   3.400   2.267  0.3716 -0.0115  0.4570
 8036TIP3    H224066   7.524   3.253   2.285  2.8380 -0.5313  0.6913
 8037TIP3   OH224067   2.358   2.140   5.325 -0.0273  0.4088 -0.6054
 8037TIP3    H124068   2.292   2.072   5.327 -1.3173  1.6371  0.3575
 8037TIP3    H224069   2.332   2.202   5.394  0.3324  2.5393 -2.2654
 8038TIP3   OH224070   2.928   1.251   1.628 -0.2063  0.3417  0.3067
 8038TIP3    H124071   2.854   1.271   1.684 -0.2975  0.9428 -0.0191
 8038TIP3    H224072   2.988   1.325   1.640  0.4152 -0.2177  0.6948
 8039TIP3   OH224073   8.100   4.323   2.153  0.0720  0.5625  0.2415
 8039TIP3    H124074   8.013   4.339   2.189  1.1487  0.4565  3.1617
 8039TIP3    H224075   8.100   4.230   2.130 -0.4552  0.4614  0.6393
 8040TIP3   OH224076   4.070   6.659   3.240  0.0850 -0.2920  0.0330
 8040TIP3    H124077   4.071   6.611   3.323 -0.4669  0.8108  0.7051
 8040TIP3    H224078   4.083   6.751   3.265  2.4553 -0.1820 -1.3199
 8041TIP3   OH224079   5.738   4.585   5.560 -0.0313  0.5399  0.3239
 8041TIP3    H124080   5.744   4.676   5.529 -0.1776  1.0430  1.6819
 8041TIP3    H224081   5.739   4.593   5.655 -1.2939 -0.7985  0.4768
 8042TIP3   OH224082   7.651   7.148   0.955  0.3325 -0.4187 -0.2732
 8042TIP3    H124083   7.693   7.063   0.944  0.1883 -0.2353 -3.0395
 8042TIP3    H224084   7.715   7.210   0.918  0.2790  0.6594  1.3649
 8043TIP3   OH224085   6.628   7.085   1.453  0.0613  0.6292 -0.4427
 8043TIP3    H124086   6.696   7.025   1.424 -0.0778 -0.5769  1.4933
 8043TIP3    H224087   6.546   7.041   1.430 -0.0711  1.4745 -1.6253
 8044TIP3   OH224088   7.709   6.648   1.625  0.1125  0.3216 -0.8434
 8044TIP3    H124089   7.763   6.675   1.700  0.1655  1.5988 -1.3206
 8044TIP3    H224090   7.619   6.669   1.651 -0.0113 -0.4216 -0.6440
 8045TIP3   OH224091   4.445   7.130   4.554 -0.1388  0.5482 -0.2720
 8045TIP3    H124092   4.403   7.215   4.551  0.2909  0.7859  0.3292
 8045TIP3    H224093   4.409   7.088   4.633 -0.2874  0.2032 -0.5191
 8046TIP3   OH224094   7.426   0.951   6.457  0.1333 -0.3783  0.2603
 8046TIP3    H124095   7.424   0.964   6.362  0.5486  0.2156  0.3312
 8046TIP3    H224096   7.383   1.028   6.493  0.4822 -0.3337  0.5807
 8047TIP3   OH224097   5.223   2.328   2.476 -0.4992 -0.4704 -0.1119
 8047TIP3    H124098   5.132   2.356   2.488 -0.3176  0.9149 -1.5456
 8047TIP3    H224099   5.222   2.279   2.393  0.0205 -0.6700 -0.0034
 8048TIP3   OH224100   5.464   6.637   5.634  0.3739 -0.1132 -0.0229
 8048TIP3    H124101   5.441   6.721   5.674  0.3413  0.1245 -0.5293
 8048TIP3    H224102   5.413   6.572   5.682 -0.4161  0.2752 -0.3275
 8049TIP3   OH224103   2.912   0.427   1.815 -0.5624 -0.1522  0.1541
 8049TIP3    H124104   2.981   0.484   1.850  0.4498 -1.2788  0.0354
 8049TIP3    H224105   2.907   0.450   1.722  0.1248 -0.5371  0.0198
 8050TIP3   OH224106   4.339   5.603   3.376 -0.5914  0.1309  0.2845
 8050TIP3    H124107   4.274   5.538   3.349 -0.3421  0.8850 -2.5023
 8050TIP3    H224108   4.306   5.685   3.339  0.2300  1.1699  1.8022
 8051TIP3   OH224109   0.994   0.780   5.149 -0.8090  0.2518  0.3539
 8051TIP3    H124110   1.015   0.859   5.199 -1.1792  0.2121  0.5766
 8051TIP3    H224111   0.953   0.722   5.212  0.9905 -0.8107  0.6135
 8052TIP3   OH224112   7.118   6.967   1.846 -0.7524 -0.8291  0.1635
 8052TIP3    H124113   7.191   6.992   1.790  0.8458 -1.4101  1.9057
 8052TIP3    H224114   7.063   7.045   1.850 -0.0728 -0.2772 -0.9129
 8053TIP3   OH224115   2.938   1.122   4.212 -0.0355  0.2042  0.3081
 8053TIP3    H124116   3.011   1.088   4.262 -0.0806  0.2091  0.3769
 8053TIP3    H224117   2.880   1.161   4.277 -0.4871 -0.5066  0.3468
 8054TIP3   OH224118   1.894   7.581   6.653  0.2625 -0.2833  0.0377
 8054TIP3    H124119   1.922   7.612   6.567  0.1650 -0.5917 -0.1083
 8054TIP3    H224120   1.925   7.648   6.714  2.0003 -0.9837 -0.0296
 8055TIP3   OH224121   0.189   4.297   4.241  0.4534 -0.0760  0.3748
 8055TIP3    H124122   0.242   4.365   4.282  1.2951 -1.0712  0.9809
 8055TIP3    H224123   0.253   4.233   4.209 -0.3127 -0.4831 -0.3783
 8056TIP3   OH224124   2.916   7.613   4.007 -0.1820  0.1208  0.5321
 8056TIP3    H124125   2.880   7.692   4.047 -0.1519 -1.1640  3.3542
 8056TIP3    H224126   2.993   7.643   3.959 -1.2971  2.0278 -0.1518
 8057TIP3   OH224127   6.854   0.548   6.687 -0.5304 -0.1599 -0.3304
 8057TIP3    H124128   6.788   0.574   6.751  0.0406 -0.7607  0.5321
 8057TIP3    H224129   6.841   0.453   6.677 -0.8680 -0.0162 -1.4169
 8058TIP3   OH224130   7.127   0.547   3.302  0.3420  0.0684  0.2095
 8058TIP3    H124131   7.058   0.566   3.239 -0.5867 -1.9355  0.5827
 8058TIP3    H224132   7.102   0.464   3.343  1.8040  0.4253  1.9896
 8059TIP3   OH224133   3.466   5.935   2.627 -0.0286  0.1066 -0.1738
 8059TIP3    H124134   3.489   5.862   2.570  0.3016 -1.0788  1.4004
 8059TIP3    H224135   3.379   5.963   2.598 -0.1721 -0.9421 -0.7923
 8060TIP3   OH224136   3.498   3.984   3.112 -0.0503 -0.7046  0.4220
 8060TIP3    H124137   3.583   4.015   3.080 -0.0658 -0.7935  0.2947
 8060TIP3    H224138   3.450   3.959   3.033  0.4488 -2.3236  0.6088
 8061TIP3   OH224139   1.485   3.597   0.479 -0.2096  0.3094  0.6301
 8061TIP3    H124140   1.516   3.603   0.389  3.4032 -2.7862  1.4469
 8061TIP3    H224141   1.545   3.653   0.529  0.6588 -1.3790  1.5687
 8062TIP3   OH224142   6.519   5.923   5.559 -0.1101  0.5736 -0.3652
 8062TIP3    H124143   6.442   5.878   5.523  0.4017 -1.1778  0.5821
 8062TIP3    H224144   6.546   5.868   5.632  0.4496  2.6008  1.0490
 8063TIP3   OH224145   2.644   5.784   1.067  0.1689 -0.3070  0.0866
 8063TIP3    H124146   2.686   5.787   0.981  0.0866  1.4844  0.0621
 8063TIP3    H224147   2.700   5.728   1.120  0.2244 -1.4323 -1.1229
 8064TIP3   OH224148   5.447   5.196   5.212 -0.0295 -0.1450  0.3078
 8064TIP3    H124149   5.497   5.177   5.132  0.5885  0.5028  0.5252
 8064TIP3    H224150   5.383   5.126   5.218 -0.4789  0.1240 -1.0822
 8065TIP3   OH224151   5.217   2.556   1.289  0.3130  0.4586  0.6583
 8065TIP3    H124152   5.288   2.505   1.249  0.5552  0.7264  0.7504
 8065TIP3    H224153   5.182   2.608   1.217  0.8599  1.0674  0.8246
 8066TIP3   OH224154   1.748   4.968   2.343 -0.7974 -0.1848  0.0668
 8066TIP3    H124155   1.674   4.917   2.378 -0.3974 -0.0055  1.2216
 8066TIP3    H224156   1.771   5.029   2.413 -0.0188  0.2697 -0.5602
 8067TIP3   OH224157   3.048   3.725   1.345 -0.0049 -0.4645 -0.4341
 8067TIP3    H124158   3.116   3.791   1.360  0.9674 -1.6841  0.8600
 8067TIP3    H224159   2.969   3.776   1.325  1.2125  1.0048 -1.7630
 8068TIP3   OH224160   2.586   5.907   0.273  0.5543 -0.5830  0.8178
 8068TIP3    H124161   2.585   5.859   0.190  0.7431  1.3444 -0.3716
 8068TIP3    H224162   2.672   5.948   0.277 -0.1795  1.0866  0.8563
 8069TIP3   OH224163   3.338   0.404   4.629  0.0725 -0.5715 -0.3631
 8069TIP3    H124164   3.257   0.355   4.615 -2.3810  2.8360  0.5082
 8069TIP3    H224165   3.349   0.405   4.724  2.5917 -2.8842 -0.5083
 8070TIP3   OH224166   1.981   0.784   5.346 -0.5214 -0.2065  0.0950
 8070TIP3    H124167   1.930   0.771   5.426 -0.8347 -0.8617 -0.2052
 8070TIP3    H224168   1.942   0.861   5.304  0.5505  1.0286  1.2714
 8071TIP3   OH224169   6.035   3.832   4.655 -0.1849  0.4610  0.1028
 8071TIP3    H124170   6.079   3.888   4.719  0.1863  0.8362 -0.4718
 8071TIP3    H224171   6.049   3.876   4.571  1.6622 -1.3800 -0.6378
 8072TIP3   OH224172   7.762   1.410   3.660 -0.2279  0.3568 -0.0431
 8072TIP3    H124173   7.705   1.356   3.714 -2.2904  0.6397 -1.8181
 8072TIP3    H224174   7.783   1.356   3.584 -0.1791  1.1207 -0.5933
 8073TIP3   OH224175   6.928   4.905   0.254 -0.0283  0.6465 -0.3750
 8073TIP3    H124176   6.944   4.816   0.283 -0.2193  0.3187 -1.2295
 8073TIP3    H224177   6.987   4.959   0.307 -1.3132  0.2438  1.5146
 8074TIP3   OH224178   0.824   7.656   6.342 -0.2578 -0.0497 -0.2537
 8074TIP3    H124179   0.796   7.674   6.253 -0.0473  1.8004  0.0139
 8074TIP3    H224180   0.745   7.663   6.394 -0.1658  0.1144 -0.1355
 8075TIP3   OH224181   1.203   6.424   2.565 -0.4842 -0.1851  0.2417
 8075TIP3    H124182   1.252   6.506   2.559 -2.4526  1.0487 -0.2517
 8075TIP3    H224183   1.225   6.377   2.485  1.8376 -0.8973  1.2324
 8076TIP3   OH224184   4.598   5.499   1.658  0.1187 -0.8114 -0.1363
 8076TIP3    H124185   4.568   5.572   1.604 -0.2139  0.5651  1.8136
 8076TIP3    H224186   4.689   5.486   1.631  0.8045  1.6187  0.7223
 8077TIP3   OH224187   6.739   5.623   5.077  0.2815  0.0036  0.4022
 8077TIP3    H124188   6.829   5.655   5.087  1.5046 -3.2486  0.9723
 8077TIP3    H224189   6.716   5.590   5.164 -1.1359 -0.0966  0.0098
 8078TIP3   OH224190   2.788   2.511   4.120  0.2960 -0.0140 -0.4913
 8078TIP3    H124191   2.726   2.531   4.050  0.0064  0.2864 -0.1510
 8078TIP3    H224192   2.861   2.571   4.105  0.5345 -0.4107 -0.9290
 8079TIP3   OH224193   0.868   1.229   5.698  0.3227 -0.5152  0.1378
 8079TIP3    H124194   0.904   1.156   5.648  3.2389  2.1698 -2.1256
 8079TIP3    H224195   0.944   1.269   5.741 -0.3792  3.1340 -1.6011
 8080TIP3   OH224196   6.651   6.793   2.634  0.3973 -0.5107  0.0889
 8080TIP3    H124197   6.642   6.889   2.636  1.5840 -0.3183 -1.6673
 8080TIP3    H224198   6.562   6.761   2.620 -0.4327  0.1407  3.1682
 8081TIP3   OH224199   6.564   3.187   3.069 -0.1838  0.1776 -0.2513
 8081TIP3    H124200   6.598   3.229   2.990  0.3159  0.6059  0.1756
 8081TIP3    H224201   6.489   3.136   3.039 -0.1517  0.5289 -0.9609
 8082TIP3   OH224202   1.619   3.378   1.253  0.6579  0.0561 -0.1291
 8082TIP3    H124203   1.691   3.430   1.291 -0.4788  0.8807  0.9845
 8082TIP3    H224204   1.556   3.443   1.223 -0.0691 -0.6645 -0.2003
 8083TIP3   OH224205   4.325   0.687   5.885  0.4331 -0.0008 -0.1979
 8083TIP3    H124206   4.303   0.697   5.977  0.8546  1.8561 -0.2700
 8083TIP3    H224207   4.409   0.732   5.875  0.8443 -0.9584 -1.3181
 8084TIP3   OH224208   6.125   4.055   2.569  0.0193  0.3051 -0.1620
 8084TIP3    H124209   6.127   4.107   2.489  0.8592  0.5311 -0.0001
 8084TIP3    H224210   6.055   4.096   2.621  1.0519  1.6764  0.2118
 8085TIP3   OH224211   7.178   7.555   5.011 -0.6083  0.1748  0.1506
 8085TIP3    H124212   7.246   7.493   4.985 -0.3105  0.4225  0.3219
 8085TIP3    H224213   7.163   7.535   5.104  0.0830  0.8946  0.4324
 8086TIP3   OH224214   4.079   1.881   4.941 -0.5421 -0.4786 -0.3102
 8086TIP3    H124215   4.007   1.937   4.912 -0.7111 -0.1021  0.8094
 8086TIP3    H224216   4.037   1.801   4.972 -0.3533 -0.9168 -1.1388
 8087TIP3   OH224217   2.379   5.335   3.532 -0.0829  0.7533 -0.6112
 8087TIP3    H124218   2.444   5.310   3.467 -1.2794 -0.3096 -1.4390
 8087TIP3    H224219   2.389   5.430   3.541  2.9198  0.4248  0.8022
 8088TIP3   OH224220   2.335   0.452   2.209  0.3590  0.0887 -1.1174
 8088TIP3    H124221   2.416   0.423   2.168  0.1581 -1.1894 -0.6605
 8088TIP3    H224222   2.361   0.479   2.297  0.3050 -0.3379 -0.9647
 8089TIP3   OH224223   0.750   3.709   5.845 -0.0834  0.0190  0.1070
 8089TIP3    H124224   0.756   3.792   5.892  0.0085 -0.2145  0.5129
 8089TIP3    H224225   0.664   3.711   5.804  0.0023  0.4059 -0.0632
 8090TIP3   OH224226   3.855   6.848   3.647 -0.9904  0.2772 -0.5353
 8090TIP3    H124227   3.824   6.878   3.733  0.3425 -1.5196  0.6561
 8090TIP3    H224228   3.830   6.755   3.645  1.8477 -0.5704 -0.6238
 8091TIP3   OH224229   0.722   1.459   5.604 -0.8607  0.3471 -0.1676
 8091TIP3    H124230   0.657   1.476   5.672 -1.4860 -0.2733 -0.6028
 8091TIP3    H224231   0.767   1.380   5.633 -0.3290  0.7411  0.1028
 8092TIP3   OH224232   7.104   0.382   2.960 -0.5368 -0.2235 -0.0034
 8092TIP3    H124233   7.180   0.351   3.010 -0.6045 -2.4976 -1.2022
 8092TIP3    H224234   7.143   0.423   2.882 -0.5246  0.6709  0.4517
 8093TIP3   OH224235   1.214   5.785   0.386 -0.6075  0.3324 -0.4745
 8093TIP3    H124236   1.173   5.762   0.302  0.9399  1.6183 -1.6367
 8093TIP3    H224237   1.246   5.702   0.421 -2.1260 -0.3630 -0.6504
 8094TIP3   OH224238   7.542   0.775   5.686 -0.1896  0.7816 -0.3578
 8094TIP3    H124239   7.609   0.823   5.637 -1.0429  4.1091  1.4835
 8094TIP3    H224240   7.476   0.753   5.620  0.2979  2.0861 -1.3301
 8095TIP3   OH224241   4.014   2.746   0.236  0.2162 -0.4894 -0.3463
 8095TIP3    H124242   4.077   2.818   0.248  1.0869 -1.0256 -1.5073
 8095TIP3    H224243   3.936   2.789   0.199  0.8086 -0.1510 -1.2440
 8096TIP3   OH224244   7.586   0.969   4.934  0.0053  0.5728 -0.1701
 8096TIP3    H124245   7.618   0.937   4.850 -1.4578 -0.1506 -0.4955
 8096TIP3    H224246   7.663   1.005   4.978  0.9683  0.0977 -1.4199
 8097TIP3   OH224247   4.149   6.911   3.919  0.0855 -0.4783  0.2035
 8097TIP3    H124248   4.194   6.995   3.927  1.4611 -0.9538 -1.6939
 8097TIP3    H224249   4.059   6.929   3.945  0.6872  1.2326  1.2168
 8098TIP3   OH224250   4.149   5.501   4.543  0.1751 -0.3093  0.4319
 8098TIP3    H124251   4.094   5.434   4.503  0.8529 -0.0917 -0.9219
 8098TIP3    H224252   4.091   5.545   4.606 -0.9564 -0.6457 -0.3345
 8099TIP3   OH224253   0.749   7.741   5.126 -0.2136 -0.6623  0.1148
 8099TIP3    H124254   0.791   7.804   5.185 -1.8344 -0.0703  0.7006
 8099TIP3    H224255   0.715   7.794   5.054 -0.0473 -1.1158 -0.3078
 8100TIP3   OH224256   0.088   1.392   0.298 -0.4072 -0.1274  0.6244
 8100TIP3    H124257   0.060   1.469   0.249  0.9141 -0.0033  0.0058
 8100TIP3    H224258   0.145   1.345   0.238  1.8150  0.3900  2.1874
 8101TIP3   OH224259   1.664   2.246   2.248 -0.3545 -0.4156  0.2180
 8101TIP3    H124260   1.599   2.272   2.313 -0.2746  1.0487 -0.2462
 8101TIP3    H224261   1.717   2.181   2.292  0.1773  1.0896  1.9378
 8102TIP3   OH224262   2.932   4.856   3.641  0.4518  0.2821 -0.3867
 8102TIP3    H124263   2.922   4.764   3.666  2.1946  0.5954  1.7150
 8102TIP3    H224264   2.871   4.904   3.697  1.3279  0.5982  0.3289
 8103TIP3   OH224265   1.630   0.376   6.699  1.1488 -0.5148  0.2728
 8103TIP3    H124266   1.587   0.375   6.785  1.0018 -2.5232  0.2133
 8103TIP3    H224267   1.677   0.293   6.695  1.5091 -0.2573 -1.4318
 8104TIP3   OH224268   3.550   2.926   1.356 -0.3822  0.2643  0.4153
 8104TIP3    H124269   3.595   2.984   1.294 -0.4505  0.4004  0.4927
 8104TIP3    H224270   3.479   2.979   1.392  0.4215  0.6079  1.5499
 8105TIP3   OH224271   5.890   2.190   3.854 -0.4160 -0.0892  0.4600
 8105TIP3    H124272   5.808   2.236   3.833 -1.0068 -1.3779 -0.1508
 8105TIP3    H224273   5.954   2.260   3.866 -0.9159  0.8741 -1.9565
 8106TIP3   OH224274   2.477   4.467   6.714 -0.2346  0.0799  0.5069
 8106TIP3    H124275   2.566   4.478   6.683 -0.5650 -1.9523 -1.3676
 8106TIP3    H224276   2.456   4.550   6.757  2.4888  0.6218  0.9313
 8107TIP3   OH224277   2.055   0.180   4.759 -0.0367 -0.4369  0.2502
 8107TIP3    H124278   2.149   0.181   4.741 -0.0377 -1.7351  0.0905
 8107TIP3    H224279   2.019   0.119   4.694 -0.7385 -1.3013  1.4193
 8108TIP3   OH224280   2.206   1.822   1.971  0.3400  0.2523  0.4927
 8108TIP3    H124281   2.220   1.836   2.065 -0.4503 -0.1342  0.6719
 8108TIP3    H224282   2.119   1.857   1.954  0.8380  1.1698 -0.2916
 8109TIP3   OH224283   2.507   6.534   2.686  0.5313  0.2674 -0.3841
 8109TIP3    H124284   2.509   6.592   2.610  1.5452  0.6039 -0.1229
 8109TIP3    H224285   2.415   6.528   2.709  0.3213  1.0589 -0.9706
 8110TIP3   OH224286   6.663   2.085   1.553 -0.0322 -0.4635 -0.6692
 8110TIP3    H124287   6.663   2.012   1.615  0.1471  0.9788  1.0881
 8110TIP3    H224288   6.578   2.128   1.565  0.4064  0.4278 -0.6754
 8111TIP3   OH224289   2.316   0.350   5.050  0.3128 -0.6621  0.0319
 8111TIP3    H124290   2.260   0.396   4.988  1.0732 -1.1668 -1.0683
 8111TIP3    H224291   2.403   0.354   5.011  0.6144 -1.9677  0.5030
 8112TIP3   OH224292   3.275   0.724   4.090  0.1655  0.0817 -0.2955
 8112TIP3    H124293   3.195   0.678   4.114  1.3004 -1.6395  0.3518
 8112TIP3    H224294   3.256   0.816   4.107 -1.7486 -0.2578 -0.4003
 8113TIP3   OH224295   4.154   1.259   3.469 -0.1298 -0.4931 -0.3019
 8113TIP3    H124296   4.231   1.281   3.521  0.9306 -0.1605 -1.9139
 8113TIP3    H224297   4.144   1.164   3.479  1.1542 -0.7153 -0.8869
 8114TIP3   OH224298   4.078   1.640   0.597  0.4533 -0.1781  0.1083
 8114TIP3    H124299   4.035   1.638   0.511  0.7725  0.7653 -0.0915
 8114TIP3    H224300   4.007   1.626   0.659  0.0255  0.2593 -0.2659
 8115TIP3   OH224301   3.210   4.085   5.673 -0.2339 -0.0025 -0.1311
 8115TIP3    H124302   3.145   4.081   5.744 -2.0419  1.5254 -1.6002
 8115TIP3    H224303   3.271   4.153   5.701  0.0243 -0.5447  0.6725
 8116TIP3   OH224304   1.488   3.632   5.111  0.5759  0.1520  0.8568
 8116TIP3    H124305   1.476   3.643   5.017  0.6916 -0.9451  0.6924
 8116TIP3    H224306   1.574   3.671   5.129  0.0067  1.5130  0.7512
 8117TIP3   OH224307   8.179   3.700   1.395  0.1251  0.6481  0.1746
 8117TIP3    H124308   8.184   3.691   1.300  1.3586 -3.7024  0.4179
 8117TIP3    H224309   8.262   3.741   1.420 -1.2740  4.2879 -0.6230
 8118TIP3   OH224310   4.600   7.473   3.911  0.5453  0.3352 -0.5533
 8118TIP3    H124311   4.686   7.515   3.916 -0.3327  2.2117 -0.2769
 8118TIP3    H224312   4.611   7.403   3.848  2.1309  0.9354 -0.9868
 8119TIP3   OH224313   6.303   5.168   0.139  0.1703  0.0111  0.3646
 8119TIP3    H124314   6.350   5.150   0.221  0.6521  0.7239  0.2507
 8119TIP3    H224315   6.360   5.228   0.091 -0.3371 -0.0133 -0.2825
 8120TIP3   OH224316   1.423   2.025   6.417  0.1975  0.0971  0.1665
 8120TIP3    H124317   1.344   1.977   6.392  0.0917  0.5065 -0.2972
 8120TIP3    H224318   1.486   2.007   6.348  0.5743 -0.3679  0.6240
 8121TIP3   OH224319   6.336   3.018   4.386  0.3903  0.1864  0.0784
 8121TIP3    H124320   6.289   3.097   4.360 -1.3205 -0.6763  0.4312
 8121TIP3    H224321   6.343   3.025   4.482  2.1742  0.9068 -0.0536
 8122TIP3   OH224322   1.008   3.351   4.506  0.1127 -0.6357 -0.0365
 8122TIP3    H124323   1.026   3.268   4.551  0.9932 -0.2610  0.3233
 8122TIP3    H224324   0.982   3.411   4.575  1.4124 -0.0714 -0.0018
 8123TIP3   OH224325   1.452   3.102   3.796  0.1424 -0.2155  0.2427
 8123TIP3    H124326   1.397   3.027   3.772  1.1355 -0.6767 -0.6715
 8123TIP3    H224327   1.405   3.178   3.762 -1.9689 -0.1231  3.0310
 8124TIP3   OH224328   0.355   5.088   1.111  0.1995 -0.0722  0.5300
 8124TIP3    H124329   0.444   5.053   1.104 -0.6622 -2.4918  0.6671
 8124TIP3    H224330   0.354   5.163   1.052  2.4624  0.3340  0.9190
 8125TIP3   OH224331   5.261   0.505   0.548 -0.1385 -0.1470  0.4641
 8125TIP3    H124332   5.192   0.438   0.539  0.5868 -1.0547  1.3705
 8125TIP3    H224333   5.214   0.588   0.550 -1.0228 -0.5403 -1.4229
 8126TIP3   OH224334   8.033   2.351   2.253 -0.0188 -0.2068 -0.1737
 8126TIP3    H124335   7.968   2.419   2.273  0.2927  0.0132  0.1176
 8126TIP3    H224336   8.107   2.399   2.216  0.1729 -0.3987 -0.0389
 8127TIP3   OH224337   2.288   5.769   1.656 -0.2090  0.1960  0.2532
 8127TIP3    H124338   2.301   5.677   1.679  1.5739  0.7051  1.4833
 8127TIP3    H224339   2.197   5.774   1.629 -1.1825 -1.4292  2.8138
 8128TIP3   OH224340   7.669   2.525   2.180  0.6915 -0.4807 -0.2568
 8128TIP3    H124341   7.721   2.494   2.106  0.8596  0.8939 -0.7397
 8128TIP3    H224342   7.730   2.525   2.254  0.3985 -2.3120  0.0264
 8129TIP3   OH224343   5.442   6.603   1.251  0.3740 -0.1779 -0.0806
 8129TIP3    H124344   5.454   6.595   1.157  2.7636 -1.2779  0.2418
 8129TIP3    H224345   5.389   6.527   1.275 -3.2000  1.8435 -0.8451
 8130TIP3   OH224346   5.656   3.832   5.429 -0.0716 -0.0805 -0.4935
 8130TIP3    H124347   5.599   3.806   5.501 -0.0763  1.4352  0.0968
 8130TIP3    H224348   5.633   3.773   5.357 -0.7399 -0.9959  0.4448
 8131TIP3   OH224349   7.550   2.839   0.997 -0.1926  0.2554 -0.4521
 8131TIP3    H124350   7.478   2.812   1.054  1.3225 -2.4474  0.3562
 8131TIP3    H224351   7.618   2.868   1.058 -0.0424  1.3337 -1.1244
 8132TIP3   OH224352   3.988   4.645   6.253  0.0749 -0.4287 -0.4087
 8132TIP3    H124353   4.060   4.696   6.288 -0.0197 -0.3458 -0.3351
 8132TIP3    H224354   3.990   4.563   6.302 -0.0840 -0.2960 -0.1793
 8133TIP3   OH224355   7.934   5.346   3.178 -0.4137 -0.0074  0.0072
 8133TIP3    H124356   7.996   5.386   3.117  0.7429  0.1059  1.1890
 8133TIP3    H224357   7.881   5.420   3.209 -1.1706 -0.1066 -1.0278
 8134TIP3   OH224358   1.072   1.494   5.707 -0.6841  0.1127  0.3664
 8134TIP3    H124359   1.107   1.405   5.707  1.5210  0.8672 -1.8294
 8134TIP3    H224360   1.051   1.511   5.615  1.0251  2.5543  0.3311
 8135TIP3   OH224361   7.004   4.179   3.989  0.2454 -0.7657 -0.2655
 8135TIP3    H124362   7.049   4.123   4.053  0.5142 -0.8953 -0.5604
 8135TIP3    H224363   7.071   4.242   3.961 -0.4206  0.5722  1.0456
 8136TIP3   OH224364   5.518   4.685   3.120  0.0977  0.4783 -0.8498
 8136TIP3    H124365   5.542   4.593   3.134 -0.4397  0.4488 -0.0129
 8136TIP3    H224366   5.508   4.693   3.025 -1.1701 -0.6849 -0.8485
 8137TIP3   OH224367   4.323   1.622   3.775 -0.2299 -0.0783 -0.1729
 8137TIP3    H124368   4.395   1.563   3.754 -1.9194 -2.2962 -0.0433
 8137TIP3    H224369   4.367   1.704   3.800  2.1660 -0.8090 -1.6109
 8138TIP3   OH224370   0.190   5.862   2.586 -0.8001  0.2224  0.2310
 8138TIP3    H124371   0.244   5.832   2.512 -2.3260  0.0805 -0.8839
 8138TIP3    H224372   0.148   5.782   2.618 -2.2387  0.6403 -0.5378
 8139TIP3   OH224373   1.163   3.575   1.755  0.2842  0.3325 -0.7286
 8139TIP3    H124374   1.178   3.563   1.661  0.0565 -2.2770 -0.4827
 8139TIP3    H224375   1.240   3.538   1.796 -0.3903 -0.0934  0.1710
 8140TIP3   OH224376   1.549   1.793   3.840 -0.0479 -0.0069 -0.0824
 8140TIP3    H124377   1.454   1.786   3.839 -0.0291 -0.4722  0.8597
 8140TIP3    H224378   1.566   1.887   3.845 -0.4336  0.1409 -1.2011
 8141TIP3   OH224379   1.978   0.555   5.013 -0.3012 -0.2600  0.4573
 8141TIP3    H124380   1.940   0.641   4.995  0.6781 -0.0292 -0.5714
 8141TIP3    H224381   2.051   0.547   4.952 -0.1779 -1.6987  0.7522
 8142TIP3   OH224382   4.549   4.010   4.376  0.5157  0.2236 -0.0873
 8142TIP3    H124383   4.563   4.051   4.461 -0.2615 -1.4126  0.8798
 8142TIP3    H224384   4.637   4.004   4.337  1.3390 -1.5595  1.8587
 8143TIP3   OH224385   7.044   5.279   3.158 -0.0387 -0.2538 -0.2031
 8143TIP3    H124386   7.029   5.193   3.119 -1.7467  0.6237 -1.6451
 8143TIP3    H224387   6.980   5.283   3.230 -0.6840  0.1647 -0.7850
 8144TIP3   OH224388   2.424   3.717   3.413  0.1000  0.2932 -0.7830
 8144TIP3    H124389   2.476   3.642   3.382 -1.5361 -1.2411  0.0575
 8144TIP3    H224390   2.449   3.727   3.505 -1.3435 -0.7454 -0.2433
 8145TIP3   OH224391   5.978   6.991   6.386  0.0360 -0.1244 -0.0654
 8145TIP3    H124392   5.893   6.968   6.421  0.4395 -2.5173 -0.5181
 8145TIP3    H224393   6.021   6.908   6.368  2.4065  0.9997 -0.0495
 8146TIP3   OH224394   5.333   6.279   4.869  0.0943  0.1501  0.1990
 8146TIP3    H124395   5.395   6.214   4.836  0.6916  0.9492 -0.2877
 8146TIP3    H224396   5.250   6.258   4.825  0.2619 -0.3266  0.1070
 8147TIP3   OH224397   6.717   1.370   2.535  0.3834 -0.1183 -0.0810
 8147TIP3    H124398   6.660   1.436   2.574  0.0392  0.4567 -1.5082
 8147TIP3    H224399   6.657   1.300   2.507  0.7437 -1.0727  1.4288
 8148TIP3   OH224400   8.060   6.926   0.616 -0.2175  0.3702 -0.6704
 8148TIP3    H124401   8.051   6.831   0.608  1.1535  0.2103 -0.6973
 8148TIP3    H224402   7.997   6.962   0.554  0.5764 -0.5753 -2.0787
 8149TIP3   OH224403   1.078   7.581   0.495 -0.1070  0.1422  0.0386
 8149TIP3    H124404   1.092   7.498   0.542 -0.0151  0.1303 -0.0101
 8149TIP3    H224405   1.011   7.626   0.547 -1.5593 -0.7785 -0.9693
 8150TIP3   OH224406   7.419   4.195   6.067 -0.0034  0.1258  0.3185
 8150TIP3    H124407   7.454   4.167   6.151 -1.3663  0.1482  0.9316
 8150TIP3    H224408   7.475   4.153   6.001 -0.9019 -2.6462  1.2078
 8151TIP3   OH224409   2.379   3.129   2.754 -0.3034 -0.4397  0.0314
 8151TIP3    H124410   2.362   3.223   2.743  1.4259  0.2572  2.4554
 8151TIP3    H224411   2.312   3.099   2.816 -0.3220 -0.6043 -0.0672
 8152TIP3   OH224412   1.646   6.821   1.385 -0.0960 -0.2722 -0.5351
 8152TIP3    H124413   1.654   6.733   1.423 -0.2874 -0.4882 -0.9793
 8152TIP3    H224414   1.568   6.858   1.427 -0.1064 -0.3745 -0.4626
 8153TIP3   OH224415   5.148   0.165   3.917  0.0776  0.1562 -0.1895
 8153TIP3    H124416   5.205   0.242   3.922  0.4861 -0.1605  0.1353
 8153TIP3    H224417   5.114   0.155   4.006  0.0989 -0.0935 -0.2092
 8154TIP3   OH224418   4.526   4.211   3.347  0.1659 -0.6865 -0.5232
 8154TIP3    H124419   4.545   4.149   3.417  1.9557 -1.3578 -1.5291
 8154TIP3    H224420   4.530   4.297   3.388 -1.1898 -1.1414  0.6519
 8155TIP3   OH224421   5.069   5.778   3.226 -0.3886 -0.5595 -0.0993
 8155TIP3    H124422   5.038   5.835   3.297 -1.8788 -1.2075 -0.1835
 8155TIP3    H224423   4.989   5.742   3.187  0.4706 -2.9203  0.1168
 8156TIP3   OH224424   0.926   5.859   0.967 -0.4330 -0.3538 -0.3343
 8156TIP3    H124425   0.898   5.821   1.050  0.8764  0.0161  0.2853
 8156TIP3    H224426   0.930   5.953   0.982  0.0247 -0.3002 -0.7497
 8157TIP3   OH224427   6.542   1.361   0.456  0.3513 -0.4874 -0.0792
 8157TIP3    H124428   6.587   1.362   0.372  0.4266  0.4823 -0.0384
 8157TIP3    H224429   6.486   1.438   0.455 -1.6157 -1.8658 -0.2677
 8158TIP3   OH224430   4.216   3.421   0.026 -0.5822  0.4154 -0.0254
 8158TIP3    H124431   4.139   3.402  -0.028 -0.4403  0.3562 -0.2041
 8158TIP3    H224432   4.246   3.335   0.056 -1.5299  0.5233  1.3549
 8159TIP3   OH224433   2.256   5.810   3.994  0.3566  0.2249  0.9439
 8159TIP3    H124434   2.241   5.778   4.083  0.2357 -0.0569  0.8233
 8159TIP3    H224435   2.219   5.742   3.938  3.8486 -1.5161  0.5313
 8160TIP3   OH224436   6.533   5.994   0.771  0.1108 -0.2303 -0.3908
 8160TIP3    H124437   6.543   6.086   0.747 -1.2578  1.1386  3.4902
 8160TIP3    H224438   6.443   5.972   0.747  0.7909 -1.0141 -2.3878
 8161TIP3   OH224439   1.036   3.484   2.854 -0.0625 -0.2333  0.2501
 8161TIP3    H124440   1.089   3.536   2.794  0.0869 -1.5950 -0.8479
 8161TIP3    H224441   1.099   3.455   2.921 -0.0150  0.4514  0.5059
 8162TIP3   OH224442   5.565   4.754   0.089 -0.2527 -0.1415  0.1245
 8162TIP3    H124443   5.522   4.757   0.003  1.0913  0.7418 -0.5429
 8162TIP3    H224444   5.657   4.735   0.070  0.3582  1.5067  1.2403
 8163TIP3   OH224445   3.864   2.309   6.287  0.0810  0.5178  0.2689
 8163TIP3    H124446   3.932   2.320   6.354  0.1525  2.6788 -0.0830
 8163TIP3    H224447   3.786   2.284   6.336  0.4306  0.8794  1.0354
 8164TIP3   OH224448   3.617   1.539   3.367 -0.9785 -0.1701 -0.2318
 8164TIP3    H124449   3.633   1.485   3.290 -1.1057  1.1524 -1.2279
 8164TIP3    H224450   3.675   1.614   3.356  0.2797 -0.7771  1.8684
 8165TIP3   OH224451   3.595   0.174   2.961 -0.3200  0.2714  0.3939
 8165TIP3    H124452   3.591   0.103   3.024  1.0689 -0.5865 -0.4416
 8165TIP3    H224453   3.523   0.156   2.900 -0.6871  0.2344  0.8324
 8166TIP3   OH224454   0.549   4.869   5.738 -0.2610  0.6011 -0.7934
 8166TIP3    H124455   0.469   4.824   5.708 -0.3823  0.8492 -0.8416
 8166TIP3    H224456   0.539   4.959   5.707  0.4646  0.4139 -1.5947
 8167TIP3   OH224457   5.128   3.608   4.852  0.1430 -0.4048 -0.0571
 8167TIP3    H124458   5.192   3.680   4.848  1.2393 -1.3224  0.3969
 8167TIP3    H224459   5.180   3.530   4.835 -0.9532 -1.1430 -0.0745
 8168TIP3   OH224460   4.793   0.657   2.441  0.7313 -0.3700  0.0231
 8168TIP3    H124461   4.710   0.611   2.456  1.0519 -0.4502  1.7920
 8168TIP3    H224462   4.847   0.595   2.392  0.2692 -0.8964  0.1738
 8169TIP3   OH224463   4.519   5.749   3.007 -0.0657  0.4097  0.3012
 8169TIP3    H124464   4.582   5.702   3.061 -0.8377  0.4118  1.2290
 8169TIP3    H224465   4.563   5.830   2.982  1.1275 -0.5806 -0.9652
 8170TIP3   OH224466   3.202   0.997   2.363 -0.5047 -0.4382  0.3119
 8170TIP3    H124467   3.226   0.910   2.329  0.9765 -0.4826  1.3736
 8170TIP3    H224468   3.116   0.984   2.403 -0.6501 -1.2183 -0.2211
 8171TIP3   OH224469   6.271   3.927   1.140  0.0524  0.2343  0.0277
 8171TIP3    H124470   6.204   3.995   1.136 -0.1574  0.0355  0.1177
 8171TIP3    H224471   6.298   3.914   1.049 -0.6895 -0.3247 -0.1215
 8172TIP3   OH224472   0.722   4.378   5.729  0.1365  0.4735 -0.6149
 8172TIP3    H124473   0.727   4.304   5.789 -1.3808  0.5912 -0.2977
 8172TIP3    H224474   0.699   4.338   5.644 -1.3107  0.5854 -0.3124
 8173TIP3   OH224475   7.599   5.710   5.580 -0.1614  0.4573  0.1050
 8173TIP3    H124476   7.591   5.654   5.503  2.2851  0.5448 -0.2707
 8173TIP3    H224477   7.618   5.797   5.546 -0.6645  0.8560  0.7941
 8174TIP3   OH224478   8.029   0.118   3.669  0.5000 -0.6873  0.2713
 8174TIP3    H124479   8.088   0.045   3.688  0.5989 -0.6843 -0.0227
 8174TIP3    H224480   8.058   0.150   3.584  1.8834  1.0936  1.3538
 8175TIP3   OH224481   8.171   7.028   5.186 -0.7812  0.3164 -0.0207
 8175TIP3    H124482   8.184   6.938   5.154 -1.2797  0.0113  0.6034
 8175TIP3    H224483   8.190   7.023   5.280 -3.0508  0.3131  0.5141
 8176TIP3   OH224484   7.612   2.405   3.775 -0.0903 -0.1331 -0.6632
 8176TIP3    H124485   7.603   2.350   3.852  2.2079  0.5674  0.1854
 8176TIP3    H224486   7.629   2.493   3.810  1.2967  0.1477 -1.9076
 8177TIP3   OH224487   6.158   5.685   2.866  0.2940  0.0646 -0.5034
 8177TIP3    H124488   6.077   5.635   2.856  0.9977 -1.1516 -0.2731
 8177TIP3    H224489   6.209   5.665   2.788  1.5975 -1.5440  0.6947
 8178TIP3   OH224490   0.687   1.896   1.779 -0.5137  0.3151  0.0155
 8178TIP3    H124491   0.599   1.932   1.791 -0.8912 -0.3553 -0.6248
 8178TIP3    H224492   0.735   1.963   1.731 -0.5276  0.8756  0.7710
 8179TIP3   OH224493   4.028   1.388   6.706  0.2016 -0.8644 -0.2117
 8179TIP3    H124494   4.095   1.425   6.647  0.4211  0.2378  0.7021
 8179TIP3    H224495   3.972   1.336   6.648 -0.3799  1.2286 -1.6649
 8180TIP3   OH224496   5.442   0.591   1.051 -0.3571 -0.6961 -0.5023
 8180TIP3    H124497   5.447   0.497   1.064 -1.0194 -0.7261 -0.4234
 8180TIP3    H224498   5.431   0.602   0.957 -1.1603 -0.7412 -0.4164
 8181TIP3   OH224499   5.303   1.248   6.541 -0.3708  0.3174  0.4531
 8181TIP3    H124500   5.335   1.233   6.630 -0.1609 -0.9912  0.1798
 8181TIP3    H224501   5.208   1.256   6.550 -0.2941  0.8037  0.8607
 8182TIP3   OH224502   0.547   4.588   4.900 -0.2225 -0.2724  0.4055
 8182TIP3    H124503   0.452   4.581   4.894 -0.1732 -1.6279  0.9228
 8182TIP3    H224504   0.569   4.542   4.981  0.9790 -1.1511 -0.3912
 8183TIP3   OH224505   3.356   1.006   1.923  0.5020  0.1612 -0.3659
 8183TIP3    H124506   3.358   1.102   1.914  2.1294  0.1577 -0.4075
 8183TIP3    H224507   3.270   0.987   1.960  0.7167  1.7703  1.0943
 8184TIP3   OH224508   3.349   7.727   0.203  0.4870 -0.0846  0.5130
 8184TIP3    H124509   3.381   7.752   0.290  0.9290 -2.1057  0.9696
 8184TIP3    H224510   3.269   7.678   0.220  1.4975 -2.0190 -0.0496
 8185TIP3   OH224511   1.020   5.471   6.394  0.1426 -0.2946  0.1466
 8185TIP3    H124512   1.047   5.380   6.401  1.3483 -0.2410 -2.3816
 8185TIP3    H224513   0.925   5.467   6.386 -0.2021 -0.9791  3.4845
 8186TIP3   OH224514   5.101   4.156   2.111 -0.5236 -0.1436  0.4089
 8186TIP3    H124515   5.083   4.102   2.187 -1.1827 -0.5478 -0.0236
 8186TIP3    H224516   5.146   4.234   2.146 -0.7161 -0.3748  1.1805
 8187TIP3   OH224517   0.452   6.399   0.653 -0.0959 -0.8578  0.1125
 8187TIP3    H124518   0.458   6.306   0.630  0.5214 -1.0999  1.2225
 8187TIP3    H224519   0.416   6.400   0.741  2.7869 -0.2004  1.3771
 8188TIP3   OH224520   7.376   5.500   4.103  0.0433 -0.5353  0.2693
 8188TIP3    H124521   7.439   5.504   4.032 -0.5318  0.2980 -0.2099
 8188TIP3    H224522   7.407   5.563   4.167 -0.0176 -0.5058  0.2701
 8189TIP3   OH224523   7.169   5.862   4.359  0.0571 -0.3240 -0.0857
 8189TIP3    H124524   7.131   5.898   4.279 -0.0013 -0.5639 -0.1676
 8189TIP3    H224525   7.118   5.902   4.430 -0.9391 -1.3125 -0.2267
 8190TIP3   OH224526   1.159   3.849   3.517 -0.2417 -0.5413 -0.5720
 8190TIP3    H124527   1.177   3.924   3.460  1.5416  1.9462  2.8899
 8190TIP3    H224528   1.108   3.885   3.589 -2.2223 -3.4779 -0.3051
 8191TIP3   OH224529   7.258   1.668   5.968  0.3523  0.1377  0.0886
 8191TIP3    H124530   7.273   1.751   5.923 -2.1377  1.0379  0.7419
 8191TIP3    H224531   7.264   1.690   6.061 -0.6062 -0.3140  0.2746
 8192TIP3   OH224532   2.104   6.716   1.788 -0.2776  0.0577  0.2245
 8192TIP3    H124533   2.164   6.777   1.747  0.1283 -0.9714 -0.7628
 8192TIP3    H224534   2.127   6.719   1.881 -0.1836  1.2815  0.1783
 8193TIP3   OH224535   0.252   1.820   6.705  0.1386  0.1742 -0.1766
 8193TIP3    H124536   0.167   1.780   6.726  0.5160 -0.9570 -0.7086
 8193TIP3    H224537   0.254   1.822   6.609  0.3868  0.9346 -0.1607
 8194TIP3   OH224538   1.217   0.165   0.352  0.1455  0.4831 -0.4279
 8194TIP3    H124539   1.221   0.133   0.443 -0.8034  1.4394 -0.0207
 8194TIP3    H224540   1.308   0.171   0.325  0.4536  0.3180  0.5143
 8195TIP3   OH224541   6.191   2.360   3.585 -0.9382  0.1500  0.6252
 8195TIP3    H124542   6.131   2.286   3.600 -1.3013  0.5861  1.3847
 8195TIP3    H224543   6.273   2.319   3.559 -0.7174 -0.6055  2.4243
 8196TIP3   OH224544   3.058   7.701   3.176 -0.0162 -0.2450 -0.0986
 8196TIP3    H124545   2.989   7.645   3.211  1.1664 -0.6698  1.6340
 8196TIP3    H224546   3.076   7.765   3.245  0.4024  0.7145 -1.0573
 8197TIP3   OH224547   4.980   6.755   5.137  0.4511 -0.7107  0.4550
 8197TIP3    H124548   5.053   6.716   5.184  0.0825 -3.5330 -1.1206
 8197TIP3    H224549   4.905   6.743   5.195  0.8601  0.5367  1.2866
 8198TIP3   OH224550   0.696   5.485   3.542  0.3885  0.0263 -0.1532
 8198TIP3    H124551   0.733   5.398   3.561 -1.6939 -0.9409 -0.1909
 8198TIP3    H224552   0.707   5.496   3.448  0.4920 -0.2812 -0.1789
 8199TIP3   OH224553   0.627   3.293   4.514 -0.9856  0.1722 -0.1749
 8199TIP3    H124554   0.656   3.354   4.582 -0.7758 -0.2690  0.1362
 8199TIP3    H224555   0.537   3.270   4.538 -0.7940 -0.2490  0.1468
 8200TIP3   OH224556   4.574   6.952   0.752  0.5678  0.1431 -0.1316
 8200TIP3    H124557   4.584   6.858   0.740  0.9207 -0.1989  2.3053
 8200TIP3    H224558   4.663   6.986   0.751  0.4401  0.4809 -1.0238
 8201TIP3   OH224559   6.992   7.641   5.614 -0.3678  0.1237  0.2009
 8201TIP3    H124560   6.938   7.720   5.610 -0.1382  0.2293 -1.1162
 8201TIP3    H224561   7.076   7.672   5.650 -0.5438  0.3160  0.4513
 8202TIP3   OH224562   2.914   6.194   3.279  0.7848 -0.1835  0.1643
 8202TIP3    H124563   2.956   6.133   3.341  1.4343 -1.8535 -1.8091
 8202TIP3    H224564   2.974   6.198   3.205  0.6431  2.7821  0.0911
 8203TIP3   OH224565   2.277   3.601   4.485  0.1428  0.0172 -0.3378
 8203TIP3    H124566   2.304   3.652   4.561 -0.1858  0.5461 -0.5621
 8203TIP3    H224567   2.263   3.513   4.518 -1.5932  0.5954  0.5762
 8204TIP3   OH224568   5.962   3.703   2.023  0.1716  0.0952  0.3078
 8204TIP3    H124569   5.938   3.774   1.964 -0.8370 -0.1386  0.4156
 8204TIP3    H224570   5.964   3.625   1.966  2.6526  0.3801 -0.1024
 8205TIP3   OH224571   1.884   2.219   6.051  0.1078  0.2569 -0.0596
 8205TIP3    H124572   1.874   2.231   6.146  2.5889 -0.5980  0.3616
 8205TIP3    H224573   1.978   2.221   6.036  0.0591 -3.6457 -1.9258
 8206TIP3   OH224574   6.118   0.119   2.173 -0.0750  0.3483  0.0780
 8206TIP3    H124575   6.060   0.188   2.206  0.8876  0.7151  1.0766
 8206TIP3    H224576   6.059   0.056   2.132 -1.0445  1.4003 -0.1974
 8207TIP3   OH224577   5.546   7.666   5.457  0.3056  0.2232 -0.1748
 8207TIP3    H124578   5.564   7.581   5.496 -0.5305  0.2475  0.2675
 8207TIP3    H224579   5.633   7.700   5.433  0.8394  0.1219  1.4851
 8208TIP3   OH224580   2.769   3.677   3.664 -0.4084  0.1207 -0.4212
 8208TIP3    H124581   2.839   3.628   3.707 -1.3438  0.5349  1.6939
 8208TIP3    H224582   2.811   3.717   3.588  1.3229 -0.6893  0.0533
 8209TIP3   OH224583   1.494   5.020   3.052 -0.1984  0.3407  0.1223
 8209TIP3    H124584   1.537   5.103   3.030  0.9872 -0.5386 -1.0509
 8209TIP3    H224585   1.482   5.023   3.147 -0.6709  2.0630  0.0400
 8210TIP3   OH224586   3.422   3.062   4.899 -0.0738  0.1188 -0.0164
 8210TIP3    H124587   3.507   3.105   4.913  0.5967 -0.7948 -1.1284
 8210TIP3    H224588   3.437   2.971   4.928 -0.3891 -0.2767 -1.0536
 8211TIP3   OH224589   6.410   3.912   2.303 -0.5130  0.1324  0.5443
 8211TIP3    H124590   6.500   3.929   2.330 -0.7862  0.5274  1.2452
 8211TIP3    H224591   6.363   3.896   2.385 -1.2697  0.8865  0.2735
 8212TIP3   OH224592   6.766   7.187   4.776 -0.0267 -0.5531  0.0449
 8212TIP3    H124593   6.692   7.243   4.798  1.6342  1.0921  1.8410
 8212TIP3    H224594   6.733   7.098   4.787 -1.7884  0.1143  0.5065
 8213TIP3   OH224595   3.960   1.637   4.636 -0.2559  0.9762  0.1177
 8213TIP3    H124596   3.876   1.672   4.607  0.2507  2.5492  0.4487
 8213TIP3    H224597   3.976   1.562   4.579 -2.3937 -0.0670  0.7698
 8214TIP3   OH224598   1.034   3.938   3.760 -0.1080 -0.1702  0.1737
 8214TIP3    H124599   1.096   3.897   3.821 -0.4411  1.6415  1.8256
 8214TIP3    H224600   0.948   3.918   3.797 -0.4704 -1.2877 -1.2071
 8215TIP3   OH224601   0.367   6.092   1.730  0.0564 -0.4824  0.2585
 8215TIP3    H124602   0.419   6.155   1.681 -0.5358  1.7831  2.3752
 8215TIP3    H224603   0.282   6.092   1.687  0.6701 -1.4873 -1.0200
 8216TIP3   OH224604   5.117   3.717   1.166 -0.3876 -0.4249 -0.4320
 8216TIP3    H124605   5.197   3.711   1.218  0.2542  1.2581 -1.1491
 8216TIP3    H224606   5.146   3.747   1.080 -1.9039  2.2336 -0.1494
 8217TIP3   OH224607   0.917   2.916   1.304 -0.0281 -0.7210 -0.0561
 8217TIP3    H124608   0.901   2.997   1.352  3.1830 -1.4245  2.5521
 8217TIP3    H224609   0.831   2.875   1.297 -1.3752  1.7908  0.6132
 8218TIP3   OH224610   5.385   5.974   4.358 -0.2891  0.2348  0.1927
 8218TIP3    H124611   5.325   5.957   4.430  1.4926 -0.8625  1.4836
 8218TIP3    H224612   5.390   5.891   4.310  0.8137  0.0523  0.5970
 8219TIP3   OH224613   4.186   2.887   2.453  0.0551 -0.1042 -0.8185
 8219TIP3    H124614   4.213   2.813   2.400  0.1931 -0.0053 -0.8870
 8219TIP3    H224615   4.246   2.958   2.428  0.0838 -0.0414 -0.5759
 8220TIP3   OH224616   2.960   4.495   1.075 -0.1982 -0.1084 -0.0837
 8220TIP3    H124617   3.015   4.552   1.022 -1.4717  1.7153  0.4245
 8220TIP3    H224618   3.011   4.478   1.154 -0.1657  1.2470  0.2172
 8221TIP3   OH224619   1.630   4.299   3.594  0.2246 -0.0811  0.0465
 8221TIP3    H124620   1.596   4.296   3.683  0.2165  1.2105  0.1067
 8221TIP3    H224621   1.577   4.236   3.545  0.0367 -0.5782  0.8845
 8222TIP3   OH224622   0.235   7.111   5.942 -0.2859 -0.3651 -0.4165
 8222TIP3    H124623   0.315   7.109   5.888 -0.6608 -0.9354 -0.9722
 8222TIP3    H224624   0.179   7.175   5.898  0.0122  0.3288  0.2002
 8223TIP3   OH224625   1.434   1.265   2.307 -0.4860  0.2781  0.2770
 8223TIP3    H124626   1.364   1.330   2.317 -1.0036 -0.5147  2.3682
 8223TIP3    H224627   1.387   1.182   2.294  0.0739 -0.1152  0.7141
 8224TIP3   OH224628   6.766   7.635   0.525  0.2037  0.0141  0.2489
 8224TIP3    H124629   6.784   7.552   0.481  0.3015 -1.2771  2.6045
 8224TIP3    H224630   6.691   7.618   0.581  0.4340  1.4040  1.0417
 8225TIP3   OH224631   1.467   5.805   1.624 -0.4729 -0.3973 -0.1523
 8225TIP3    H124632   1.444   5.750   1.549 -0.7218 -0.6702  0.1191
 8225TIP3    H224633   1.557   5.834   1.606 -1.1856  1.1436 -1.5147
 8226TIP3   OH224634   1.177   1.813   5.922  0.2818 -0.0015 -0.2644
 8226TIP3    H124635   1.209   1.752   5.855  0.2700  0.6824 -0.9011
 8226TIP3    H224636   1.164   1.895   5.876 -1.3310  0.0511  0.2080
 8227TIP3   OH224637   5.626   6.896   2.989 -0.3124  0.0950 -0.6940
 8227TIP3    H124638   5.647   6.989   2.998  0.2015 -0.1979  1.9866
 8227TIP3    H224639   5.531   6.892   2.998 -0.3114  0.3434 -0.5650
 8228TIP3   OH224640   0.321   6.992   2.246 -0.3017 -0.1799  0.6071
 8228TIP3    H124641   0.388   6.977   2.313  1.5794  2.0981 -0.6051
 8228TIP3    H224642   0.343   6.931   2.176  0.2005  0.1853  0.4405
 8229TIP3   OH224643   4.167   2.373   3.053 -0.3823  0.2650  0.2907
 8229TIP3    H124644   4.119   2.456   3.060 -0.6963  0.3935 -2.3074
 8229TIP3    H224645   4.259   2.398   3.045 -0.4427  0.3751 -0.1161
 8230TIP3   OH224646   5.249   4.972   0.705  0.1090 -0.1597  0.0587
 8230TIP3    H124647   5.198   4.903   0.747 -0.9147  0.9631  0.7222
 8230TIP3    H224648   5.308   5.003   0.773  1.3533 -1.0899 -0.5543
 8231TIP3   OH224649   4.501   5.522   0.589 -0.2209  0.0584  0.2221
 8231TIP3    H124650   4.501   5.497   0.497  1.1969 -3.2877  0.9583
 8231TIP3    H224651   4.594   5.538   0.609 -0.5488  1.0620  1.0296
 8232TIP3   OH224652   5.616   5.534   1.196 -0.3196  0.1788  0.4581
 8232TIP3    H124653   5.580   5.553   1.109  0.5322  0.3120  0.1240
 8232TIP3    H224654   5.554   5.574   1.257 -0.5629  0.6870 -0.1167
 8233TIP3   OH224655   5.820   2.648   1.528  0.1824  0.6810  0.1477
 8233TIP3    H124656   5.781   2.578   1.581  2.6391 -1.2600 -0.4362
 8233TIP3    H224657   5.902   2.669   1.572  1.0419  0.8556 -1.4809
 8234TIP3   OH224658   6.888   7.500   0.058 -0.0865 -0.1392  0.0215
 8234TIP3    H124659   6.819   7.522  -0.004  0.4704  2.1828  0.1383
 8234TIP3    H224660   6.964   7.482   0.003 -0.2767 -0.7575 -0.0434
 8235TIP3   OH224661   2.799   3.060   1.642 -0.4256  0.1906 -0.5865
 8235TIP3    H124662   2.746   2.999   1.590  0.5690 -1.2191 -0.0064
 8235TIP3    H224663   2.754   3.144   1.634 -1.8408 -0.6138 -1.4188
 8236TIP3   OH224664   2.236   4.997   0.093 -0.5246 -0.5558  0.4543
 8236TIP3    H124665   2.188   4.985   0.011 -0.7486 -1.5566  0.7234
 8236TIP3    H224666   2.198   5.076   0.132  1.4087  1.5636 -1.6627
 8237TIP3   OH224667   4.342   7.446   5.226 -0.2885  0.1241  0.3446
 8237TIP3    H124668   4.315   7.528   5.184  0.2073  0.0896 -0.0441
 8237TIP3    H224669   4.423   7.421   5.181  0.6500  0.4538  1.7909
 8238TIP3   OH224670   7.473   4.823   3.753  0.3830 -0.4672 -0.7061
 8238TIP3    H124671   7.460   4.917   3.736 -1.1001 -0.3863  0.6672
 8238TIP3    H224672   7.556   4.819   3.800 -0.5049  0.4237  1.0132
 8239TIP3   OH224673   6.257   0.251   6.713  0.6228 -0.3421 -0.9003
 8239TIP3    H124674   6.233   0.226   6.802  2.6529  1.5631  0.2807
 8239TIP3    H224675   6.178   0.291   6.677 -0.2436 -1.1983  0.0090
 8240TIP3   OH224676   5.000   3.657   3.674  0.5685  0.7938 -0.1948
 8240TIP3    H124677   5.036   3.651   3.763 -0.2812  3.5695  0.4231
 8240TIP3    H224678   4.979   3.749   3.663 -1.8518  0.0855 -2.3330
 8241TIP3   OH224679   5.005   6.104   0.575 -0.2114 -0.3829  0.2276
 8241TIP3    H124680   4.968   6.163   0.510  1.2191  2.0761  1.5225
 8241TIP3    H224681   4.929   6.075   0.627 -0.9331  0.3574 -0.3890
 8242TIP3   OH224682   6.279   7.077   1.514  1.0614 -0.6279  0.7942
 8242TIP3    H124683   6.308   7.148   1.571 -0.6262  0.0665  0.8420
 8242TIP3    H224684   6.338   7.082   1.439 -0.7385  2.8347 -0.6489
 8243TIP3   OH224685   4.669   4.847   3.272  0.2088  0.1411  0.4977
 8243TIP3    H124686   4.621   4.930   3.262 -0.2043 -0.1368  0.1392
 8243TIP3    H224687   4.668   4.830   3.366  0.6961  0.7781  0.6218
 8244TIP3   OH224688   1.710   1.339   3.830  0.3482  0.2169  0.5342
 8244TIP3    H124689   1.651   1.320   3.758 -1.2643  0.4229  1.7421
 8244TIP3    H224690   1.788   1.285   3.813  1.0906  2.0724 -2.5957
 8245TIP3   OH224691   1.299   1.439   6.315  0.8437 -0.4171  0.2182
 8245TIP3    H124692   1.253   1.356   6.304  0.1314 -0.1508  1.0861
 8245TIP3    H224693   1.290   1.483   6.231 -0.1810 -0.5250  0.2588
 8246TIP3   OH224694   1.327   4.671   0.927 -0.5126 -0.1520 -0.4270
 8246TIP3    H124695   1.309   4.710   0.841 -0.8529 -0.9571 -0.7363
 8246TIP3    H224696   1.422   4.670   0.934 -0.4860  0.0501 -0.7385
 8247TIP3   OH224697   3.401   1.198   2.945 -0.9155 -0.8401  0.2576
 8247TIP3    H124698   3.432   1.187   3.035 -1.0633 -1.7370  0.2071
 8247TIP3    H224699   3.349   1.278   2.948 -0.4530 -0.5454  0.8415
 8248TIP3   OH224700   2.125   0.752   4.715 -0.1564  0.2429 -0.5254
 8248TIP3    H124701   2.087   0.702   4.643 -1.3745  2.2689 -1.3442
 8248TIP3    H224702   2.208   0.784   4.681  0.3040 -0.5929 -0.2318
 8249TIP3   OH224703   2.683   5.049   2.454  0.5348 -0.6472 -0.0626
 8249TIP3    H124704   2.604   5.100   2.474  0.2502 -0.7134 -0.9652
 8249TIP3    H224705   2.651   4.959   2.444  0.5441 -0.5104 -1.4699
 8250TIP3   OH224706   5.353   6.231   5.148 -0.2651 -0.2280  0.0843
 8250TIP3    H124707   5.416   6.159   5.146  0.6211  0.5417 -0.9595
 8250TIP3    H224708   5.336   6.250   5.056 -1.9728 -0.3510  0.3437
 8251TIP3   OH224709   2.489   6.742   4.727 -0.3655 -0.1401  0.3180
 8251TIP3    H124710   2.499   6.823   4.776  1.2706  0.8307 -1.4405
 8251TIP3    H224711   2.418   6.760   4.665 -1.5798 -0.9114  1.4578
 8252TIP3   OH224712   5.088   6.126   5.863  0.5286  0.4213  0.4324
 8252TIP3    H124713   5.078   6.126   5.958  0.0211  0.0256  0.3844
 8252TIP3    H224714   5.147   6.053   5.845  0.2488  0.1989  0.4101
 8253TIP3   OH224715   1.482   4.156   0.013 -0.2731  0.5137 -0.0671
 8253TIP3    H124716   1.425   4.183   0.086 -1.4200  0.1476 -0.7982
 8253TIP3    H224717   1.566   4.136   0.054 -0.5351  1.4998  0.9897
 8254TIP3   OH224718   6.276   0.738   0.069 -0.2707 -0.1313 -0.4340
 8254TIP3    H124719   6.256   0.670   0.132  0.6022 -0.6592 -0.7104
 8254TIP3    H224720   6.253   0.700  -0.016  1.2873 -0.5357 -0.7020
 8255TIP3   OH224721   4.781   6.738   3.209 -0.2734  0.0788 -0.2376
 8255TIP3    H124722   4.863   6.742   3.259 -0.5045 -2.0768  0.4069
 8255TIP3    H224723   4.761   6.829   3.189  0.9705  0.8635  1.7547
 8256TIP3   OH224724   7.987   4.093   2.578  0.2540 -0.5945  0.1077
 8256TIP3    H124725   7.994   4.188   2.588  3.1566 -0.6815 -0.1616
 8256TIP3    H224726   8.012   4.058   2.663 -1.8913 -1.1633  0.5497
 8257TIP3   OH224727   3.151   4.098   4.375  0.2158 -0.0718  0.1596
 8257TIP3    H124728   3.241   4.082   4.403 -0.0344 -0.1251  0.9446
 8257TIP3    H224729   3.097   4.070   4.449 -0.3604  1.7500  0.4666
 8258TIP3   OH224730   1.771   0.066   1.954 -0.1142 -0.0801 -0.5400
 8258TIP3    H124731   1.693   0.024   1.919  0.9985 -1.1231 -1.9008
 8258TIP3    H224732   1.788   0.020   2.037 -0.8726  0.0834 -0.2919
 8259TIP3   OH224733   1.369   1.651   4.967  0.0011 -0.0651  0.2924
 8259TIP3    H124734   1.383   1.628   4.875 -0.5962 -2.1661  0.6624
 8259TIP3    H224735   1.414   1.582   5.016  3.3130  2.8477  1.7090
 8260TIP3   OH224736   7.783   4.919   2.231 -0.0575 -0.6115  0.1038
 8260TIP3    H124737   7.764   4.835   2.190  0.5372  0.1943 -1.9660
 8260TIP3    H224738   7.698   4.963   2.239 -0.0796 -0.3275 -1.4078
 8261TIP3   OH224739   1.854   4.088   3.467  0.4330 -0.1002 -0.6988
 8261TIP3    H124740   1.843   3.994   3.484  0.0214 -0.4358 -2.6135
 8261TIP3    H224741   1.884   4.124   3.551 -2.7095 -1.3253  1.1321
 8262TIP3   OH224742   7.349   4.773   0.255 -0.3460  0.0727 -0.6097
 8262TIP3    H124743   7.346   4.855   0.305  0.4533 -0.5432  0.4732
 8262TIP3    H224744   7.292   4.713   0.303  1.1925 -0.8293  0.1912
 8263TIP3   OH224745   0.045   1.305   4.942  0.4989 -0.4879  0.2074
 8263TIP3    H124746   0.110   1.375   4.943  2.4201 -2.1208 -1.2489
 8263TIP3    H224747   0.018   1.298   4.850 -0.5946 -0.8706  0.5383
 8264TIP3   OH224748   6.186   0.288   6.443  0.2093  0.2245 -0.0522
 8264TIP3    H124749   6.240   0.221   6.484  1.6636 -0.0503 -2.2562
 8264TIP3    H224750   6.118   0.239   6.396 -1.2521  0.5217  1.6541
 8265TIP3   OH224751   2.112   1.695   4.824  0.3225 -0.0540 -0.7169
 8265TIP3    H124752   2.027   1.661   4.794  0.6204 -1.5560  0.0115
 8265TIP3    H224753   2.093   1.782   4.857 -1.4574 -1.2119  1.6252
 8266TIP3   OH224754   5.675   1.027   2.446  0.1306 -0.4121  0.1318
 8266TIP3    H124755   5.650   1.028   2.539 -2.3647 -1.8104 -0.4410
 8266TIP3    H224756   5.716   1.112   2.432  1.3589 -0.4781  2.6782
 8267TIP3   OH224757   4.833   1.764   1.154  0.2617 -0.4290  0.0382
 8267TIP3    H124758   4.873   1.823   1.090 -1.2050  0.0135 -0.4978
 8267TIP3    H224759   4.889   1.686   1.151 -0.9028 -1.3320 -3.4172
 8268TIP3   OH224760   4.158   3.990   0.682 -0.3655 -0.3061  0.4868
 8268TIP3    H124761   4.122   4.070   0.645  1.0520  0.3229  0.3919
 8268TIP3    H224762   4.160   3.929   0.608 -0.6097 -0.1406  0.3402
 8269TIP3   OH224763   7.756   4.900   4.134 -0.3844 -0.4178  0.7170
 8269TIP3    H124764   7.803   4.983   4.129 -0.9245 -0.1766 -0.7806
 8269TIP3    H224765   7.732   4.880   4.043  0.2666 -2.5226  0.9501
 8270TIP3   OH224766   2.369   0.705   3.032  0.1914  0.4729  0.2463
 8270TIP3    H124767   2.349   0.727   2.941  1.5022  1.1607  0.0984
 8270TIP3    H224768   2.351   0.611   3.039 -0.4653  0.5334 -0.5613
 8271TIP3   OH224769   0.950   5.568   4.408 -0.1055  0.1342 -0.0728
 8271TIP3    H124770   0.856   5.557   4.427 -0.6281 -0.3664 -2.5384
 8271TIP3    H224771   0.990   5.487   4.440 -0.7032 -0.1722 -0.0732
 8272TIP3   OH224772   1.707   3.333   4.274  0.0389  0.3868 -0.1103
 8272TIP3    H124773   1.621   3.304   4.307 -0.7505  0.5947 -1.8651
 8272TIP3    H224774   1.696   3.336   4.179  1.7426  1.2886 -0.3118
 8273TIP3   OH224775   6.463   7.577   4.770  0.0891 -0.3812 -0.6292
 8273TIP3    H124776   6.384   7.592   4.718  0.2196  0.4096 -0.6019
 8273TIP3    H224777   6.535   7.587   4.708  0.2023 -0.3532 -0.4935
 8274TIP3   OH224778   3.412   1.779   4.761  0.0456 -0.1281  0.2251
 8274TIP3    H124779   3.348   1.726   4.809  0.3685  1.1013  2.1402
 8274TIP3    H224780   3.464   1.821   4.829  1.3082  0.8312 -1.2547
 8275TIP3   OH224781   2.498   3.651   0.779  0.4741 -0.1771  0.2920
 8275TIP3    H124782   2.442   3.573   0.776  0.5239 -0.2293  0.7059
 8275TIP3    H224783   2.571   3.625   0.835  1.1104 -0.2347 -0.5462
 8276TIP3   OH224784   2.611   5.062   4.197  0.4017  0.2714 -0.1471
 8276TIP3    H124785   2.534   5.005   4.200 -1.0997  2.1640 -0.4533
 8276TIP3    H224786   2.677   5.016   4.248 -1.2621 -0.9637  0.9955
 8277TIP3   OH224787   4.892   1.831   4.926  0.7871 -0.7264  0.6299
 8277TIP3    H124788   4.904   1.877   4.843  1.0271 -1.1993  0.4014
 8277TIP3    H224789   4.797   1.823   4.935  0.7477 -3.2950 -1.0740
 8278TIP3   OH224790   3.791   7.469   3.538  0.0411  0.2970 -0.0834
 8278TIP3    H124791   3.727   7.535   3.511 -0.7804 -1.0817 -1.7440
 8278TIP3    H224792   3.842   7.512   3.607 -1.2411  2.2079 -0.2276
 8279TIP3   OH224793   1.861   0.099   4.588  0.3215  0.9323 -0.2817
 8279TIP3    H124794   1.817   0.162   4.645 -0.8210 -0.9213  0.9807
 8279TIP3    H224795   1.790   0.060   4.536  0.8113 -0.2757 -0.0627
 8280TIP3   OH224796   6.128   3.423   2.765 -0.0242 -0.2180 -0.4009
 8280TIP3    H124797   6.113   3.396   2.674 -0.2035 -0.2869 -0.3499
 8280TIP3    H224798   6.161   3.344   2.808  1.1983  0.1122 -0.6853
 8281TIP3   OH224799   0.118   6.387   4.710 -0.2093  0.1644 -0.2616
 8281TIP3    H124800   0.180   6.460   4.706 -0.2767  0.3322  1.2069
 8281TIP3    H224801   0.170   6.310   4.684 -0.7189  0.9512 -4.2933
 8282TIP3   OH224802   4.517   4.435   2.553  0.2108 -0.1212 -0.1151
 8282TIP3    H124803   4.438   4.489   2.545 -0.7802 -1.3737  0.7161
 8282TIP3    H224804   4.527   4.421   2.647  1.3572 -0.0991 -0.2170
 8283TIP3   OH224805   0.548   0.857   4.943 -0.3432  0.0362 -0.0631
 8283TIP3    H124806   0.497   0.800   5.000 -1.1200  0.8856  0.1307
 8283TIP3    H224807   0.489   0.931   4.925  0.4601  0.5448 -0.6783
 8284TIP3   OH224808   6.148   3.199   2.948  0.0462  0.2024 -0.1395
 8284TIP3    H124809   6.240   3.208   2.973 -0.2620  1.1973  0.7179
 8284TIP3    H224810   6.141   3.110   2.914  1.3667  0.1770 -0.4151
 8285TIP3   OH224811   2.402   6.650   5.450  0.4595  0.7523  0.0463
 8285TIP3    H124812   2.322   6.670   5.402  0.5869  0.9709 -0.0761
 8285TIP3    H224813   2.469   6.639   5.383  0.3724 -0.2104  0.1024
 8286TIP3   OH224814   6.211   7.126   1.095  0.1498 -0.4653 -0.3250
 8286TIP3    H124815   6.159   7.205   1.085  1.1683  0.3907  0.8276
 8286TIP3    H224816   6.272   7.129   1.021  0.9598  0.4730  0.3522
 8287TIP3   OH224817   1.726   3.500   3.402  0.4159 -0.3329  0.2896
 8287TIP3    H124818   1.795   3.483   3.466  0.1527 -0.9338  0.4238
 8287TIP3    H224819   1.675   3.419   3.400 -0.3191  0.1206  0.2357
 8288TIP3   OH224820  -0.006   5.836   3.911 -0.2033 -0.0557  0.2784
 8288TIP3    H124821  -0.042   5.875   3.991 -0.1191 -1.1953  0.8924
 8288TIP3    H224822   0.083   5.870   3.906 -0.3613  0.3876  0.4125
 8289TIP3   OH224823   1.747   1.362   1.670 -0.1593 -0.3509  0.0175
 8289TIP3    H124824   1.815   1.395   1.612  0.0919 -1.6107 -0.4421
 8289TIP3    H224825   1.788   1.289   1.716 -0.8490 -0.3820  0.6084
 8290TIP3   OH224826   6.234   4.423   2.554 -0.1823  0.4432 -0.3695
 8290TIP3    H124827   6.188   4.453   2.633 -0.6110  0.7926 -0.7411
 8290TIP3    H224828   6.323   4.404   2.584  0.3348  2.7338 -0.1977
 8291TIP3   OH224829   3.932   4.885   3.212 -0.1837  0.5976 -0.3943
 8291TIP3    H124830   3.998   4.897   3.281  0.1461  0.2292 -0.6394
 8291TIP3    H224831   3.931   4.968   3.165  0.0208  0.6463 -0.3144
 8292TIP3   OH224832   1.449   1.787   5.339 -0.2205  0.2520  0.0809
 8292TIP3    H124833   1.377   1.757   5.284 -2.3403  3.1877  0.9605
 8292TIP3    H224834   1.410   1.796   5.426  1.1364  2.0525  0.5571
 8293TIP3   OH224835   6.908   6.845   3.532  0.2498  0.6009  0.4926
 8293TIP3    H124836   6.867   6.863   3.617  0.0490 -0.1196  0.5620
 8293TIP3    H224837   6.979   6.784   3.553  1.4103  1.8826  0.3761
 8294TIP3   OH224838   6.262   7.215   4.166 -0.3016  0.4686 -0.1588
 8294TIP3    H124839   6.334   7.168   4.209 -0.6564 -0.4003 -0.4762
 8294TIP3    H224840   6.209   7.250   4.237 -0.9685 -1.0831  0.1513
 8295TIP3   OH224841   5.028   3.939   4.908  0.0503  0.5427  0.3032
 8295TIP3    H124842   5.044   3.939   4.813  0.2635  1.4895  0.3237
 8295TIP3    H224843   4.944   3.895   4.918  1.1051 -1.6895 -0.0994
 8296TIP3   OH224844   3.021   5.309   4.406 -0.8533 -0.2128 -0.2091
 8296TIP3    H124845   3.054   5.396   4.383  1.9448 -1.2826 -0.6106
 8296TIP3    H224846   2.993   5.271   4.322  0.5549 -0.6994 -0.4702
 8297TIP3   OH224847   6.606   5.950   5.209  0.5546 -0.3377 -0.3972
 8297TIP3    H124848   6.563   5.943   5.295  0.7028  0.0773 -0.2859
 8297TIP3    H224849   6.699   5.956   5.230  0.6708 -1.1642 -0.6361
 8298TIP3   OH224850   3.327   2.899   0.145  0.1309  0.0757 -0.5682
 8298TIP3    H124851   3.387   2.887   0.071  2.6789 -3.8736  1.8012
 8298TIP3    H224852   3.382   2.928   0.217 -1.7065  0.7690  0.6442
 8299TIP3   OH224853   1.253   7.511   5.493  0.1770 -0.5977  0.4403
 8299TIP3    H124854   1.186   7.528   5.428 -0.4175  0.5238  1.3073
 8299TIP3    H224855   1.271   7.417   5.485 -0.0097 -0.5159 -1.1795
 8300TIP3   OH224856   7.549   1.325   5.706  0.0956  0.1698 -0.2917
 8300TIP3    H124857   7.596   1.407   5.690 -0.2897  0.1884 -1.4157
 8300TIP3    H224858   7.611   1.271   5.755  0.7255  0.7489 -0.4376
 8301TIP3   OH224859   2.839   7.531   1.683  0.3641  0.3479 -0.1784
 8301TIP3    H124860   2.885   7.584   1.617 -1.2039  0.6939 -1.0438
 8301TIP3    H224861   2.824   7.448   1.639  2.4431 -0.7405  1.0320
 8302TIP3   OH224862   1.211   5.379   2.159 -0.3930 -0.5929 -0.4616
 8302TIP3    H124863   1.176   5.467   2.171 -1.8048 -1.3138  1.0313
 8302TIP3    H224864   1.286   5.375   2.218 -1.4427 -0.9538  0.8940
 8303TIP3   OH224865   3.861   7.163   3.544 -0.1575  0.1428  0.7366
 8303TIP3    H124866   3.907   7.080   3.538  2.1397  1.3294  0.9748
 8303TIP3    H224867   3.922   7.222   3.587 -1.7995  1.9273  0.7870
 8304TIP3   OH224868   7.529   0.405   5.713 -0.4158  0.6505  0.2835
 8304TIP3    H124869   7.570   0.463   5.776 -0.6006 -0.6303  1.6436
 8304TIP3    H224870   7.530   0.319   5.755 -2.5784  0.1735 -0.5058
 8305TIP3   OH224871   0.719   6.575   1.187 -0.0692  0.1263 -0.1942
 8305TIP3    H124872   0.659   6.516   1.142  0.8368  0.0055 -1.3119
 8305TIP3    H224873   0.740   6.642   1.121  0.6502  0.4149  0.3185
 8306TIP3   OH224874   6.280   7.018   0.745  0.2389 -0.0404  0.6507
 8306TIP3    H124875   6.235   6.989   0.665 -0.3440 -1.5166  1.4770
 8306TIP3    H224876   6.250   6.957   0.813  0.2940  1.5163  2.1278
 8307TIP3   OH224877   1.961   5.191   4.499  0.0608 -0.0778  0.2550
 8307TIP3    H124878   2.021   5.262   4.475 -0.3015 -0.0224 -0.5263
 8307TIP3    H224879   1.876   5.234   4.509 -0.4519 -0.5610 -1.5766
 8308TIP3   OH224880   4.137   1.994   2.528  0.0055  0.6600  0.6552
 8308TIP3    H124881   4.144   1.920   2.589 -0.8204  0.4973  0.5611
 8308TIP3    H224882   4.228   2.011   2.500  0.1946 -0.3735  0.6046
 8309TIP3   OH224883   5.510   6.119   4.708 -0.3004  0.4342 -0.3918
 8309TIP3    H124884   5.547   6.042   4.666  1.1022  0.7055  0.2940
 8309TIP3    H224885   5.509   6.186   4.640  0.9478  0.5549 -0.3236
 8310TIP3   OH224886   4.374   2.750   0.108  0.2167 -0.5949 -0.1200
 8310TIP3    H124887   4.380   2.745   0.203 -1.0836  2.9967  0.2803
 8310TIP3    H224888   4.305   2.687   0.085  0.8641 -1.8450  1.1888
 8311TIP3   OH224889   3.713   1.394   0.449 -0.1840  0.1043 -0.2248
 8311TIP3    H124890   3.699   1.442   0.368  0.4274 -1.0643 -1.0488
 8311TIP3    H224891   3.724   1.303   0.422 -0.0534 -0.3221  1.1758
 8312TIP3   OH224892   6.568   5.386   1.557  0.2918  0.3695  0.1934
 8312TIP3    H124893   6.498   5.322   1.542 -0.3336  1.1749 -0.4587
 8312TIP3    H224894   6.634   5.339   1.608  0.1020 -0.9581 -0.7326
 8313TIP3   OH224895   2.670   5.084   2.171  0.0457 -0.4577 -0.3537
 8313TIP3    H124896   2.702   5.092   2.261  0.9267 -2.1123 -0.4683
 8313TIP3    H224897   2.596   5.145   2.166 -0.3713 -0.7084  1.6684
 8314TIP3   OH224898   1.154   5.891   4.411 -0.0369 -0.5712 -0.5646
 8314TIP3    H124899   1.239   5.847   4.412  0.3100  0.0870  0.8910
 8314TIP3    H224900   1.118   5.871   4.324  1.3420 -1.3320 -0.9909
 8315TIP3   OH224901   1.441   0.119   4.418 -0.4782 -0.4307  0.4467
 8315TIP3    H124902   1.462   0.160   4.334  0.9677  0.4253  1.1796
 8315TIP3    H224903   1.392   0.185   4.467 -0.1950 -0.4437  0.7534
 8316TIP3   OH224904   7.996   2.398   1.940  0.3018  0.0051  0.3176
 8316TIP3    H124905   7.953   2.479   1.912 -1.2600 -0.9158 -0.0719
 8316TIP3    H224906   8.047   2.424   2.016 -0.6452  1.2537  0.5721
 8317TIP3   OH224907   8.040   2.808   6.718  0.4686 -0.1229 -0.2560
 8317TIP3    H124908   8.115   2.767   6.761 -0.5059 -2.4864 -0.6404
 8317TIP3    H224909   8.013   2.878   6.777  0.4002 -1.9741  2.0249
 8318TIP3   OH224910   3.619   0.870   3.074 -0.3885  0.1122 -0.5189
 8318TIP3    H124911   3.610   0.853   2.980 -0.3136  0.5879 -0.6149
 8318TIP3    H224912   3.572   0.798   3.116  2.6114 -2.2310 -0.8254
 8319TIP3   OH224913   1.709   7.654   2.325  0.4099  0.6214  0.9532
 8319TIP3    H124914   1.647   7.584   2.307  0.7881  0.2638  1.0254
 8319TIP3    H224915   1.780   7.641   2.262 -0.7571  2.5612 -0.8828
 8320TIP3   OH224916   7.939   2.671   4.798 -0.4698 -0.2042  0.2361
 8320TIP3    H124917   7.875   2.740   4.783  1.1690  1.0828 -1.4422
 8320TIP3    H224918   7.910   2.598   4.742  0.6977  1.2565 -2.4758
 8321TIP3   OH224919   2.057   5.943   6.124  0.6988 -0.3773 -0.2368
 8321TIP3    H124920   2.061   5.855   6.160  0.6293 -0.8509 -1.3462
 8321TIP3    H224921   2.143   5.980   6.141  1.3811 -1.3512 -1.4213
 8322TIP3   OH224922   7.193   0.358   5.005 -0.1046  0.4510  0.3691
 8322TIP3    H124923   7.214   0.292   5.071 -0.5769  0.0370  0.1090
 8322TIP3    H224924   7.276   0.371   4.957  0.0472  0.2173  0.5664
 8323TIP3   OH224925   3.628   1.920   2.417  0.5420  0.1678 -0.7404
 8323TIP3    H124926   3.590   1.835   2.399  1.5962 -0.3791 -0.4747
 8323TIP3    H224927   3.706   1.924   2.362  0.7269  0.7915 -0.4461
 8324TIP3   OH224928   1.830   7.183   0.443  0.0557 -0.6276  0.8569
 8324TIP3    H124929   1.767   7.207   0.374 -0.8047  0.3597  1.9489
 8324TIP3    H224930   1.869   7.102   0.412 -1.7410 -1.2576  0.1076
 8325TIP3   OH224931   3.563   1.327   1.445 -0.1024  0.1623  0.5933
 8325TIP3    H124932   3.528   1.346   1.358 -0.5403 -0.3431  0.6482
 8325TIP3    H224933   3.658   1.335   1.435 -0.1831  0.7616  0.2370
 8326TIP3   OH224934   1.474   3.784   6.714 -0.3318  0.1650  0.2849
 8326TIP3    H124935   1.436   3.697   6.701  0.0486  0.1742 -1.0751
 8326TIP3    H224936   1.398   3.843   6.721 -0.6334 -0.3936  2.5944
 8327TIP3   OH224937   5.832   3.932   4.286  0.0517  0.1629 -0.3377
 8327TIP3    H124938   5.810   3.976   4.203 -0.1336  0.9555  0.1200
 8327TIP3    H224939   5.928   3.929   4.287  0.0504 -1.0040 -1.1576
 8328TIP3   OH224940   1.312   3.046   6.368  0.5805  0.3671 -0.0980
 8328TIP3    H124941   1.406   3.041   6.384  0.7558  2.2011 -0.3624
 8328TIP3    H224942   1.289   3.137   6.387 -1.2369 -0.1498  0.4115
 8329TIP3   OH224943   2.646   6.539   4.623 -0.0107 -0.0148 -0.3968
 8329TIP3    H124944   2.617   6.521   4.713 -1.0264 -3.1082 -1.2227
 8329TIP3    H224945   2.581   6.601   4.590 -0.2995  0.2649  0.6316
 8330TIP3   OH224946   1.891   4.844   0.307 -0.2001  0.5822 -0.0878
 8330TIP3    H124947   1.819   4.786   0.282  0.5512 -0.2122 -0.4933
 8330TIP3    H224948   1.876   4.924   0.258  0.8778 -0.7021 -2.7338
 8331TIP3   OH224949   6.081   3.159   0.312 -0.3097 -0.3043  0.0214
 8331TIP3    H124950   6.134   3.080   0.303 -0.3292 -0.2165 -1.0059
 8331TIP3    H224951   6.027   3.143   0.389 -0.4907 -1.4009 -0.3153
 8332TIP3   OH224952   4.390   4.291   0.665 -0.1848  0.7032  0.0974
 8332TIP3    H124953   4.414   4.308   0.574  0.2145 -0.3653 -0.0183
 8332TIP3    H224954   4.326   4.220   0.659 -1.0532  1.4207  0.5979
 8333TIP3   OH224955   4.770   1.274   0.739  0.1647 -0.0798  0.4848
 8333TIP3    H124956   4.721   1.196   0.765  0.2255 -0.1168  0.4889
 8333TIP3    H224957   4.831   1.243   0.673  1.1520 -0.3144  1.4805
 8334TIP3   OH224958   5.244   7.557   1.869  0.1295  0.1333  0.2217
 8334TIP3    H124959   5.285   7.492   1.813 -1.3314  0.8216 -1.7362
 8334TIP3    H224960   5.262   7.641   1.828 -2.6120  0.5198 -0.4235
 8335TIP3   OH224961   2.301   6.560   0.174  0.2251  0.1686 -0.1189
 8335TIP3    H124962   2.394   6.583   0.184  0.2716 -0.1312  0.1355
 8335TIP3    H224963   2.260   6.642   0.147  0.5775  0.2862 -0.3150
 8336TIP3   OH224964   6.351   3.805   6.181 -0.1295 -0.1792  0.6358
 8336TIP3    H124965   6.362   3.870   6.112 -0.3876  0.8133  1.4959
 8336TIP3    H224966   6.258   3.783   6.179  0.0452 -0.9022  0.0315
 8337TIP3   OH224967   7.346   0.301   3.553 -0.1021 -0.1080 -0.3042
 8337TIP3    H124968   7.357   0.218   3.507  0.3692  0.7136 -1.7563
 8337TIP3    H224969   7.427   0.313   3.603 -1.0483 -1.5171  1.6972
 8338TIP3   OH224970   7.993   0.283   3.005 -1.0409 -0.7534 -0.2358
 8338TIP3    H124971   8.024   0.363   3.048 -1.8557 -0.7354  0.3394
 8338TIP3    H224972   7.983   0.307   2.913  2.3343 -1.2381 -0.8519
 8339TIP3   OH224973   1.383   2.609   6.222  0.8520 -0.0903 -0.6302
 8339TIP3    H124974   1.334   2.549   6.165  0.6643  0.1778 -0.7515
 8339TIP3    H224975   1.324   2.683   6.235  2.6281  2.1683 -4.0182
 8340TIP3   OH224976   0.044   4.642   6.390  0.2113  0.4019 -0.7165
 8340TIP3    H124977   0.097   4.720   6.402 -0.6801  0.8641  0.3516
 8340TIP3    H224978  -0.043   4.666   6.423 -0.3575 -0.7050 -1.3314
 8341TIP3   OH224979   0.395   0.865   2.452 -0.6127  0.4023  0.5408
 8341TIP3    H124980   0.447   0.852   2.373 -0.9497 -0.0195  0.3793
 8341TIP3    H224981   0.366   0.956   2.448  1.0853  1.0125  1.2406
 8342TIP3   OH224982   7.554   2.623   6.627 -0.3620  0.5576  0.2885
 8342TIP3    H124983   7.554   2.544   6.573  0.5535  0.1716  0.8221
 8342TIP3    H224984   7.615   2.682   6.583 -0.6378  0.7566  0.1763
 8343TIP3   OH224985   3.013   1.622   6.523 -0.0851 -0.3402  0.0934
 8343TIP3    H124986   3.008   1.533   6.487 -1.1822 -0.4406  0.4562
 8343TIP3    H224987   3.008   1.679   6.446  0.8973 -0.5899 -0.1627
 8344TIP3   OH224988   8.117   5.773   0.229  0.4499 -0.1347 -0.4985
 8344TIP3    H124989   8.126   5.701   0.292 -0.2334  0.7471  0.6433
 8344TIP3    H224990   8.023   5.787   0.221  0.5518  0.1509 -1.2843
 8345TIP3   OH224991   0.688   6.665   6.435  0.7472  0.4693 -0.4232
 8345TIP3    H124992   0.701   6.670   6.341  1.3536 -2.3226 -0.5545
 8345TIP3    H224993   0.750   6.599   6.466  0.0477  0.7566  1.8350
 8346TIP3   OH224994   1.008   1.494   1.882 -0.2600 -0.7120  0.2214
 8346TIP3    H124995   0.964   1.576   1.861  1.2541  0.0326 -0.1507
 8346TIP3    H224996   1.063   1.515   1.957 -0.2364 -1.5268  0.4420
 8347TIP3   OH224997   1.502   7.105   3.112 -0.2203 -0.0036 -0.4346
 8347TIP3    H124998   1.435   7.115   3.045 -1.1123  0.6385  0.5296
 8347TIP3    H224999   1.468   7.151   3.188  2.0076  1.7342 -0.3821
 8348TIP3   OH225000   1.363   3.922   0.170  0.6046  0.0275  0.1550
 8348TIP3    H125001   1.387   3.977   0.095  2.1066  0.1043  0.6620
 8348TIP3    H225002   1.406   3.838   0.153  0.2811 -0.2202  0.5373
 8349TIP3   OH225003   1.624   4.819   1.858 -0.1152  0.0061 -0.4975
 8349TIP3    H125004   1.615   4.901   1.811  2.3294  1.3365  1.1165
 8349TIP3    H225005   1.643   4.845   1.948 -2.5519 -2.4108  0.8644
 8350TIP3   OH225006   5.489   1.195   6.320 -0.2609 -0.0658  0.2609
 8350TIP3    H125007   5.443   1.255   6.378  0.9144  1.0513  0.0773
 8350TIP3    H225008   5.522   1.250   6.249  3.4624 -0.2851  1.6094
 8351TIP3   OH225009   2.774   1.167   3.464  0.0082 -0.5199  0.2761
 8351TIP3    H125010   2.743   1.191   3.377  0.8324 -1.4090 -0.2877
 8351TIP3    H225011   2.841   1.232   3.485 -0.9997  0.3915  0.7697
 8352TIP3   OH225012   1.093   6.260   0.349 -0.2445  0.4447  0.4134
 8352TIP3    H125013   1.053   6.207   0.279 -0.6950  1.5797 -0.2110
 8352TIP3    H225014   1.178   6.218   0.364  0.1174  0.5156 -1.2363
 8353TIP3   OH225015   3.607   4.479   3.065 -1.2441 -0.2418 -0.0238
 8353TIP3    H125016   3.538   4.535   3.030 -1.4047  0.7271  1.7235
 8353TIP3    H225017   3.684   4.535   3.068 -1.3316 -0.1640  1.4683
 8354TIP3   OH225018   1.083   0.471   0.797 -0.2083 -0.1450  0.0582
 8354TIP3    H125019   1.166   0.519   0.808 -0.2050 -0.1933  0.2582
 8354TIP3    H225020   1.087   0.436   0.708 -0.0615 -0.0538  0.0281
 8355TIP3   OH225021   0.307   1.536   3.858  0.3190  0.0701  0.1858
 8355TIP3    H125022   0.347   1.452   3.882  2.0565  0.4223 -1.1911
 8355TIP3    H225023   0.382   1.594   3.843 -0.8481  2.0386  1.5448
 8356TIP3   OH225024   6.928   2.571   6.684  0.5995 -0.4790 -0.7725
 8356TIP3    H125025   6.973   2.527   6.613  2.3169  1.9663 -1.2932
 8356TIP3    H225026   6.900   2.655   6.648 -1.1246 -0.3848  0.6225
 8357TIP3   OH225027   8.207   7.105   2.420 -0.7943  0.0029 -0.0657
 8357TIP3    H125028   8.273   7.165   2.456 -0.3408 -0.6722  0.2538
 8357TIP3    H225029   8.259   7.036   2.378 -1.2712 -1.0612  1.0466
 8358TIP3   OH225030   2.505   7.480   4.366 -0.1815  0.1822 -0.0054
 8358TIP3    H125031   2.525   7.390   4.339  2.5272 -0.1767  2.6042
 8358TIP3    H225032   2.454   7.470   4.446 -3.3738  1.1485 -1.7318
 8359TIP3   OH225033   6.869   5.768   2.529  0.0133  0.5908  0.1324
 8359TIP3    H125034   6.945   5.812   2.566  0.0306  2.2211 -1.7052
 8359TIP3    H225035   6.795   5.824   2.553 -0.4205 -0.0982  0.4620
 8360TIP3   OH225036   3.182   3.296   1.287 -0.0303 -0.2265  0.0196
 8360TIP3    H125037   3.190   3.345   1.206  0.6476  0.1190  0.2877
 8360TIP3    H225038   3.203   3.206   1.264  1.0120  0.0154 -0.0341
 8361TIP3   OH225039   7.298   1.136   6.280 -0.4569  0.2988 -0.7602
 8361TIP3    H125040   7.304   1.212   6.337  1.8159 -0.5732  0.2659
 8361TIP3    H225041   7.379   1.138   6.228 -0.2584 -1.5010 -0.5737
 8362TIP3   OH225042   2.049   3.790   4.769 -0.2284  0.5946 -0.6842
 8362TIP3    H125043   2.069   3.859   4.833 -0.8862 -0.0575  0.2540
 8362TIP3    H225044   1.980   3.828   4.714 -1.3310  0.3556  0.4756
 8363TIP3   OH225045   8.251   0.624   0.352  0.6574  0.4914  0.1003
 8363TIP3    H125046   8.251   0.555   0.286  1.2468  0.3608  0.2304
 8363TIP3    H225047   8.297   0.697   0.309  0.4480  0.6410  0.1289
 8364TIP3   OH225048   8.099   2.781   0.654  0.4807 -0.3945 -0.7560
 8364TIP3    H125049   8.142   2.719   0.713 -1.7172 -1.8840 -0.5647
 8364TIP3    H225050   8.091   2.861   0.706  1.6500 -0.5537 -0.2971
 8365TIP3   OH225051   3.360   6.941   6.014 -0.0462  0.2064  0.2578
 8365TIP3    H125052   3.288   6.949   6.077 -1.1015  2.6221 -1.1027
 8365TIP3    H225053   3.398   6.855   6.032 -1.8907 -0.2565  2.4652
 8366TIP3   OH225054   6.287   5.915   5.835 -0.8285  0.7209  0.5365
 8366TIP3    H125055   6.331   5.980   5.780  0.2357  0.7637  1.4015
 8366TIP3    H225056   6.199   5.907   5.797  0.1585  0.0112 -1.7909
 8367TIP3   OH225057   5.326   4.744   6.513  0.5243 -0.3013 -0.2212
 8367TIP3    H125058   5.245   4.789   6.487  0.7506 -0.4170 -1.1827
 8367TIP3    H225059   5.396   4.800   6.479  0.8533 -0.1910  0.6268
 8368TIP3   OH225060   0.535   7.245   3.377 -0.5533  0.2281  0.3161
 8368TIP3    H125061   0.611   7.302   3.388 -1.3469  1.4402 -0.2107
 8368TIP3    H225062   0.509   7.222   3.466 -0.5910  1.2296  0.5768
 8369TIP3   OH225063   8.145   3.082   3.346 -0.3165  0.0797  0.1892
 8369TIP3    H125064   8.089   3.147   3.387 -4.0637  0.1977 -4.3284
 8369TIP3    H225065   8.108   2.998   3.372 -0.4051  0.0463 -0.0397
 8370TIP3   OH225066   6.774   4.709   3.431  0.5239 -0.0108  0.0892
 8370TIP3    H125067   6.680   4.693   3.435  0.7909 -1.4277  2.9821
 8370TIP3    H225068   6.795   4.706   3.337 -2.0056 -1.4772 -0.5142
 8371TIP3   OH225069   2.960   3.402   2.764 -0.2849  0.2310 -0.2123
 8371TIP3    H125070   3.039   3.438   2.724 -0.3071 -1.0827 -1.5428
 8371TIP3    H225071   2.925   3.474   2.817  3.0088  0.1824  2.3956
 8372TIP3   OH225072   5.399   7.694   0.764  0.7532  0.0982 -0.0065
 8372TIP3    H125073   5.327   7.758   0.763 -0.1967 -0.9478 -0.9235
 8372TIP3    H225074   5.473   7.743   0.801 -0.4087  1.2049  0.9670
 8373TIP3   OH225075   4.742   7.078   1.279  0.0912  0.0704 -0.3203
 8373TIP3    H125076   4.826   7.122   1.286  0.0681  0.2777 -1.2073
 8373TIP3    H225077   4.761   6.986   1.299 -0.0031  0.5400  2.3970
 8374TIP3   OH225078   8.246   7.105   4.573 -0.0028 -0.2029 -0.7149
 8374TIP3    H125079   8.176   7.169   4.560 -1.7021 -1.8936 -0.3455
 8374TIP3    H225080   8.298   7.140   4.645 -1.3708  0.3843  0.0156
 8375TIP3   OH225081   0.705   5.445   4.206 -0.3392 -0.1148  0.2507
 8375TIP3    H125082   0.629   5.419   4.257  0.9921 -1.1793  1.7990
 8375TIP3    H225083   0.754   5.364   4.193  1.1587  0.7290  0.4149
 8376TIP3   OH225084   7.135   4.012   6.542 -0.8398  0.4306  0.3080
 8376TIP3    H125085   7.138   4.101   6.577  0.1794  0.1031  1.1087
 8376TIP3    H225086   7.090   3.961   6.609  0.4564 -0.0540  0.8345
 8377TIP3   OH225087   8.004   0.523   6.373 -0.1207  0.0980 -0.1460
 8377TIP3    H125088   8.070   0.487   6.314  0.9386  0.4799  0.7685
 8377TIP3    H225089   7.976   0.604   6.330  0.8325  0.5126 -0.0219
 8378TIP3   OH225090   3.471   1.281   5.801  0.6651  0.0274  0.2052
 8378TIP3    H125091   3.488   1.210   5.739  0.3649  1.2332 -1.3485
 8378TIP3    H225092   3.439   1.353   5.746 -0.8409  0.7651  1.9318
 8379TIP3   OH225093   1.811   5.319   3.283  0.3841  0.1771 -0.5155
 8379TIP3    H125094   1.798   5.409   3.311 -0.5111  0.0004 -0.3271
 8379TIP3    H225095   1.842   5.326   3.193  0.7077  0.6794 -0.3696
 8380TIP3   OH225096   2.524   3.997   6.044  0.0490 -0.4645 -0.2480
 8380TIP3    H125097   2.501   3.905   6.053 -1.3597 -0.1841 -0.6468
 8380TIP3    H225098   2.439   4.042   6.042  0.6334  0.6591 -1.9265
 8381TIP3   OH225099   2.120   3.414   6.566  0.1034  0.0957 -0.2207
 8381TIP3    H125100   2.138   3.462   6.647 -0.7132 -0.3997  0.2669
 8381TIP3    H225101   2.206   3.403   6.525  0.5393  0.2523  0.6312
 8382TIP3   OH225102   7.747   4.958   1.880 -0.2745 -0.2332  0.0108
 8382TIP3    H125103   7.831   4.954   1.926  0.4391 -0.2188 -1.2486
 8382TIP3    H225104   7.687   4.996   1.943  0.4375 -1.1051  1.2585
 8383TIP3   OH225105   2.124   5.596   3.869  0.2545 -0.0338  0.0380
 8383TIP3    H125106   2.048   5.644   3.835  1.6284  1.4309 -1.1023
 8383TIP3    H225107   2.180   5.583   3.793  0.9957 -1.4417  0.7881
 8384TIP3   OH225108   3.587   7.471   3.848 -0.2431  0.2891  0.5407
 8384TIP3    H125109   3.663   7.413   3.849 -0.3938  0.0573 -0.5534
 8384TIP3    H225110   3.523   7.427   3.904 -0.5871 -0.9455 -0.7778
 8385TIP3   OH225111   2.758   2.516   4.876 -0.2545 -0.2980  0.1315
 8385TIP3    H125112   2.758   2.476   4.789 -4.1417  0.8479 -0.5879
 8385TIP3    H225113   2.722   2.449   4.934  0.9157 -0.5372  0.6153
 8386TIP3   OH225114   0.222   7.576   0.710 -0.0022 -0.1456 -0.2998
 8386TIP3    H125115   0.281   7.501   0.718  1.2144  0.8306  0.3282
 8386TIP3    H225116   0.256   7.626   0.635 -0.9471 -0.3244 -0.8671
 8387TIP3   OH225117   7.193   7.814   4.835 -0.2433  0.1484  0.4737
 8387TIP3    H125118   7.140   7.766   4.771  0.6142  0.2423 -0.3310
 8387TIP3    H225119   7.216   7.749   4.901  3.3064 -1.4617 -2.0248
 8388TIP3   OH225120   3.342   5.014   3.136 -0.2128  0.2744  0.6124
 8388TIP3    H125121   3.285   4.994   3.211 -2.6647  1.1889 -0.8781
 8388TIP3    H225122   3.430   5.018   3.173 -1.1321 -0.8515  3.1382
 8389TIP3   OH225123   6.283   4.889   3.371  0.2851 -0.2194  0.2370
 8389TIP3    H125124   6.313   4.964   3.319 -1.1089  0.9356  0.9868
 8389TIP3    H225125   6.255   4.824   3.307  1.8428 -0.2603 -0.4337
 8390TIP3   OH225126   5.183   7.223   3.245  0.2692  0.4405 -0.4447
 8390TIP3    H125127   5.093   7.200   3.266  0.3070  1.2344  0.6694
 8390TIP3    H225128   5.191   7.315   3.269  1.4289  0.3277 -0.3356
 8391TIP3   OH225129  -0.001   3.690   5.003 -0.0899 -0.2657  0.5917
 8391TIP3    H125130  -0.073   3.627   4.997 -0.8890  0.7111 -0.4550
 8391TIP3    H225131   0.077   3.638   4.986 -0.8335 -0.8073 -1.4164
 8392TIP3   OH225132   2.049   2.054   2.611  1.1390  0.3692 -0.4468
 8392TIP3    H125133   2.072   2.107   2.687 -0.5693  0.2895  0.1765
 8392TIP3    H225134   2.062   1.964   2.639 -0.1549  0.3079  0.0295
 8393TIP3   OH225135   6.388   4.956   0.353 -0.4296  0.1583  0.2822
 8393TIP3    H125136   6.330   4.935   0.426  0.1453 -0.9583  0.4492
 8393TIP3    H225137   6.340   4.928   0.275 -1.0634  1.3937  0.2130
 8394TIP3   OH225138   6.525   2.541   4.450 -0.4206  0.0952  0.1740
 8394TIP3    H125139   6.534   2.632   4.424 -1.5799  0.0038 -0.6286
 8394TIP3    H225140   6.550   2.492   4.371  5.2740 -0.5517  1.9232
 8395TIP3   OH225141   6.678   3.935   5.282  0.1689 -0.0759  0.1461
 8395TIP3    H125142   6.703   4.027   5.273 -0.2947  0.4854  3.2212
 8395TIP3    H225143   6.761   3.889   5.296  0.2049  0.6830  3.1716
 8396TIP3   OH225144   6.629   6.282   0.780 -0.1544 -0.3251 -0.6133
 8396TIP3    H125145   6.714   6.325   0.773  0.6627 -1.5624  1.0042
 8396TIP3    H225146   6.618   6.265   0.874 -2.2223 -0.1505 -0.7801
 8397TIP3   OH225147   3.712   0.480   3.772 -0.9055  0.1508 -0.6715
 8397TIP3    H125148   3.745   0.485   3.682 -1.0548 -1.6326 -0.8729
 8397TIP3    H225149   3.617   0.477   3.762 -1.0664  2.3322 -0.2715
 8398TIP3   OH225150   3.448   6.346   2.255 -0.6403 -0.0967 -0.3491
 8398TIP3    H125151   3.485   6.319   2.171 -1.9536 -0.7883 -0.7197
 8398TIP3    H225152   3.467   6.440   2.260  2.5006 -0.6280  0.2071
 8399TIP3   OH225153   1.003   3.747   1.040 -0.6173  0.1385  0.1877
 8399TIP3    H125154   0.996   3.842   1.028 -0.6755  0.0492 -0.5842
 8399TIP3    H225155   0.974   3.711   0.956 -0.0805 -0.5454  0.2888
 8400TIP3   OH225156   3.838   6.697   4.025 -0.1102  0.5848 -0.2301
 8400TIP3    H125157   3.877   6.753   4.093  1.1589 -0.9538  0.3884
 8400TIP3    H225158   3.748   6.683   4.054  0.9422 -1.7417  2.4161
 8401TIP3   OH225159   3.334   2.456   3.040  0.3843  0.2627  0.2535
 8401TIP3    H125160   3.268   2.391   3.013 -0.4669  1.1876  0.0687
 8401TIP3    H225161   3.332   2.522   2.972 -2.5628  3.2252  2.8639
 8402TIP3   OH225162   1.651   6.576   0.274 -0.4428  0.0327  0.2826
 8402TIP3    H125163   1.662   6.613   0.186  0.2627 -2.1237 -0.5972
 8402TIP3    H225164   1.717   6.507   0.279  0.4423  0.9608  3.0397
 8403TIP3   OH225165   4.049   0.898   0.923 -0.2226  0.1004 -0.2063
 8403TIP3    H125166   4.139   0.865   0.926 -0.1285  0.2525 -1.0915
 8403TIP3    H225167   4.051   0.976   0.979  0.0151 -0.2950  0.3496
 8404TIP3   OH225168   1.371   2.523   4.683  0.1470 -0.4436 -0.3118
 8404TIP3    H125169   1.423   2.489   4.755 -0.8029  0.6237  0.9230
 8404TIP3    H225170   1.436   2.548   4.617  0.9709 -2.4240 -0.3199
 8405TIP3   OH225171   5.397   2.066   2.128  0.3365 -0.4847 -0.4804
 8405TIP3    H125172   5.372   1.974   2.123  0.2425 -0.6015  1.4032
 8405TIP3    H225173   5.482   2.065   2.172 -0.1401  0.3566  0.5199
 8406TIP3   OH225174   7.150   0.709   2.743  0.1228 -0.1432 -0.3390
 8406TIP3    H125175   7.073   0.765   2.759  0.3662 -0.2212  1.2440
 8406TIP3    H225176   7.116   0.636   2.691 -0.3376  1.0831 -1.8639
 8407TIP3   OH225177   2.347   6.955   6.401  0.5505  0.7532 -0.0306
 8407TIP3    H125178   2.382   7.019   6.463 -0.1145  1.6090 -0.5081
 8407TIP3    H225179   2.256   6.983   6.386  0.4097  0.0034 -0.6530
 8408TIP3   OH225180   4.551   5.175   0.697  0.6124 -0.2889  0.0809
 8408TIP3    H125181   4.572   5.266   0.677 -0.0670 -0.2081 -0.2841
 8408TIP3    H225182   4.517   5.140   0.615  0.3313 -0.7125  0.3748
 8409TIP3   OH225183   6.510   0.691   4.385  0.3584 -0.1562 -0.2563
 8409TIP3    H125184   6.438   0.730   4.335  1.1718  1.3100 -0.3403
 8409TIP3    H225185   6.573   0.663   4.320 -0.4787 -2.2840 -0.2347
 8410TIP3   OH225186   6.906   0.120   0.501 -0.0414 -0.4279  0.3273
 8410TIP3    H125187   6.879   0.207   0.471  0.7129  0.0852  1.1036
 8410TIP3    H225188   6.987   0.101   0.454 -0.0835 -0.6181  0.3275
 8411TIP3   OH225189   7.983   0.992   3.008  0.0939  0.0251 -0.3173
 8411TIP3    H125190   8.047   1.017   3.075  1.3583 -0.1440 -1.4149
 8411TIP3    H225191   7.917   1.060   3.011  1.5577  1.5344 -0.7458
 8412TIP3   OH225192   8.255   4.898   2.812 -0.5982 -0.6017 -0.4216
 8412TIP3    H125193   8.307   4.855   2.880  0.9421 -0.4342 -1.4443
 8412TIP3    H225194   8.284   4.857   2.731  0.1453  1.5852 -1.3272
 8413TIP3   OH225195   2.208   7.560   0.421 -0.8397 -0.1300 -0.0045
 8413TIP3    H125196   2.141   7.494   0.407  0.3512 -1.1476 -1.1988
 8413TIP3    H225197   2.243   7.578   0.334  0.7952 -0.0281  0.6325
 8414TIP3   OH225198   5.275   7.755   4.560 -0.0611  0.7801 -0.1331
 8414TIP3    H125199   5.210   7.817   4.593 -2.6349 -0.8691 -1.7472
 8414TIP3    H225200   5.336   7.809   4.510 -1.0740  2.2453  0.1262
 8415TIP3   OH225201   1.183   1.410   2.967  0.2116 -0.6071 -0.6368
 8415TIP3    H125202   1.180   1.476   3.037  0.4517 -1.1582 -0.0985
 8415TIP3    H225203   1.224   1.455   2.893  0.9513 -0.3407 -0.0696
 8416TIP3   OH225204   8.233   6.772   5.176 -0.4086  0.0768  0.7266
 8416TIP3    H125205   8.268   6.753   5.263 -0.8151 -0.9416  0.6897
 8416TIP3    H225206   8.301   6.741   5.116  1.1360  3.2684  0.6186
 8417TIP3   OH225207   7.698   0.635   4.119  0.5524  0.7712 -0.0249
 8417TIP3    H125208   7.649   0.553   4.124  0.5169  0.8212  0.5238
 8417TIP3    H225209   7.680   0.678   4.202  2.5621  0.2092  0.7642
 8418TIP3   OH225210   0.744   0.329   1.823 -0.0608  0.1397  0.5705
 8418TIP3    H125211   0.649   0.319   1.810 -0.5376  1.3236  2.7721
 8418TIP3    H225212   0.765   0.269   1.894  0.7382  0.3167  0.4898
 8419TIP3   OH225213   3.918   4.729   5.333 -0.2875  0.2171  0.1874
 8419TIP3    H125214   3.842   4.698   5.382  0.7164 -0.9336  1.0888
 8419TIP3    H225215   3.971   4.651   5.318  1.1204  1.0983  0.3164
 8420TIP3   OH225216   7.841   4.013   1.055  0.3364  0.3610 -0.2692
 8420TIP3    H125217   7.922   4.004   1.005  0.4514  0.6222 -0.1319
 8420TIP3    H225218   7.849   3.947   1.125  1.3441  1.7166  0.9541
 8421TIP3   OH225219   3.422   2.335   4.014 -0.5948  0.5067  0.1621
 8421TIP3    H125220   3.419   2.303   3.924 -1.3400 -1.6590  0.8960
 8421TIP3    H225221   3.357   2.405   4.017  0.8593  2.0534 -1.4191
 8422TIP3   OH225222   7.903   4.452   4.060  0.3998  0.0683 -0.5084
 8422TIP3    H125223   7.998   4.444   4.050  0.2955  0.2101 -1.8727
 8422TIP3    H225224   7.889   4.543   4.087  0.7280 -0.3951  1.3663
 8423TIP3   OH225225   0.463   1.229   3.887  0.0414 -0.6568 -0.5469
 8423TIP3    H125226   0.528   1.246   3.955 -0.5203 -1.7562  0.3057
 8423TIP3    H225227   0.505   1.165   3.830  0.3437 -0.0780 -0.9729
 8424TIP3   OH225228   3.452   1.423   5.579  0.1933  0.6888  0.1918
 8424TIP3    H125229   3.369   1.412   5.532  1.0601 -1.8005 -0.9575
 8424TIP3    H225230   3.491   1.501   5.542 -1.2793  1.4720  0.2143
 8425TIP3   OH225231   7.779   7.053   4.307 -0.4374 -0.4623 -0.1205
 8425TIP3    H125232   7.819   7.052   4.394  0.1655 -0.4649 -0.3951
 8425TIP3    H225233   7.746   6.964   4.295  0.9371 -0.9331 -0.5568
 8426TIP3   OH225234   1.324   6.019   1.519  0.5353 -0.2681 -0.0597
 8426TIP3    H125235   1.254   5.974   1.567  0.6915 -0.4802 -0.0287
 8426TIP3    H225236   1.405   5.976   1.547  0.4829 -1.8246 -2.0460
 8427TIP3   OH225237   5.920   4.076   2.750 -0.0117 -0.1823  0.6353
 8427TIP3    H125238   5.955   3.999   2.795  0.7841 -0.5059 -0.5032
 8427TIP3    H225239   5.843   4.100   2.802  0.2728 -1.1620  1.5616
 8428TIP3   OH225240   6.712   2.539   1.379 -0.1534 -0.5257 -0.2226
 8428TIP3    H125241   6.791   2.501   1.342 -0.2838  1.0374 -2.2855
 8428TIP3    H225242   6.657   2.463   1.400  0.3712 -1.5725 -2.3358
 8429TIP3   OH225243   4.863   6.268   0.391 -0.3463  0.1150 -0.4683
 8429TIP3    H125244   4.837   6.211   0.319 -1.4724 -0.6379  0.4970
 8429TIP3    H225245   4.782   6.312   0.417 -0.0090  0.1727  0.5019
 8430TIP3   OH225246   1.153   4.589   1.863  0.5769 -0.2084  0.0771
 8430TIP3    H125247   1.124   4.568   1.774  0.9375 -0.5641  0.0422
 8430TIP3    H225248   1.079   4.565   1.919  0.5334 -0.4343 -0.0781
 8431TIP3   OH225249   6.181   6.558   5.910  0.0680  0.7153 -0.4450
 8431TIP3    H125250   6.108   6.556   5.848  0.2033  2.8068 -0.7275
 8431TIP3    H225251   6.162   6.632   5.967  1.0645  0.1558  0.6591
 8432TIP3   OH225252   4.810   2.627   1.189  0.0626  0.1118  0.1931
 8432TIP3    H125253   4.799   2.588   1.102 -1.0451  0.9374 -0.0497
 8432TIP3    H225254   4.830   2.552   1.246  2.2680 -0.2950 -0.9766
 8433TIP3   OH225255   5.288   4.839   0.461  0.0490  0.1655  0.0073
 8433TIP3    H125256   5.298   4.895   0.538  1.9553 -0.0363 -0.0580
 8433TIP3    H225257   5.214   4.877   0.413 -1.3184  0.1536  2.0161
 8434TIP3   OH225258   0.578   0.349   2.192  0.0554  0.0816 -0.4461
 8434TIP3    H125259   0.485   0.363   2.173 -0.2248 -1.1958 -0.0883
 8434TIP3    H225260   0.610   0.302   2.115  0.6237  1.2302 -0.9418
 8435TIP3   OH225261   8.017   6.375   2.283 -0.7123 -0.0027  0.1695
 8435TIP3    H125262   8.062   6.313   2.341 -1.4650 -0.1212  0.6384
 8435TIP3    H225263   8.004   6.453   2.336 -0.2805  0.3647 -0.2454
 8436TIP3   OH225264   5.846   1.946   2.773 -0.0196  0.0691  0.0713
 8436TIP3    H125265   5.851   2.035   2.738  1.5965  0.1753  0.5088
 8436TIP3    H225266   5.937   1.917   2.778 -0.2299 -0.3334  3.1406
 8437TIP3   OH225267   7.604   6.469   3.610  0.1238 -0.0429 -0.1406
 8437TIP3    H125268   7.559   6.476   3.525 -0.6695 -0.1460  0.2597
 8437TIP3    H225269   7.597   6.556   3.648 -2.9459 -0.8387  1.4753
 8438TIP3   OH225270   6.086   2.045   4.926  0.4444 -0.2530 -0.6693
 8438TIP3    H125271   6.099   2.023   5.018 -1.1486  2.9014  0.4966
 8438TIP3    H225272   6.174   2.062   4.892  0.9858 -0.4581  0.5829
 8439TIP3   OH225273   3.788   1.902   4.584 -0.2189 -0.5705 -0.2341
 8439TIP3    H125274   3.703   1.927   4.548 -0.8502  0.5192  1.8660
 8439TIP3    H225275   3.768   1.837   4.651  0.5264  0.0614  0.6261
 8440TIP3   OH225276   7.720   7.009   2.364  0.2388 -0.6185  0.2335
 8440TIP3    H125277   7.790   7.074   2.353 -0.5678  0.1113 -0.9051
 8440TIP3    H225278   7.643   7.050   2.325 -0.7077 -1.6191  0.9784
 8441TIP3   OH225279   1.923   3.887   4.518 -0.2136 -0.2605  0.4059
 8441TIP3    H125280   1.847   3.914   4.467 -0.3960  0.0887  0.8645
 8441TIP3    H225281   1.996   3.890   4.455 -0.4455  0.1164  0.1516
 8442TIP3   OH225282   7.462   6.339   1.082 -0.5490 -0.2513  0.1431
 8442TIP3    H125283   7.487   6.395   1.009 -1.0432  0.0578  0.2083
 8442TIP3    H225284   7.437   6.400   1.152  0.2957 -0.5413  0.7053
 8443TIP3   OH225285   2.793   0.541   0.562  0.0615  0.2632  0.6835
 8443TIP3    H125286   2.770   0.449   0.574 -2.6264  0.7266 -0.2837
 8443TIP3    H225287   2.889   0.541   0.556  0.1391 -2.4504  0.7969
 8444TIP3   OH225288   5.967   6.649   2.675  0.0337 -0.1752  0.0472
 8444TIP3    H125289   5.879   6.612   2.675 -0.0299 -0.0703 -1.3103
 8444TIP3    H225290   5.961   6.724   2.735 -0.6987 -0.3749  0.2367
 8445TIP3   OH225291   3.001   6.058   4.252  0.4901 -0.4731 -0.2341
 8445TIP3    H125292   3.036   5.976   4.286  0.9711 -1.4154 -2.7382
 8445TIP3    H225293   2.963   6.102   4.328  0.7647 -2.7140  1.2895
 8446TIP3   OH225294   5.847   4.137   3.801  0.7062  0.4114  0.2297
 8446TIP3    H125295   5.831   4.228   3.828  0.1792  0.4502 -0.1977
 8446TIP3    H225296   5.917   4.144   3.736 -0.7439  0.7581 -1.3650
 8447TIP3   OH225297   3.645   0.303   5.505  0.2439  0.3551  0.4099
 8447TIP3    H125298   3.694   0.223   5.489  0.0767  0.5748 -1.4416
 8447TIP3    H225299   3.705   0.373   5.483 -0.3955  0.6599 -0.4235
 8448TIP3   OH225300   2.515   2.619   5.992  0.1851  0.3225  0.2428
 8448TIP3    H125301   2.424   2.618   6.022 -0.2954 -0.6364 -1.1149
 8448TIP3    H225302   2.522   2.700   5.941 -0.1651 -0.0027 -0.3353
 8449TIP3   OH225303   8.131   1.333   0.392 -0.0266  0.0888 -0.6094
 8449TIP3    H125304   8.132   1.239   0.413  1.6643  0.0500 -0.7545
 8449TIP3    H225305   8.215   1.349   0.350 -0.3734  1.6532 -0.7670
 8450TIP3   OH225306   0.356   3.607   0.946  0.3923  0.3815  0.4799
 8450TIP3    H125307   0.316   3.581   1.029 -0.0898 -1.2250 -0.2265
 8450TIP3    H225308   0.373   3.525   0.900 -2.2667  1.2349 -2.3628
 8451TIP3   OH225309   4.623   6.796   0.022 -0.0088  0.0068 -0.7009
 8451TIP3    H125310   4.571   6.742   0.082  2.5661 -0.7376  1.0549
 8451TIP3    H225311   4.610   6.755  -0.064 -0.9614 -1.1858 -0.0222
 8452TIP3   OH225312   8.053   1.871   4.043 -0.0955 -0.5593 -0.0072
 8452TIP3    H125313   8.047   1.824   3.960 -2.5493 -1.2208  0.4781
 8452TIP3    H225314   8.136   1.843   4.080  0.0740 -1.8669 -1.2834
 8453TIP3   OH225315   1.571   3.271   5.790 -0.6783  0.1320 -0.7163
 8453TIP3    H125316   1.550   3.307   5.876 -0.7060 -1.7448  0.1123
 8453TIP3    H225317   1.508   3.311   5.731 -1.7243  0.2252  0.4282
 8454TIP3   OH225318   5.783   5.136   3.009  0.0895  0.2082  0.0629
 8454TIP3    H125319   5.759   5.197   3.078  2.8883  2.3203 -0.6608
 8454TIP3    H225320   5.853   5.180   2.961 -0.6301 -1.8080 -3.1876
 8455TIP3   OH225321   1.055   1.795   1.097  0.0057 -0.0197  0.5403
 8455TIP3    H125322   0.963   1.818   1.087 -0.1278 -1.3471 -2.6854
 8455TIP3    H225323   1.086   1.848   1.171 -2.9226  1.6654  0.6959
 8456TIP3   OH225324   6.417   3.473   2.508  0.0433  0.0709 -0.5184
 8456TIP3    H125325   6.422   3.430   2.423 -0.9191 -0.7017 -0.2002
 8456TIP3    H225326   6.468   3.554   2.497  1.8772 -1.1106 -1.1309
 8457TIP3   OH225327   6.202   4.835   0.549 -0.3713 -0.0748 -0.4385
 8457TIP3    H125328   6.148   4.907   0.517 -1.2894  0.2913  1.7702
 8457TIP3    H225329   6.191   4.837   0.644 -0.8235 -3.3921 -0.2974
 8458TIP3   OH225330   3.413   7.774   0.833  0.2970 -0.3832 -0.7240
 8458TIP3    H125331   3.473   7.739   0.767 -0.0760  0.1501 -1.3475
 8458TIP3    H225332   3.458   7.757   0.916  1.6351  0.5689 -1.2017
 8459TIP3   OH225333   1.954   1.252   0.525  0.2183 -0.3966 -0.5150
 8459TIP3    H125334   1.879   1.231   0.580  1.0967 -1.9400  0.1663
 8459TIP3    H225335   1.942   1.344   0.501 -0.3337  0.2428  2.0138
 8460TIP3   OH225336   1.190   3.839   5.834  0.0041  0.1698  0.1886
 8460TIP3    H125337   1.213   3.790   5.755 -2.8496  1.3388 -1.5163
 8460TIP3    H225338   1.247   3.916   5.831  1.4193 -0.8110  0.5241
 8461TIP3   OH225339   3.038   0.698   5.836 -0.1140  0.9418  0.5447
 8461TIP3    H125340   2.993   0.655   5.763  0.5503  0.7641  0.2310
 8461TIP3    H225341   2.993   0.667   5.914  0.4902 -0.5375  0.3491
 8462TIP3   OH225342   4.752   7.089   4.865 -0.2677  0.1092 -0.0580
 8462TIP3    H125343   4.820   7.081   4.932  1.6033  0.0469 -1.8677
 8462TIP3    H225344   4.704   7.006   4.870  1.8058 -1.2250 -0.7688
 8463TIP3   OH225345   7.227   0.166   1.242 -0.2121 -0.7652 -0.6323
 8463TIP3    H125346   7.273   0.174   1.159  0.7865 -2.4034 -0.2799
 8463TIP3    H225347   7.143   0.125   1.220  0.5449 -2.3269 -0.7241
 8464TIP3   OH225348   2.114   2.502   5.881 -0.1040 -0.2953  0.5218
 8464TIP3    H125349   2.144   2.414   5.900  0.8202  0.2802  1.9233
 8464TIP3    H225350   2.020   2.493   5.866  0.1051 -1.6020 -0.0942
 8465TIP3   OH225351   3.339   4.524   5.940  0.5581 -0.3084  0.1203
 8465TIP3    H125352   3.319   4.573   6.019 -2.5790  0.2829 -0.9152
 8465TIP3    H225353   3.339   4.589   5.870  0.1644 -1.2179 -0.7607
 8466TIP3   OH225354   7.519   2.176   5.305 -0.4813  0.0762  0.6973
 8466TIP3    H125355   7.526   2.245   5.370  2.1234  1.0132 -0.4322
 8466TIP3    H225356   7.592   2.117   5.325  0.4670  0.4558 -1.3767
 8467TIP3   OH225357   2.960   7.339   0.535 -0.2705  0.0843 -0.0941
 8467TIP3    H125358   3.013   7.259   0.532  0.0072  0.2732 -0.3218
 8467TIP3    H225359   2.883   7.315   0.587 -0.2228 -0.3515 -0.2164
 8468TIP3   OH225360   6.122   6.646   3.192  0.0249  0.2179  0.2428
 8468TIP3    H125361   6.197   6.588   3.203 -0.1949 -0.0938  0.1137
 8468TIP3    H225362   6.073   6.639   3.274 -0.5808 -0.6202 -0.1725
 8469TIP3   OH225363   5.248   5.499   5.875  0.0011 -0.0138 -0.0352
 8469TIP3    H125364   5.236   5.591   5.897  2.0830 -0.3739  3.1707
 8469TIP3    H225365   5.189   5.452   5.934  0.5826 -0.8120 -0.0693
 8470TIP3   OH225366   0.697   6.439   4.392  0.5016 -0.3034 -0.4407
 8470TIP3    H125367   0.790   6.452   4.412  0.0734 -0.2759  1.8178
 8470TIP3    H225368   0.665   6.384   4.463 -1.5501  1.0044 -0.2657
 8471TIP3   OH225369   1.508   1.358   0.147  0.1456 -0.1137 -0.4795
 8471TIP3    H125370   1.521   1.452   0.159  2.6358 -0.4916  0.3581
 8471TIP3    H225371   1.564   1.335   0.074 -1.7194 -0.7475 -1.7961
 8472TIP3   OH225372   1.731   6.012   3.717 -0.0391 -0.1211 -0.2622
 8472TIP3    H125373   1.678   6.065   3.657  0.6794  0.2960 -0.5270
 8472TIP3    H225374   1.731   5.925   3.677  0.9842  0.3014 -1.2391
 8473TIP3   OH225375   6.221   0.654   1.700 -0.1248  0.1958 -0.2649
 8473TIP3    H125376   6.236   0.587   1.766 -1.2914 -0.8933 -1.0735
 8473TIP3    H225377   6.180   0.726   1.748 -0.7906 -0.5062  0.2444
 8474TIP3   OH225378   4.051   5.086   6.218 -0.3381 -0.3108  1.0056
 8474TIP3    H125379   3.964   5.103   6.253 -0.7336 -0.7749  0.2627
 8474TIP3    H225380   4.101   5.052   6.293 -0.2670  1.5943  1.8806
 8475TIP3   OH225381   3.234   0.983   0.340 -0.7435  0.3750 -0.7310
 8475TIP3    H125382   3.140   0.994   0.350 -0.7441  0.5526 -0.9094
 8475TIP3    H225383   3.243   0.913   0.275 -0.7374 -1.4213  1.0975
 8476TIP3   OH225384   5.558   1.868   6.112 -0.3916 -0.0611 -0.5168
 8476TIP3    H125385   5.604   1.828   6.038 -1.6557 -1.1748 -0.7329
 8476TIP3    H225386   5.468   1.877   6.082 -0.4873  1.4028  0.1648
 8477TIP3   OH225387   0.829   6.692   1.661 -0.1157 -0.1703  0.1784
 8477TIP3    H125388   0.765   6.699   1.590 -1.0198  0.5580  1.0401
 8477TIP3    H225389   0.914   6.701   1.617 -0.4340 -3.1171 -1.2601
 8478TIP3   OH225390   4.697   2.841   5.126 -0.3338 -0.0745 -0.3082
 8478TIP3    H125391   4.667   2.931   5.111  0.3508 -0.0788 -1.9632
 8478TIP3    H225392   4.637   2.787   5.074 -0.9617 -0.6248  0.9585
 8479TIP3   OH225393   4.526   2.277   0.384 -0.2561  0.0595  0.2732
 8479TIP3    H125394   4.507   2.315   0.470  0.2965 -0.1730  0.5062
 8479TIP3    H225395   4.452   2.302   0.329 -0.0574  1.2275  0.5004
 8480TIP3   OH225396   1.255   3.242   1.276 -0.6514 -0.3672  0.3043
 8480TIP3    H125397   1.292   3.328   1.256 -0.8782 -0.8738 -2.6629
 8480TIP3    H225398   1.331   3.184   1.280 -0.5438 -0.1775  1.8488
 8481TIP3   OH225399   7.716   6.389   6.599  0.3287 -0.5077 -0.1849
 8481TIP3    H125400   7.736   6.407   6.691 -2.0621 -1.6938  0.6493
 8481TIP3    H225401   7.636   6.438   6.582  0.6177 -0.4823 -1.5850
 8482TIP3   OH225402   3.494   0.249   2.476 -0.0950  0.0727 -0.6586
 8482TIP3    H125403   3.421   0.267   2.415 -1.6169 -1.9337  0.4460
 8482TIP3    H225404   3.486   0.317   2.543  1.6786  2.3916 -2.6182
 8483TIP3   OH225405   0.802   7.331   6.420  0.3964  0.1284 -0.3279
 8483TIP3    H125406   0.825   7.327   6.513  1.9503  1.6076 -0.5761
 8483TIP3    H225407   0.829   7.246   6.385 -0.0215 -0.3684  0.5328
 8484TIP3   OH225408   1.225   1.738   5.523  0.3839 -0.3256 -0.0161
 8484TIP3    H125409   1.170   1.663   5.500  0.3463 -0.6563  1.1081
 8484TIP3    H225410   1.279   1.707   5.595 -0.0715  0.9140  0.8942
 8485TIP3   OH225411   4.913   1.432   2.639 -0.4033 -0.0591  0.1679
 8485TIP3    H125412   5.004   1.407   2.655  0.3231  1.9011 -0.6977
 8485TIP3    H225413   4.875   1.440   2.727  1.1753  2.2000  0.7326
 8486TIP3   OH225414   4.364   3.751   3.568  0.1558  0.6499 -0.5966
 8486TIP3    H125415   4.363   3.843   3.596 -1.8074  0.2042  1.0909
 8486TIP3    H225416   4.379   3.702   3.649 -0.2086 -0.5428 -1.2371
 8487TIP3   OH225417   2.713   6.350   4.451 -0.3718 -0.3493 -0.1026
 8487TIP3    H125418   2.626   6.321   4.421 -0.7399 -2.2720  2.4761
 8487TIP3    H225419   2.695   6.426   4.506 -0.4654 -0.7950  0.4956
 8488TIP3   OH225420   6.144   1.663   6.384  0.4751  0.4001 -0.1974
 8488TIP3    H125421   6.194   1.686   6.306  1.2061 -1.2587 -0.2520
 8488TIP3    H225422   6.182   1.581   6.414 -1.6050 -0.4425  0.3032
 8489TIP3   OH225423   0.210   1.834   2.504  0.4234  0.5356  0.3859
 8489TIP3    H125424   0.157   1.828   2.583  2.0849 -2.0207  1.4435
 8489TIP3    H225425   0.294   1.796   2.529  1.1485 -0.0074 -2.5247
 8490TIP3   OH225426   1.114   5.931   2.769 -0.0146  0.4926  0.2521
 8490TIP3    H125427   1.064   5.964   2.844 -1.0355  2.4356 -1.1824
 8490TIP3    H225428   1.078   5.978   2.694 -1.4258 -3.8327 -2.0602
 8491TIP3   OH225429   7.206   2.777   1.371 -0.0053  0.2183  0.1356
 8491TIP3    H125430   7.243   2.813   1.452 -1.7573  1.0971  0.5952
 8491TIP3    H225431   7.209   2.682   1.384  2.5444  0.1807 -0.1162
 8492TIP3   OH225432   2.599   0.789   6.331  0.1466 -0.1642 -0.1356
 8492TIP3    H125433   2.640   0.722   6.277  1.7270 -0.3928  1.2891
 8492TIP3    H225434   2.509   0.757   6.345 -0.0750 -0.4617 -1.9365
 8493TIP3   OH225435   1.856   6.555   6.202 -0.0946  0.4867 -0.1602
 8493TIP3    H125436   1.851   6.484   6.139  2.6907  1.8274 -2.1440
 8493TIP3    H225437   1.862   6.634   6.148  1.6761  1.7838  1.7832
 8494TIP3   OH225438   2.157   7.533   5.637 -0.6343 -0.0535  0.6559
 8494TIP3    H125439   2.246   7.529   5.672  0.1518  0.3429 -1.1578
 8494TIP3    H225440   2.101   7.532   5.714  0.8983 -1.1920  1.8240
 8495TIP3   OH225441   3.553   6.213   5.202  0.0054 -0.1782  0.0098
 8495TIP3    H125442   3.625   6.183   5.147 -1.1933 -1.3382 -1.0049
 8495TIP3    H225443   3.577   6.302   5.226  1.0432  0.0315 -1.6101
 8496TIP3   OH225444   8.044   5.916   4.413  0.2226 -0.6175  0.1131
 8496TIP3    H125445   8.050   6.006   4.446  0.9104 -0.4102 -0.5610
 8496TIP3    H225446   7.991   5.870   4.479  0.7374  0.0268  1.0032
 8497TIP3   OH225447   1.663   6.006   2.523 -0.1472 -0.1091 -0.2805
 8497TIP3    H125448   1.744   6.008   2.575 -0.8901 -1.6885  1.0535
 8497TIP3    H225449   1.602   6.063   2.570  0.1641  1.0974 -1.2966
 8498TIP3   OH225450   4.984   5.123   5.912  0.0561 -0.3975  0.0757
 8498TIP3    H125451   5.021   5.062   5.975  1.0496  0.2975  0.1829
 8498TIP3    H225452   5.058   5.150   5.858 -0.0916  1.6634  0.8171
 8499TIP3   OH225453   7.774   5.535   2.017 -0.3264  0.3236 -0.6573
 8499TIP3    H125454   7.841   5.569   2.077  0.7432 -1.6339 -0.6758
 8499TIP3    H225455   7.802   5.564   1.931 -0.1539  0.5096 -0.5407
 8500TIP3   OH225456   1.684   0.219   3.953 -0.0192  0.2296 -0.0874
 8500TIP3    H125457   1.680   0.130   3.919  0.1470 -0.2385  1.0674
 8500TIP3    H225458   1.776   0.233   3.975 -0.1577  0.4178  0.3970
 8501TIP3   OH225459   1.526   1.149   2.720 -0.1554 -0.6699  0.8984
 8501TIP3    H125460   1.433   1.135   2.700  0.1508 -1.7668  0.1410
 8501TIP3    H225461   1.530   1.238   2.755 -1.3864 -0.3536  0.2852
 8502TIP3   OH225462   5.247   4.662   2.682 -0.4240 -0.5570  0.0337
 8502TIP3    H125463   5.201   4.737   2.645  0.3176 -0.3512 -0.5077
 8502TIP3    H225464   5.206   4.586   2.642 -0.9580 -0.4244  0.3259
 8503TIP3   OH225465   4.151   2.251   2.653 -0.2636 -0.3628 -0.2253
 8503TIP3    H125466   4.122   2.168   2.614 -1.0282 -0.9255  1.4386
 8503TIP3    H225467   4.098   2.260   2.732  1.6596  0.3747  1.0512
 8504TIP3   OH225468   2.662   7.090   3.783 -0.3909  0.5659  0.0578
 8504TIP3    H125469   2.755   7.087   3.761 -0.8951  0.4062 -2.3849
 8504TIP3    H225470   2.658   7.063   3.875  1.9539  0.6057  0.2412
 8505TIP3   OH225471   0.595   5.043   6.110 -0.2446  0.0658  0.3081
 8505TIP3    H125472   0.557   5.130   6.095 -1.3920 -0.3822  0.5254
 8505TIP3    H225473   0.680   5.046   6.066 -0.6488  1.0069 -0.4415
 8506TIP3   OH225474   6.486   0.504   1.924 -0.8149  0.2425  0.5971
 8506TIP3    H125475   6.443   0.445   1.862 -0.3872  0.6565 -0.0920
 8506TIP3    H225476   6.444   0.483   2.008 -2.1691  0.4334  0.0004
 8507TIP3   OH225477   6.791   0.773   2.331  0.7936 -0.3559  0.3607
 8507TIP3    H125478   6.821   0.749   2.418  0.3621  1.5115  1.0819
 8507TIP3    H225479   6.828   0.707   2.273  4.5375  0.5905  1.4263
 8508TIP3   OH225480   2.212   4.218   2.220  0.0535  0.1931  0.5460
 8508TIP3    H125481   2.208   4.221   2.125  0.1901  2.1891  0.5607
 8508TIP3    H225482   2.124   4.243   2.248 -0.1827 -1.0516  0.9606
 8509TIP3   OH225483   7.161   7.207   1.648  0.1106 -0.2079  0.2161
 8509TIP3    H125484   7.159   7.273   1.716 -0.8876  0.9001 -0.8367
 8509TIP3    H225485   7.239   7.155   1.667  0.1777  0.4211  1.8394
 8510TIP3   OH225486   2.387   0.783   5.568  0.7280  0.4411  0.3027
 8510TIP3    H125487   2.382   0.867   5.615  0.9870 -0.3367  1.7941
 8510TIP3    H225488   2.480   0.759   5.572  0.6250 -0.0040  0.0704
 8511TIP3   OH225489   4.479   0.330   2.966 -0.9250 -0.3810  0.4243
 8511TIP3    H125490   4.557   0.345   3.019 -0.6205 -0.5901  0.0421
 8511TIP3    H225491   4.407   0.326   3.029 -0.9648  2.0778  0.6420
 8512TIP3   OH225492   2.675   6.849   0.262  0.8830 -0.0932  0.0688
 8512TIP3    H125493   2.713   6.837   0.175  0.4494 -1.8582  0.0859
 8512TIP3    H225494   2.686   6.943   0.281  0.4838  0.4441 -2.1131
 8513TIP3   OH225495   2.376   0.185   3.649 -0.2652 -0.3040 -0.1056
 8513TIP3    H125496   2.356   0.115   3.711 -0.7422 -0.3467 -0.3034
 8513TIP3    H225497   2.302   0.186   3.589 -0.0452  0.0704 -0.3776
 8514TIP3   OH225498   6.450   1.356   3.321 -0.5860  0.0601 -0.1461
 8514TIP3    H125499   6.432   1.327   3.231 -1.1070 -1.1821  0.3398
 8514TIP3    H225500   6.369   1.396   3.351 -0.5681  0.0354 -0.0640
 8515TIP3   OH225501   7.696   1.560   5.322  0.7184 -0.2573 -0.4918
 8515TIP3    H125502   7.644   1.616   5.381  1.2582  0.6970 -0.9137
 8515TIP3    H225503   7.666   1.583   5.234  0.6544 -0.9391 -0.6562
 8516TIP3   OH225504   1.235   0.143   1.675 -0.2677  0.3425 -0.3997
 8516TIP3    H125505   1.253   0.168   1.766 -0.1657 -2.4304  0.4221
 8516TIP3    H225506   1.144   0.115   1.674  0.1222 -1.0212 -0.7678
 8517TIP3   OH225507   3.240   6.434   0.777  0.6836 -0.1907 -0.3167
 8517TIP3    H125508   3.285   6.517   0.792 -1.2706  0.7514  0.5832
 8517TIP3    H225509   3.185   6.450   0.701  0.8305 -0.9066 -0.5787
 8518TIP3   OH225510   4.739   2.691   6.529  0.2050 -0.1397  0.6346
 8518TIP3    H125511   4.790   2.696   6.447  0.3289  0.0904  0.7242
 8518TIP3    H225512   4.733   2.782   6.558 -2.0298  0.1353 -0.4594
 8519TIP3   OH225513   3.576   7.037   6.591  0.4164 -0.4344  0.1177
 8519TIP3    H125514   3.560   6.948   6.559 -0.0610 -0.5916  0.7785
 8519TIP3    H225515   3.506   7.090   6.553 -0.1207 -0.6116  0.8323
 8520TIP3   OH225516   4.957   7.044   0.246  0.7097  0.0144  0.3771
 8520TIP3    H125517   4.960   7.131   0.206 -1.0630 -0.7841 -1.6721
 8520TIP3    H225518   5.043   7.033   0.287  0.5844  3.1592  1.7147
 8521TIP3   OH225519   6.489   4.628   5.569 -0.4047 -0.5848  0.2657
 8521TIP3    H125520   6.414   4.580   5.533 -0.4706 -0.2587 -0.0369
 8521TIP3    H225521   6.454   4.674   5.645 -0.7410  0.3125 -0.4152
 8522TIP3   OH225522   1.928   6.651   2.853  0.1655  0.5518  0.0202
 8522TIP3    H125523   1.833   6.642   2.857 -0.1917  2.7604 -1.4966
 8522TIP3    H225524   1.955   6.597   2.779 -0.0631  0.8578 -0.2856
 8523TIP3   OH225525   2.023   2.520   1.178 -0.4453  0.1418  0.1970
 8523TIP3    H125526   1.961   2.528   1.105 -0.0529  0.4319 -0.1169
 8523TIP3    H225527   2.012   2.431   1.210 -3.0613  1.0083  2.0253
 8524TIP3   OH225528   5.287   3.130   0.435 -0.1529  0.0001 -0.0271
 8524TIP3    H125529   5.306   3.036   0.436 -1.2700 -0.2330  0.6738
 8524TIP3    H225530   5.212   3.140   0.493  0.5860  1.4665  0.7354
 8525TIP3   OH225531   4.145   4.479   4.457 -0.5622  0.5487 -0.1241
 8525TIP3    H125532   4.062   4.432   4.447  0.1749 -0.6975 -0.5552
 8525TIP3    H225533   4.206   4.413   4.490  0.6450  1.0645 -1.2499
 8526TIP3   OH225534   5.368   3.628   1.277  0.1806  0.4313  0.8435
 8526TIP3    H125535   5.454   3.590   1.260  0.1951  0.9574 -0.3087
 8526TIP3    H225536   5.315   3.555   1.310  0.1708 -0.6510 -1.4144
 8527TIP3   OH225537   2.861   0.226   0.823  0.2026 -0.5116 -0.0862
 8527TIP3    H125538   2.920   0.178   0.764  0.2353 -1.1790  0.4712
 8527TIP3    H225539   2.919   0.269   0.885  0.1166 -1.3692  0.6143
 8528TIP3   OH225540   7.949   2.199   5.244 -0.5760  0.3415  0.2189
 8528TIP3    H125541   7.893   2.245   5.307  0.3229 -0.4122  1.6094
 8528TIP3    H225542   7.960   2.111   5.280  1.0245  0.2932 -0.2954
 8529TIP3   OH225543   3.575   3.770   6.205 -0.4757 -0.4816  0.2799
 8529TIP3    H125544   3.571   3.865   6.218 -0.2146 -0.2195 -1.4138
 8529TIP3    H225545   3.666   3.753   6.180 -0.5719 -1.1638  0.3780
 8530TIP3   OH225546   2.962   7.693   0.937 -0.2743 -0.5294  0.3226
 8530TIP3    H125547   2.931   7.633   1.005  1.4520 -2.3818 -0.4171
 8530TIP3    H225548   2.928   7.657   0.855  0.2596 -0.1446 -0.0756
 8531TIP3   OH225549   5.151   4.894   1.653  0.3227 -0.1813 -0.0031
 8531TIP3    H125550   5.167   4.960   1.586 -0.6558 -2.0428 -2.1987
 8531TIP3    H225551   5.068   4.921   1.694  0.7934  0.8253  0.3089
 8532TIP3   OH225552   6.205   6.531   3.462 -0.3055  0.1035  0.3452
 8532TIP3    H125553   6.288   6.558   3.501  0.1397 -1.2062  0.3498
 8532TIP3    H225554   6.229   6.464   3.398 -1.3247 -0.0503  0.1093
 8533TIP3   OH225555   7.968   4.965   2.431 -0.6704  0.1225 -0.2800
 8533TIP3    H125556   7.931   4.890   2.478 -1.6032  0.9165  0.3017
 8533TIP3    H225557   7.931   4.959   2.343 -1.4017  0.3434  0.0043
 8534TIP3   OH225558   0.240   5.457   4.307  0.4179  0.1034  0.8306
 8534TIP3    H125559   0.237   5.364   4.284  2.4974  0.0018  0.7725
 8534TIP3    H225560   0.151   5.489   4.291  0.2931 -1.2608 -1.8263
 8535TIP3   OH225561   1.963   4.248   5.557 -0.5078 -0.7510  0.3504
 8535TIP3    H125562   1.972   4.278   5.467 -3.5592  1.1043  0.5225
 8535TIP3    H225563   2.025   4.302   5.606 -0.4747 -0.1311 -0.3523
 8536TIP3   OH225564   0.077   1.005   0.510 -0.9767  0.3800  0.3629
 8536TIP3    H125565  -0.007   1.006   0.555 -1.1123  2.0173  0.1085
 8536TIP3    H225566   0.056   1.012   0.417 -0.5783  0.1468  0.2484
 8537TIP3   OH225567   7.387   5.240   6.423  0.0101  0.5309 -0.2561
 8537TIP3    H125568   7.424   5.178   6.360  1.4490  1.1309 -0.0478
 8537TIP3    H225569   7.329   5.295   6.371 -0.1045 -0.0312 -0.7328
 8538TIP3   OH225570   2.151   5.215   2.896  0.0825 -0.0619 -0.2708
 8538TIP3    H125571   2.130   5.166   2.976 -0.5716  0.0775 -0.3494
 8538TIP3    H225572   2.180   5.301   2.928  2.3263 -0.8238 -0.0785
 8539TIP3   OH225573   0.871   2.258   5.265 -0.4656 -0.0425 -0.0829
 8539TIP3    H125574   0.909   2.179   5.226  0.1474  0.3102 -0.2250
 8539TIP3    H225575   0.863   2.319   5.191 -0.3209  0.2480  0.1380
 8540TIP3   OH225576   1.623   3.207   3.367  0.5714  0.0959  0.1128
 8540TIP3    H125577   1.645   3.145   3.297 -0.0850 -0.8630  0.7396
 8540TIP3    H225578   1.530   3.223   3.357  0.9971  2.3033 -1.0511
 8541TIP3   OH225579   5.532   2.774   2.177  0.1403  0.2979 -0.7822
 8541TIP3    H125580   5.572   2.860   2.186  0.7963 -0.1756  1.4792
 8541TIP3    H225581   5.438   2.790   2.184  0.2667  0.8235 -0.1506
 8542TIP3   OH225582   2.863   5.569   2.733  0.2729  0.0449  0.0127
 8542TIP3    H125583   2.831   5.658   2.751  2.2776  0.7880  0.1772
 8542TIP3    H225584   2.948   5.582   2.692  0.9692 -1.8196  0.7604
 8543TIP3   OH225585   3.135   2.042   0.393 -0.1795  0.3054 -0.0926
 8543TIP3    H125586   3.179   2.052   0.309 -1.5961  3.0259 -0.6154
 8543TIP3    H225587   3.052   2.000   0.372 -0.7470  1.4265 -0.1791
 8544TIP3   OH225588   4.498   6.533   0.041 -0.4734 -0.0411  0.4008
 8544TIP3    H125589   4.526   6.460  -0.013 -1.0960  0.4921 -0.6782
 8544TIP3    H225590   4.441   6.494   0.107 -0.3801 -0.5881  0.1631
 8545TIP3   OH225591   3.274   2.036   0.763 -0.5607  0.4173 -0.2949
 8545TIP3    H125592   3.362   2.050   0.796 -0.5849 -1.1378  0.4978
 8545TIP3    H225593   3.216   2.065   0.833 -0.6251 -1.2773  0.3973
 8546TIP3   OH225594   0.550   6.714   5.754  0.2432  0.4632  0.5082
 8546TIP3    H125595   0.529   6.634   5.802  1.0740  0.1257  0.3266
 8546TIP3    H225596   0.468   6.738   5.710 -0.5713  0.8553  2.1755
 8547TIP3   OH225597   1.382   3.798   2.815  0.2495  0.0108 -0.1750
 8547TIP3    H125598   1.322   3.837   2.879  0.9717 -1.6597  1.6029
 8547TIP3    H225599   1.464   3.846   2.827  0.5847 -0.7497  0.6739
 8548TIP3   OH225600   2.892   2.656   0.909  0.2337 -0.3340 -0.6567
 8548TIP3    H125601   2.905   2.748   0.887 -0.3018  0.4475  1.9844
 8548TIP3    H225602   2.799   2.641   0.896  0.1020 -0.1463  0.0146
 8549TIP3   OH225603   3.287   1.662   3.959  0.2402  0.2973  0.3686
 8549TIP3    H125604   3.353   1.656   3.890  0.1553 -0.0618  0.3180
 8549TIP3    H225605   3.328   1.715   4.027  0.6796 -0.1412  0.4486
 8550TIP3   OH225606   4.864   5.067   4.983  0.9021 -0.0461 -0.0172
 8550TIP3    H125607   4.872   5.063   4.888  1.5942 -0.3145  0.0452
 8550TIP3    H225608   4.793   5.130   4.998 -0.0089 -0.8656 -0.7238
 8551TIP3   OH225609   4.153   4.836   4.999  0.0969 -0.4029 -0.6857
 8551TIP3    H125610   4.176   4.786   4.920 -0.2836 -0.5806 -0.6901
 8551TIP3    H225611   4.236   4.850   5.044  0.6804  1.7301 -2.2773
 8552TIP3   OH225612   4.691   2.488   2.442 -0.5457  0.2884 -0.1590
 8552TIP3    H125613   4.760   2.529   2.389 -0.0134 -1.3618 -0.8411
 8552TIP3    H225614   4.677   2.548   2.514 -0.2108  1.9080 -1.3762
 8553TIP3   OH225615   4.304   1.007   4.741  0.3000 -1.1030  0.3718
 8553TIP3    H125616   4.361   0.939   4.777 -0.0250 -2.4287 -1.4493
 8553TIP3    H225617   4.277   0.973   4.656 -0.8192  0.8234 -0.1141
 8554TIP3   OH225618   4.065   4.640   0.146 -1.2755 -0.2689  0.3117
 8554TIP3    H125619   4.070   4.636   0.050  0.9244 -2.7679  0.4277
 8554TIP3    H225620   3.977   4.610   0.167 -0.1785 -5.1039 -0.9101
 8555TIP3   OH225621   7.438   4.879   4.533 -0.0114 -0.3593 -0.3641
 8555TIP3    H125622   7.471   4.927   4.457 -0.0912 -0.7082 -0.6186
 8555TIP3    H225623   7.373   4.939   4.572 -0.5028 -0.4744 -0.9924
 8556TIP3   OH225624   0.462   2.536   0.653 -0.5154 -0.4138 -0.2318
 8556TIP3    H125625   0.513   2.558   0.575 -1.6183  1.1113 -0.5859
 8556TIP3    H225626   0.422   2.452   0.633  0.0312 -0.5246 -0.8943
 8557TIP3   OH225627   0.774   5.854   5.998  0.4852 -0.1641 -0.0874
 8557TIP3    H125628   0.754   5.858   5.904  0.2247  0.9337 -0.0010
 8557TIP3    H225629   0.701   5.900   6.040  0.8924 -0.1302  0.6056
 8558TIP3   OH225630   2.862   2.522   0.193 -0.4812 -0.4848  0.8100
 8558TIP3    H125631   2.837   2.441   0.239  0.5030 -0.8446  0.7347
 8558TIP3    H225632   2.876   2.494   0.102 -1.0395 -0.0434  0.5850
 8559TIP3   OH225633   4.839   7.070   4.169  0.6671  0.3725 -0.0945
 8559TIP3    H125634   4.884   7.054   4.252  1.4931 -0.1653 -0.6332
 8559TIP3    H225635   4.757   7.022   4.177  0.6825  0.4282  0.4539
 8560TIP3   OH225636   6.786   2.848   3.255 -0.0233 -0.1129  0.4610
 8560TIP3    H125637   6.738   2.852   3.337 -0.3934 -2.8365  0.4517
 8560TIP3    H225638   6.864   2.795   3.275 -0.8279 -2.0342 -1.1994
 8561TIP3   OH225639   3.284   7.293   2.984 -0.1893  0.1796  0.0845
 8561TIP3    H125640   3.339   7.357   2.939 -1.4510  2.3763  1.5376
 8561TIP3    H225641   3.197   7.332   2.985 -1.4242 -2.3093 -0.3774
 8562TIP3   OH225642   0.751   4.665   4.058 -0.4497  0.1630 -0.4418
 8562TIP3    H125643   0.812   4.737   4.039  0.7195 -0.3724  1.0779
 8562TIP3    H225644   0.801   4.606   4.115 -2.2624 -0.5397  0.4770
 8563TIP3   OH225645   7.881   3.928   6.050 -0.3824 -0.1264 -0.2524
 8563TIP3    H125646   7.818   3.898   6.115 -0.4273 -3.7810 -1.7258
 8563TIP3    H225647   7.964   3.933   6.097 -1.0730  1.2692  0.8970
 8564TIP3   OH225648   1.907   0.302   1.382 -0.0689 -0.1835 -0.4522
 8564TIP3    H125649   1.815   0.283   1.399 -0.0454 -0.4072 -0.5642
 8564TIP3    H225650   1.928   0.251   1.304  0.9467 -2.5989  1.2664
 8565TIP3   OH225651   7.372   5.768   2.456  0.0822  0.6817  0.4829
 8565TIP3    H125652   7.307   5.700   2.472 -0.2862  0.8802 -0.1207
 8565TIP3    H225653   7.445   5.745   2.512 -0.9273  1.0415  1.9928
 8566TIP3   OH225654   2.364   5.663   4.991 -0.2240  0.4025 -0.4163
 8566TIP3    H125655   2.292   5.709   5.033  1.6886  1.0374  2.3931
 8566TIP3    H225656   2.425   5.733   4.964  2.1360 -0.1862  2.8057
 8567TIP3   OH225657   1.334   1.816   2.873  0.2686 -0.0694 -0.4021
 8567TIP3    H125658   1.326   1.742   2.813 -3.5985  0.6356 -0.9999
 8567TIP3    H225659   1.421   1.853   2.853  0.3314 -1.5607 -3.5448
 8568TIP3   OH225660   3.726   4.605   1.429  0.0814 -0.3691 -0.3126
 8568TIP3    H125661   3.710   4.649   1.512  0.0952  1.7133 -1.3422
 8568TIP3    H225662   3.821   4.611   1.416  0.0363 -0.3545 -0.6498
 8569TIP3   OH225663   7.970   1.237   0.994 -0.1916  0.0507 -0.1770
 8569TIP3    H125664   7.947   1.145   1.005  2.4028 -0.6830 -0.0327
 8569TIP3    H225665   7.980   1.271   1.083 -0.0016  0.1158 -0.2210
 8570TIP3   OH225666   0.658   5.137   2.351  0.7192  0.0439  0.1924
 8570TIP3    H125667   0.678   5.225   2.383  4.3749 -0.4049 -0.4305
 8570TIP3    H225668   0.687   5.078   2.420  0.9905 -0.7213 -0.5477
 8571TIP3   OH225669   4.356   7.038   0.576  0.2231 -0.3773  0.0595
 8571TIP3    H125670   4.424   7.013   0.638  0.9307 -0.1006 -0.5859
 8571TIP3    H225671   4.297   6.963   0.573  1.8637 -1.7017 -1.2314
 8572TIP3   OH225672   4.250   1.384   4.274 -0.5155  0.0505 -0.5658
 8572TIP3    H125673   4.295   1.447   4.331 -0.6401 -0.7069  0.4103
 8572TIP3    H225674   4.295   1.301   4.290  0.5260  0.1081 -2.8363
 8573TIP3   OH225675   1.639   2.299   0.831  0.2832 -0.1014 -0.5651
 8573TIP3    H125676   1.710   2.248   0.870 -2.0289 -1.0605  2.8064
 8573TIP3    H225677   1.570   2.235   0.812 -1.3508  1.2354  0.5120
 8574TIP3   OH225678   6.634   3.035   5.475 -0.4243  0.0193 -0.0590
 8574TIP3    H125679   6.693   3.009   5.405 -0.0925  0.3183  0.1051
 8574TIP3    H225680   6.691   3.052   5.550 -0.7817 -0.3757  0.3088
 8575TIP3   OH225681   5.998   1.667   5.238 -0.1708 -0.0700  0.4550
 8575TIP3    H125682   5.921   1.618   5.265 -0.7104 -0.8767 -2.2260
 8575TIP3    H225683   6.066   1.601   5.226 -0.4874 -0.0793 -1.7581
 8576TIP3   OH225684   1.876   0.819   1.903 -0.4966 -0.0218 -0.0634
 8576TIP3    H125685   1.819   0.894   1.919  0.4180  0.9072 -0.9804
 8576TIP3    H225686   1.960   0.845   1.940  0.1933 -0.0126 -1.5376
 8577TIP3   OH225687   4.595   0.071   2.476  0.1998  0.0976  0.3538
 8577TIP3    H125688   4.554   0.013   2.413 -0.7631  0.0704  0.9772
 8577TIP3    H225689   4.535   0.072   2.551  1.1170  0.4304  1.1113
 8578TIP3   OH225690   2.924   0.265   2.328  0.4802  0.8544 -0.5297
 8578TIP3    H125691   3.007   0.280   2.373 -0.2798  0.2883  1.1543
 8578TIP3    H225692   2.947   0.260   2.235  2.4965 -0.3973 -0.0273
 8579TIP3   OH225693   4.970   0.793   4.267 -0.0736 -0.3840 -0.1960
 8579TIP3    H125694   4.879   0.769   4.253 -0.1051 -0.0585 -0.5583
 8579TIP3    H225695   4.969   0.855   4.339 -0.2791  0.5842 -1.0077
 8580TIP3   OH225696   5.413   0.007   5.888 -0.1010 -0.2093  0.3189
 8580TIP3    H125697   5.443  -0.042   5.812  0.3080  0.0655  0.3002
 8580TIP3    H225698   5.483   0.069   5.906 -0.2247 -0.2214  0.8746
 8581TIP3   OH225699   5.954   0.912   2.684 -0.0499 -0.0373 -0.2374
 8581TIP3    H125700   5.864   0.894   2.711 -0.4468  0.5427 -1.1356
 8581TIP3    H225701   6.008   0.857   2.741 -0.7804  1.6414  2.2459
 8582TIP3   OH225702   0.243   3.457   6.380 -0.1673  0.1447 -0.3065
 8582TIP3    H125703   0.281   3.513   6.448 -0.6385  1.3231 -0.9937
 8582TIP3    H225704   0.204   3.518   6.318 -2.4248 -0.9821 -0.0866
 8583TIP3   OH225705   3.052   2.148   5.428  0.1990  0.0373  0.1886
 8583TIP3    H125706   3.100   2.174   5.350  1.2736  0.7428  1.0456
 8583TIP3    H225707   3.051   2.052   5.426  0.6673  0.0451 -0.4211
 8584TIP3   OH225708   0.713   2.794   5.047 -0.0848 -0.3078 -0.1139
 8584TIP3    H125709   0.807   2.809   5.044 -0.3662  1.8771  0.2574
 8584TIP3    H225710   0.675   2.863   4.993 -1.5754  0.3707  1.6824
 8585TIP3   OH225711   5.162   0.137   0.114  0.2871 -0.3718 -0.3157
 8585TIP3    H125712   5.205   0.221   0.102  0.7450 -0.6680 -0.8400
 8585TIP3    H225713   5.085   0.141   0.057 -0.3193  0.1058  0.5163
 8586TIP3   OH225714   4.046   1.269   0.394  0.6162  0.1369 -0.4521
 8586TIP3    H125715   4.115   1.221   0.349  1.6292 -0.7457  1.8718
 8586TIP3    H225716   3.998   1.202   0.442  0.3019  1.1231  0.6592
 8587TIP3   OH225717   4.429   5.289   5.368 -0.0854  0.1583 -0.3952
 8587TIP3    H125718   4.440   5.199   5.400  0.0373  0.8657  1.6905
 8587TIP3    H225719   4.512   5.332   5.388 -0.7133  1.1520  0.1207
 8588TIP3   OH225720   3.054   2.617   2.652  0.3586  0.1484  0.2748
 8588TIP3    H125721   3.032   2.584   2.565  2.1670 -1.3864  0.3294
 8588TIP3    H225722   3.015   2.705   2.655 -2.2280 -0.8644 -0.9502
 8589TIP3   OH225723   2.003   1.537   6.348 -0.2220 -0.4003  0.8357
 8589TIP3    H125724   1.944   1.554   6.274 -0.1502 -1.9282  0.3949
 8589TIP3    H225725   2.090   1.534   6.309 -0.0087  0.3450  1.2441
 8590TIP3   OH225726   5.829   7.723   1.528 -0.4002  0.2016 -0.5034
 8590TIP3    H125727   5.848   7.630   1.537 -1.4025 -0.1086 -1.3992
 8590TIP3    H225728   5.743   7.734   1.568  0.3226  1.0377  0.9092
 8591TIP3   OH225729   1.260   1.370   6.715  0.4337  0.0499 -0.2321
 8591TIP3    H125730   1.217   1.386   6.799 -0.7112 -0.1189 -0.7624
 8591TIP3    H225731   1.250   1.275   6.701  0.4114  0.1119 -0.6550
 8592TIP3   OH225732   2.080  -0.017   0.872  0.4257 -0.4543 -0.0474
 8592TIP3    H125733   2.038   0.052   0.820 -1.1760  0.5206  2.3596
 8592TIP3    H225734   2.173  -0.011   0.850  0.0617  1.1513 -1.3509
 8593TIP3   OH225735   1.105   5.069   1.735  0.3696 -0.5678 -0.5454
 8593TIP3    H125736   1.096   5.093   1.827  3.3750  0.9705 -0.5446
 8593TIP3    H225737   1.043   5.126   1.689 -1.8133 -1.9590  0.4891
 8594TIP3   OH225738   5.237   1.952   2.981 -0.3886  0.2472 -0.3431
 8594TIP3    H125739   5.215   2.032   2.933 -2.4264  0.3052  0.5903
 8594TIP3    H225740   5.269   1.892   2.914 -0.9561  1.1011 -1.4126
 8595TIP3   OH225741   5.607   5.589   5.945 -0.3602 -0.0912  0.2218
 8595TIP3    H125742   5.559   5.542   5.877  0.7405 -1.5130  0.3898
 8595TIP3    H225743   5.547   5.591   6.020 -1.2467  0.7321 -0.4834
 8596TIP3   OH225744   7.648   2.461   3.010  0.6994 -0.1413  0.4069
 8596TIP3    H125745   7.651   2.443   3.104 -2.7327  0.0379  0.6899
 8596TIP3    H225746   7.681   2.381   2.969  1.1715 -0.6571  1.7423
 8597TIP3   OH225747   4.722   5.645   2.145 -0.6464 -0.0750  0.4932
 8597TIP3    H125748   4.801   5.591   2.146  0.2709  1.2160  0.2491
 8597TIP3    H225749   4.659   5.597   2.199  0.6122 -0.6739  1.4724
 8598TIP3   OH225750   1.045   0.420   3.690  0.4745 -0.0064  0.1791
 8598TIP3    H125751   1.053   0.466   3.607  1.2242  0.6292  0.5915
 8598TIP3    H225752   1.087   0.335   3.676 -3.3095 -1.8774 -1.4576
 8599TIP3   OH225753   3.235   2.449   0.395 -0.0991  0.0217  0.5145
 8599TIP3    H125754   3.324   2.444   0.430 -0.4172 -0.8183  1.2251
 8599TIP3    H225755   3.193   2.368   0.424 -0.3896 -0.7650 -1.8299
 8600TIP3   OH225756   2.732   5.235   4.399 -0.3572  0.1115 -0.4925
 8600TIP3    H125757   2.665   5.167   4.401  0.1066 -0.5157  3.8638
 8600TIP3    H225758   2.813   5.188   4.377 -0.2643 -0.6078  1.1985
 8601TIP3   OH225759   6.598   4.970   0.979  0.3648  0.6775  0.6141
 8601TIP3    H125760   6.679   4.973   0.930 -0.5083 -0.1385 -0.9589
 8601TIP3    H225761   6.608   4.895   1.038  0.4129 -0.0153 -0.2538
 8602TIP3   OH225762   3.566   0.461   0.290 -0.2083 -0.1524 -0.7527
 8602TIP3    H125763   3.585   0.369   0.270  0.0977 -0.3561  0.4083
 8602TIP3    H225764   3.652   0.499   0.309 -0.3991  0.2298 -0.6468
 8603TIP3   OH225765   4.773   1.583   5.949  0.2868  0.0102  0.9834
 8603TIP3    H125766   4.774   1.490   5.973 -1.6014 -0.5320 -0.7313
 8603TIP3    H225767   4.705   1.589   5.881  1.3332  2.3984  0.0429
 8604TIP3   OH225768   4.059   5.520   3.349 -0.6215 -0.0657 -0.9765
 8604TIP3    H125769   4.034   5.587   3.285  1.2523 -0.5178 -2.2705
 8604TIP3    H225770   4.013   5.441   3.320 -2.9082  0.5536  0.6042
 8605TIP3   OH225771   6.629   4.031   6.157 -0.0044 -0.4403  0.2014
 8605TIP3    H125772   6.644   4.124   6.171  1.6508 -0.5834 -0.4074
 8605TIP3    H225773   6.684   4.008   6.082  0.8618 -2.2269  1.3167
 8606TIP3   OH225774   4.707   4.604   2.100 -0.0314 -0.3043  0.2770
 8606TIP3    H125775   4.741   4.646   2.021 -0.4675 -0.8058 -0.1847
 8606TIP3    H225776   4.668   4.675   2.150 -0.2663 -0.0666 -0.2342
 8607TIP3   OH225777   1.322   0.887   2.492  0.5918  0.4213  0.2365
 8607TIP3    H125778   1.235   0.903   2.528  0.1425 -1.7257  0.2681
 8607TIP3    H225779   1.382   0.898   2.566  0.0083 -0.8317  0.9315
 8608TIP3   OH225780   7.284   1.724   5.378  0.5230 -0.8879  0.3842
 8608TIP3    H125781   7.193   1.695   5.365  0.2082 -0.2567  1.0641
 8608TIP3    H225782   7.336   1.669   5.320 -0.3582 -0.8879 -0.4271
 8609TIP3   OH225783   7.895   0.628   3.273  0.1807  0.8297 -0.1699
 8609TIP3    H125784   7.834   0.559   3.298 -0.0869  1.0151 -0.3017
 8609TIP3    H225785   7.954   0.587   3.210 -0.0951  0.7694 -0.3897
 8610TIP3   OH225786   3.759   4.525   6.588 -0.0569 -0.2223  0.1301
 8610TIP3    H125787   3.722   4.586   6.652 -1.8349 -1.6492  0.5420
 8610TIP3    H225788   3.852   4.521   6.610 -0.6627 -1.0051  2.9999
 8611TIP3   OH225789   4.276   2.588   4.220 -0.1690  0.2581  0.1534
 8611TIP3    H125790   4.248   2.678   4.237 -0.6477  0.5657 -1.9637
 8611TIP3    H225791   4.280   2.582   4.124 -0.3729 -2.0477  0.2388
 8612TIP3   OH225792   7.772   2.941   1.148 -0.2705  0.6051  0.4383
 8612TIP3    H125793   7.862   2.972   1.141 -0.0424  0.2148  1.4124
 8612TIP3    H225794   7.779   2.855   1.190 -0.9055 -0.6931 -1.9089
 8613TIP3   OH225795   7.058   3.539   4.919  0.4641 -0.0148  0.6805
 8613TIP3    H125796   7.060   3.493   4.834  1.0263  0.1864  0.5799
 8613TIP3    H225797   7.110   3.484   4.977  1.3001  0.5887  0.5092
 8614TIP3   OH225798   4.571   3.974   0.973 -0.8896 -0.3226  0.1510
 8614TIP3    H125799   4.649   3.949   1.021  0.3238  0.3019 -1.4092
 8614TIP3    H225800   4.584   4.066   0.951 -1.6541 -0.4337 -0.8484
 8615TIP3   OH225801   4.256   0.574   3.375  0.3975 -0.5209  0.1536
 8615TIP3    H125802   4.179   0.538   3.331  0.9430 -2.9572  1.0557
 8615TIP3    H225803   4.247   0.669   3.364 -4.0659 -0.4022  2.3642
 8616TIP3   OH225804   0.217   6.847   3.463  0.1867 -0.6035  0.1651
 8616TIP3    H125805   0.231   6.764   3.418  0.1085 -0.7923  0.4796
 8616TIP3    H225806   0.221   6.914   3.394  2.7291 -0.5979  0.2071
 8617TIP3   OH225807   0.495   4.279   6.207  0.5935 -0.2417 -0.0229
 8617TIP3    H125808   0.437   4.244   6.274  0.2539 -0.8583 -0.6311
 8617TIP3    H225809   0.503   4.372   6.228  0.0358 -0.3166  0.5329
 8618TIP3   OH225810   3.802   5.990   4.119  0.0293 -0.2714  0.0815
 8618TIP3    H125811   3.795   6.015   4.210 -1.2364  0.9699 -0.3276
 8618TIP3    H225812   3.881   6.035   4.087  0.7953 -1.1569  0.6682
 8619TIP3   OH225813   5.012   7.071   2.210 -0.2063 -0.1070  0.2139
 8619TIP3    H125814   4.997   7.061   2.304  1.6855 -0.0925  0.5650
 8619TIP3    H225815   4.925   7.072   2.171 -1.0017 -1.6977  1.8013
 8620TIP3   OH225816   6.701   2.726   5.272 -0.2667 -0.0273  0.2133
 8620TIP3    H125817   6.752   2.806   5.257 -0.3538  0.2308  1.2197
 8620TIP3    H225818   6.758   2.655   5.241 -0.0799  0.3942 -0.4429
 8621TIP3   OH225819   2.464   5.211   1.955  0.1493  0.2962  0.0230
 8621TIP3    H125820   2.538   5.261   1.922  2.9725 -1.9521  2.3911
 8621TIP3    H225821   2.475   5.123   1.917 -2.3111  0.2776 -0.8316
 8622TIP3   OH225822   7.317   5.812   1.750  0.3846  0.1193 -0.6884
 8622TIP3    H125823   7.318   5.808   1.654 -1.2360 -0.7674 -0.7003
 8622TIP3    H225824   7.347   5.726   1.778  0.6027  0.2877 -0.4038
 8623TIP3   OH225825   2.867   0.192   3.399 -0.1358 -0.4687  0.7632
 8623TIP3    H125826   2.823   0.113   3.365 -0.9622  0.7803 -1.2440
 8623TIP3    H225827   2.819   0.265   3.359  0.8649  1.0634  2.2428
 8624TIP3   OH225828   7.327   7.779   1.207 -0.8809  0.2339  0.3329
 8624TIP3    H125829   7.306   7.759   1.116 -1.7956 -0.7728  0.7481
 8624TIP3    H225830   7.392   7.850   1.202 -1.9561  1.1610 -1.0699
 8625TIP3   OH225831   4.000   6.466   0.129  0.1484  0.0669  0.1000
 8625TIP3    H125832   4.047   6.393   0.171 -2.7419 -1.5073  0.8520
 8625TIP3    H225833   3.994   6.440   0.037  1.0158  0.4865 -0.0939
 8626TIP3   OH225834   3.977   7.657   5.066  0.3275 -0.2545 -0.2427
 8626TIP3    H125835   3.976   7.640   5.161 -0.3034  1.5625  0.1134
 8626TIP3    H225836   4.069   7.664   5.043  0.4601  1.1465  0.6244
 8627TIP3   OH225837   3.288   6.822   2.826  0.2686 -0.5937  0.4684
 8627TIP3    H125838   3.247   6.885   2.884 -0.3466 -0.6503  0.1083
 8627TIP3    H225839   3.323   6.754   2.884 -0.2757 -0.6177  0.7710
 8628TIP3   OH225840   3.320   5.779   5.111 -0.1629 -0.2158  0.2774
 8628TIP3    H125841   3.245   5.773   5.052  0.3225 -0.6856 -0.2995
 8628TIP3    H225842   3.338   5.873   5.116  0.1920 -0.2071 -0.8535
 8629TIP3   OH225843   3.385   5.712   6.469  0.3119 -0.2876 -0.0691
 8629TIP3    H125844   3.318   5.667   6.417 -1.1435 -0.3885  1.7601
 8629TIP3    H225845   3.463   5.713   6.414 -1.1566 -0.2733 -2.2676
 8630TIP3   OH225846   3.321   5.713   4.270 -0.7889 -0.0109  0.9891
 8630TIP3    H125847   3.361   5.789   4.228 -1.7953 -0.8104 -1.6288
 8630TIP3    H225848   3.395   5.664   4.305  0.3781 -0.1217 -1.4150
 8631TIP3   OH225849   6.183   4.982   5.191  0.2445  0.2478  0.5257
 8631TIP3    H125850   6.146   4.961   5.277 -0.0417 -0.1574  0.3056
 8631TIP3    H225851   6.152   5.071   5.172  1.2136  0.7745  1.3299
 8632TIP3   OH225852   3.615   7.790   5.671  0.1316 -0.0965  0.1669
 8632TIP3    H125853   3.698   7.760   5.635  0.1075 -1.3370  1.0636
 8632TIP3    H225854   3.632   7.803   5.765 -0.3809  0.7896  0.1432
 8633TIP3   OH225855   6.671   2.345   2.396 -0.1941  0.2884 -0.0859
 8633TIP3    H125856   6.734   2.373   2.463 -1.4373  1.2141  0.7650
 8633TIP3    H225857   6.724   2.323   2.320  1.3963 -2.0772  1.5855
 8634TIP3   OH225858   6.363   1.749   0.567  0.0764  0.4582  0.5144
 8634TIP3    H125859   6.343   1.835   0.604 -0.6352 -0.2002  1.7179
 8634TIP3    H225860   6.329   1.753   0.478 -0.7787  1.1165  0.8550
 8635TIP3   OH225861   5.744   5.389   1.677  0.0006  0.2018 -0.0347
 8635TIP3    H125862   5.752   5.483   1.659  0.1809  0.4594  1.2908
 8635TIP3    H225863   5.771   5.380   1.768  0.4041 -1.2084 -0.2733
 8636TIP3   OH225864   7.703   1.782   3.539  0.4673  0.2763  0.2501
 8636TIP3    H125865   7.796   1.763   3.554 -0.0616 -1.5407  1.4881
 8636TIP3    H225866   7.667   1.700   3.504 -0.2474  1.6473 -2.6005
 8637TIP3   OH225867   3.338   3.094   5.420  0.5779 -0.2274  0.1279
 8637TIP3    H125868   3.256   3.102   5.371 -1.0508  0.8332  2.8143
 8637TIP3    H225869   3.385   3.023   5.377 -1.6301 -0.7210 -1.6503
 8638TIP3   OH225870   3.122   6.387   6.253  0.0013 -0.6324 -0.1231
 8638TIP3    H125871   3.206   6.343   6.240 -0.8785 -2.0145 -1.4301
 8638TIP3    H225872   3.057   6.317   6.247 -1.2435  0.3432  1.2872
 8639TIP3   OH225873   0.894   5.848   4.410  0.5997 -0.2376  0.2066
 8639TIP3    H125874   0.906   5.757   4.435 -0.8733 -0.3122  0.7341
 8639TIP3    H225875   0.818   5.847   4.351 -1.0598  0.9003  2.2011
 8640TIP3   OH225876   2.937   6.453   4.728 -0.1536  0.0072 -0.3317
 8640TIP3    H125877   2.962   6.460   4.820 -0.1256 -1.5680 -0.1798
 8640TIP3    H225878   2.842   6.457   4.729 -0.1512  0.0510 -0.2372
 8641TIP3   OH225879   1.495   4.264   2.491 -0.1060 -0.5804 -0.1142
 8641TIP3    H125880   1.444   4.221   2.559  1.7758 -1.7097  0.6683
 8641TIP3    H225881   1.532   4.193   2.439 -0.9052  0.2520 -1.8889
 8642TIP3   OH225882   6.755   0.369   1.451  0.1549  0.4134 -0.0072
 8642TIP3    H125883   6.664   0.355   1.423 -0.4941 -0.1370  2.1175
 8642TIP3    H225884   6.758   0.462   1.476  0.7366  0.9087 -1.8085
 8643TIP3   OH225885   7.149   6.696   4.164  0.3342 -0.1718 -0.1675
 8643TIP3    H125886   7.136   6.707   4.258 -2.4998 -0.3399 -0.4399
 8643TIP3    H225887   7.135   6.783   4.128 -1.5413 -0.6214 -0.6240
 8644TIP3   OH225888   7.128   0.518   3.610  0.1531  0.3373 -0.6620
 8644TIP3    H125889   7.196   0.472   3.561  0.7967  0.4120  0.1152
 8644TIP3    H225890   7.124   0.605   3.570  0.2183  0.1952 -0.9794
 8645TIP3   OH225891   0.219   5.422   6.176  0.0291 -0.1733 -0.2368
 8645TIP3    H125892   0.251   5.454   6.260 -0.4783 -2.3065  0.8329
 8645TIP3    H225893   0.127   5.399   6.192  0.0841 -1.1797 -1.1856
 8646TIP3   OH225894   8.078   5.182   1.074  0.5227 -0.2468 -0.2389
 8646TIP3    H125895   8.091   5.264   1.026  3.8313 -2.1961 -3.2058
 8646TIP3    H225896   8.157   5.174   1.129  0.7175 -1.7761 -0.6858
 8647TIP3   OH225897   3.871   7.402   2.990  0.1483 -0.1662 -0.3368
 8647TIP3    H125898   3.874   7.491   3.027 -0.8649 -0.4857  0.5601
 8647TIP3    H225899   3.866   7.416   2.895 -0.5971  0.7633 -0.1839
 8648TIP3   OH225900   6.655   5.811   5.814  0.3727  0.0097  0.0314
 8648TIP3    H125901   6.680   5.728   5.774  0.7876 -0.4258  1.1499
 8648TIP3    H225902   6.614   5.787   5.897 -2.2004  0.7938 -0.8995
 8649TIP3   OH225903   3.314   1.764   0.907  0.2825  0.5172  0.3944
 8649TIP3    H125904   3.222   1.779   0.930  0.2308  0.0121  0.5388
 8649TIP3    H225905   3.350   1.851   0.892 -0.5881  0.6773 -1.0488
 8650TIP3   OH225906   8.054   4.981   3.200  0.2350  0.5012 -0.7003
 8650TIP3    H125907   8.135   4.959   3.245 -0.3695  0.8251  0.5698
 8650TIP3    H225908   8.080   5.047   3.135  0.7774  1.6246  0.6098
 8651TIP3   OH225909   1.781   5.989   2.764 -0.5209 -0.3474 -0.1737
 8651TIP3    H125910   1.735   6.039   2.830 -2.0527 -1.1329 -0.6010
 8651TIP3    H225911   1.871   6.021   2.768 -0.5326 -0.4161  2.3208
 8652TIP3   OH225912   1.290   6.955   3.816  0.2795 -0.0596  0.6200
 8652TIP3    H125913   1.360   6.891   3.825  0.4553  0.2041  1.1510
 8652TIP3    H225914   1.335   7.039   3.808  0.0502  0.0034 -0.0453
 8653TIP3   OH225915   5.256   7.760   5.487  0.3042  0.1039 -0.0606
 8653TIP3    H125916   5.196   7.690   5.515  0.7401 -0.3994 -0.3678
 8653TIP3    H225917   5.343   7.722   5.495  0.6142  0.9377  0.6766
 8654TIP3   OH225918   6.748   7.426   1.233  0.0266  0.3129  1.0714
 8654TIP3    H125919   6.837   7.450   1.255  0.3645 -0.4196  0.5707
 8654TIP3    H225920   6.757   7.350   1.174 -0.9189  0.1525  1.1032
 8655TIP3   OH225921   3.455   6.316   0.926  0.2233 -0.0605 -0.6192
 8655TIP3    H125922   3.440   6.347   1.016  2.1594  0.0116 -0.2766
 8655TIP3    H225923   3.404   6.376   0.871 -0.4402  0.3133  0.3742
 8656TIP3   OH225924   6.188   7.616   4.690  0.7926  0.2692 -0.7983
 8656TIP3    H125925   6.161   7.634   4.599  1.6278 -1.5721 -1.4526
 8656TIP3    H225926   6.106   7.600   4.737  0.1749  3.1773 -0.6965
 8657TIP3   OH225927   8.253   3.768   4.651  0.1001  0.3999  0.4113
 8657TIP3    H125928   8.344   3.771   4.680  0.1548 -0.8337  0.4404
 8657TIP3    H225929   8.235   3.856   4.618  1.9443  0.1712 -1.4395
 8658TIP3   OH225930   1.260   3.037   2.792 -0.7299  0.0615  0.3981
 8658TIP3    H125931   1.205   2.990   2.855 -1.1418  0.4675  0.3445
 8658TIP3    H225932   1.313   3.096   2.846 -1.5311  0.8666  0.3280
 8659TIP3   OH225933   2.340   2.904   4.867 -0.0531  0.0136  0.2104
 8659TIP3    H125934   2.326   2.939   4.779  0.5820  1.5659  0.6950
 8659TIP3    H225935   2.319   2.811   4.859  1.2532 -0.1821 -1.8919
 8660TIP3   OH225936   4.203   5.333   2.197  0.2408  0.2859  0.0339
 8660TIP3    H125937   4.295   5.360   2.192 -0.3684  2.5125 -0.1079
 8660TIP3    H225938   4.202   5.264   2.263  1.8979  0.8135  0.6625
 8661TIP3   OH225939   5.643   0.805   4.410 -0.2196  0.3390 -0.1134
 8661TIP3    H125940   5.602   0.886   4.441  0.5108  0.0366  1.7728
 8661TIP3    H225941   5.578   0.737   4.429 -0.9786  0.4813 -2.0180
 8662TIP3   OH225942   7.134   3.410   0.898  0.2596 -0.3380 -0.3363
 8662TIP3    H125943   7.085   3.442   0.823  2.1403 -0.0455 -1.5251
 8662TIP3    H225944   7.147   3.488   0.953  1.4222  0.1402 -1.2405
 8663TIP3   OH225945   7.444   0.610   5.240 -0.2943  0.3649  0.4990
 8663TIP3    H125946   7.351   0.614   5.217  0.2702 -1.1431 -2.5861
 8663TIP3    H225947   7.488   0.660   5.171  1.3587 -1.7120 -0.0513
 8664TIP3   OH225948   1.809   2.062   5.323  0.1456 -0.9687 -0.0468
 8664TIP3    H125949   1.717   2.074   5.347  0.1380 -1.5007  0.2128
 8664TIP3    H225950   1.848   2.149   5.334 -0.1477 -0.9183  0.6363
 8665TIP3   OH225951   1.338   5.781   4.747 -0.4711  0.1194  0.0433
 8665TIP3    H125952   1.345   5.856   4.687  1.2622  0.3616  0.4876
 8665TIP3    H225953   1.304   5.710   4.692  1.5624  0.1818 -1.4439
 8666TIP3   OH225954   7.021   7.116   3.478  0.2326 -0.4889 -0.1406
 8666TIP3    H125955   7.115   7.135   3.484  0.0736  0.6168 -0.7774
 8666TIP3    H225956   7.013   7.024   3.501  1.5501 -0.7413 -0.6083
 8667TIP3   OH225957   8.167   4.786   5.340 -0.0873  0.4305 -0.5633
 8667TIP3    H125958   8.196   4.810   5.428 -1.2147  0.1939 -0.1121
 8667TIP3    H225959   8.248   4.765   5.293  0.4436 -0.6693  0.7769
 8668TIP3   OH225960   8.060   4.587   5.086  0.5639  0.3848  0.3569
 8668TIP3    H125961   8.151   4.619   5.089 -0.0587  2.4717  4.7134
 8668TIP3    H225962   8.068   4.492   5.093  2.3890  0.4259 -0.4929
 8669TIP3   OH225963   3.003   6.794   1.449  0.9048  0.1430  0.4825
 8669TIP3    H125964   2.934   6.825   1.392 -0.6740 -1.1032  1.6199
 8669TIP3    H225965   3.084   6.827   1.410 -0.2985  1.4197 -1.0262
 8670TIP3   OH225966   2.635   0.455   5.545 -0.2681  0.3594  0.0390
 8670TIP3    H125967   2.693   0.396   5.593  1.0834  2.7275  1.5097
 8670TIP3    H225968   2.549   0.440   5.584  0.0315 -0.5993  0.3760
 8671TIP3   OH225969   5.311   1.298   5.878 -0.3250 -0.2026 -0.3009
 8671TIP3    H125970   5.352   1.279   5.963 -1.9942  1.3079  0.9141
 8671TIP3    H225971   5.243   1.231   5.869 -0.2661 -0.2528 -0.3737
 8672TIP3   OH225972   3.559   6.809   2.407  0.1547  0.2729 -0.2352
 8672TIP3    H125973   3.517   6.755   2.473  0.1132 -0.3732 -0.7760
 8672TIP3    H225974   3.549   6.759   2.325 -0.2819  1.2993 -0.8318
 8673TIP3   OH225975   5.991   3.250   6.110 -0.1851 -0.0694  0.0274
 8673TIP3    H125976   5.964   3.187   6.044  0.5145 -1.4220  0.9903
 8673TIP3    H225977   6.070   3.291   6.074 -0.1400 -0.3833 -0.2309
 8674TIP3   OH225978   0.040   2.261   4.873 -0.0830 -0.1916  0.4303
 8674TIP3    H125979   0.097   2.329   4.910  1.2038 -1.6395  1.2005
 8674TIP3    H225980  -0.038   2.262   4.929 -0.0452  0.5748  0.4868
 8675TIP3   OH225981   5.155   0.605   3.993  0.5733 -0.0897  0.3082
 8675TIP3    H125982   5.194   0.594   3.906  0.2524 -0.0528  0.1568
 8675TIP3    H225983   5.088   0.537   3.998 -1.0405  1.3581 -0.4184
 8676TIP3   OH225984   4.384   2.719   6.299 -0.2897  0.2719 -0.9999
 8676TIP3    H125985   4.301   2.694   6.339  0.4424 -0.4436  0.1266
 8676TIP3    H225986   4.425   2.777   6.363  1.4948 -1.9279 -0.0007
 8677TIP3   OH225987   1.499   4.691   4.092 -0.1255 -0.5377 -0.4004
 8677TIP3    H125988   1.590   4.662   4.095  0.0467 -0.3058 -2.4449
 8677TIP3    H225989   1.483   4.730   4.178  0.7406 -3.3141  1.1705
 8678TIP3   OH225990   5.780   4.912   0.905  0.1104  0.1379  0.5030
 8678TIP3    H125991   5.717   4.878   0.842  0.7470 -2.6191  1.1943
 8678TIP3    H225992   5.835   4.972   0.855 -1.7121  0.9763 -0.5960
 8679TIP3   OH225993   2.673   2.651   3.887  0.4877  0.2922  0.8956
 8679TIP3    H125994   2.673   2.593   3.811  0.4416  0.0379  1.0885
 8679TIP3    H225995   2.590   2.699   3.881  1.2921  1.6303 -0.2343
 8680TIP3   OH225996   2.409   6.781   0.465  0.1011  0.0646  0.2643
 8680TIP3    H125997   2.498   6.770   0.431  0.1486 -0.5993  0.5725
 8680TIP3    H225998   2.398   6.708   0.527 -0.3558  0.6250  0.8648
 8681TIP3   OH225999   2.303   5.259   3.948  0.2266  0.8550  0.0003
 8681TIP3    H126000   2.301   5.165   3.966  1.8020  0.8712  0.3705
 8681TIP3    H226001   2.222   5.276   3.899  0.2285 -0.8128 -0.6339
 8682TIP3   OH226002   1.085   7.792   1.681  0.2026 -0.0527  0.0226
 8682TIP3    H126003   1.170   7.827   1.708  0.4053  0.0451 -0.7329
 8682TIP3    H226004   1.103   7.701   1.657 -0.0535 -0.2565  0.5757
 8683TIP3   OH226005   2.010   7.055   6.680  0.0054  0.0582  0.1311
 8683TIP3    H126006   1.949   7.126   6.701  0.2163  1.1497 -2.6454
 8683TIP3    H226007   1.975   6.979   6.728 -0.7138  1.7461  2.4717
 8684TIP3   OH226008   2.953   0.873   1.185 -0.1790 -0.0665  0.5772
 8684TIP3    H126009   3.002   0.791   1.187  0.7808  0.4200 -1.0662
 8684TIP3    H226010   3.015   0.939   1.216 -0.0902  0.4029 -0.5450
 8685TIP3   OH226011   5.809   3.590   0.849 -0.3884 -0.0783  0.2112
 8685TIP3    H126012   5.858   3.671   0.859 -3.6479  2.2818 -1.1041
 8685TIP3    H226013   5.875   3.521   0.851  2.3739  2.3615  3.2898
 8686TIP3   OH226014   6.590   2.992   0.007 -0.1394 -0.1239  0.0880
 8686TIP3    H126015   6.595   3.086  -0.009 -1.5857  0.0333  0.4090
 8686TIP3    H226016   6.499   2.976   0.030  0.0642 -1.6219 -0.0049
 8687TIP3   OH226017   3.713   3.453   5.506 -0.6027 -0.5517 -0.0369
 8687TIP3    H126018   3.620   3.470   5.518 -0.5359  0.2410 -0.5469
 8687TIP3    H226019   3.739   3.403   5.583 -1.4534 -0.8128  0.0905
 8688TIP3   OH226020   5.822   4.698   0.041 -0.4621 -0.0495  0.4267
 8688TIP3    H126021   5.792   4.621  -0.008 -0.3730  0.5999 -0.6971
 8688TIP3    H226022   5.917   4.698   0.029 -0.3031 -0.5495  1.6240
 8689TIP3   OH226023   1.635   0.515   1.419 -0.3454  0.1581 -0.3619
 8689TIP3    H126024   1.599   0.537   1.334 -2.6058  2.9906  1.1619
 8689TIP3    H226025   1.714   0.568   1.426 -0.0213 -0.2645 -0.7539
 8690TIP3   OH226026   6.380   1.039   4.571  0.6457 -0.1921 -0.2314
 8690TIP3    H126027   6.408   1.122   4.610 -0.2792 -0.4709  1.0841
 8690TIP3    H226028   6.411   1.044   4.481  1.1239  1.3263 -0.0199
 8691TIP3   OH226029   7.635   2.006   4.954 -0.5247  0.4167 -0.3791
 8691TIP3    H126030   7.725   1.995   4.985 -0.5287  2.3716  0.5158
 8691TIP3    H226031   7.618   1.929   4.901  1.4803 -0.2871 -0.0886
 8692TIP3   OH226032   2.712   7.209   1.212  0.1279 -0.2800 -0.6016
 8692TIP3    H126033   2.745   7.223   1.124  0.3565 -3.4903 -1.1632
 8692TIP3    H226034   2.634   7.155   1.200 -0.3470 -0.0462  1.1322
 8693TIP3   OH226035   1.306   0.313   4.552  0.2858  0.5996 -0.8268
 8693TIP3    H126036   1.368   0.374   4.512  0.6924 -0.4945 -1.9537
 8693TIP3    H226037   1.305   0.337   4.644  1.1486  1.6894 -1.0758
 8694TIP3   OH226038   3.716   6.217   0.641 -0.0767  0.1821 -0.2492
 8694TIP3    H126039   3.671   6.184   0.719  1.4688 -0.7569  0.2813
 8694TIP3    H226040   3.719   6.142   0.581 -0.6179  0.6983 -0.9524
 8695TIP3   OH226041   7.383   0.522   1.747  0.2261  0.7888  0.5368
 8695TIP3    H126042   7.422   0.459   1.808  1.2988  2.2852  1.4387
 8695TIP3    H226043   7.453   0.539   1.683 -0.2740  0.6151 -0.0640
 8696TIP3   OH226044   1.150   4.790   1.572  0.5462 -0.6484  0.0684
 8696TIP3    H126045   1.063   4.816   1.604  0.4630  0.5029 -1.0087
 8696TIP3    H226046   1.204   4.783   1.651 -0.0308  0.6081  0.6033
 8697TIP3   OH226047   1.340   0.688   5.595 -0.3864 -0.0027 -0.1702
 8697TIP3    H126048   1.310   0.777   5.616  1.5630  1.1296 -1.7885
 8697TIP3    H226049   1.287   0.662   5.519 -1.3013 -0.4656  0.6060
 8698TIP3   OH226050   7.650   2.728   2.921  0.2594  0.6006  0.1952
 8698TIP3    H126051   7.591   2.757   2.990 -1.9272 -1.7867 -0.5235
 8698TIP3    H226052   7.632   2.635   2.911  2.1264  0.3808 -2.0731
 8699TIP3   OH226053   4.725   6.110   4.377  0.0181 -0.3292 -0.5133
 8699TIP3    H126054   4.712   6.141   4.287  0.7537  0.1527 -0.4643
 8699TIP3    H226055   4.671   6.032   4.384  1.3201 -1.4159 -1.9554
 8700TIP3   OH226056   4.281   6.670   6.190 -0.1197  0.1314  0.0072
 8700TIP3    H126057   4.288   6.653   6.284 -0.6172  2.8865  0.6223
 8700TIP3    H226058   4.205   6.618   6.162  0.8313 -1.7693  0.7733
 8701TIP3   OH226059   4.430   4.761   4.453 -0.1670 -0.3988  0.3896
 8701TIP3    H126060   4.436   4.795   4.364 -0.4609  2.2422  1.2665
 8701TIP3    H226061   4.339   4.733   4.462 -0.2375 -0.3069 -0.0090
 8702TIP3   OH226062   5.476   5.514   2.964  0.0864  0.0475 -0.1383
 8702TIP3    H126063   5.399   5.553   3.006  1.2630  1.0380  1.1730
 8702TIP3    H226064   5.441   5.437   2.919 -2.0822  1.7865 -1.6459
 8703TIP3   OH226065   1.005   1.809   6.126  0.1263 -0.1620  0.3158
 8703TIP3    H126066   1.077   1.805   6.063 -0.1832  0.6991 -0.1062
 8703TIP3    H226067   0.937   1.860   6.081 -0.8660 -1.2040  0.5894
 8704TIP3   OH226068   4.993   7.397   1.917  0.3524 -0.0021 -0.1507
 8704TIP3    H126069   4.952   7.389   2.003 -1.4118  2.1856 -0.7028
 8704TIP3    H226070   5.069   7.454   1.932  1.4126 -1.4603  0.2952
 8705TIP3   OH226071   0.246   6.489   6.372 -0.1556  0.1605 -0.0354
 8705TIP3    H126072   0.256   6.584   6.364 -0.5272  0.1268 -1.2762
 8705TIP3    H226073   0.193   6.476   6.451 -2.9112  1.2357 -1.5615
 8706TIP3   OH226074   6.548   2.457   3.650  0.0542 -0.2790 -0.1720
 8706TIP3    H126075   6.572   2.549   3.662 -1.2901  0.1902 -0.8203
 8706TIP3    H226076   6.540   2.447   3.555  1.0424 -1.3110 -0.1599
 8707TIP3   OH226077   3.938   7.698   2.327  0.0434 -0.0755 -0.4592
 8707TIP3    H126078   3.996   7.706   2.252  0.5352  0.3160 -0.0436
 8707TIP3    H226079   3.938   7.786   2.367 -1.5335  0.1930 -0.9702
 8708TIP3   OH226080   2.828   5.348   6.593 -0.3206 -0.6813  0.0523
 8708TIP3    H126081   2.763   5.413   6.568  0.6461  0.2193 -0.1683
 8708TIP3    H226082   2.801   5.268   6.548  0.1814  0.3581 -2.2321
 8709TIP3   OH226083   3.864   6.006   5.571 -0.3355 -0.4305  0.4886
 8709TIP3    H126084   3.799   5.994   5.502  0.0738  0.3496 -0.0459
 8709TIP3    H226085   3.831   6.080   5.622 -0.1824 -0.4304  0.5899
 8710TIP3   OH226086   2.507   6.775   3.336  0.2033 -0.5773  0.1853
 8710TIP3    H126087   2.544   6.690   3.310  0.7036 -0.3639  0.1776
 8710TIP3    H226088   2.534   6.787   3.427 -2.6598 -1.9212  1.3095
 8711TIP3   OH226089   7.307   1.633   4.218  0.1932 -0.2452 -0.0487
 8711TIP3    H126090   7.277   1.646   4.307 -0.8700 -0.6775 -0.3332
 8711TIP3    H226091   7.280   1.712   4.171  0.6953 -0.0457 -0.0117
 8712TIP3   OH226092   7.953   0.877   5.964 -0.0843  0.4219  0.2050
 8712TIP3    H126093   7.926   0.814   6.031  0.0230  0.3548  0.1851
 8712TIP3    H226094   7.928   0.836   5.881 -1.8968  1.2911  0.2658
 8713TIP3   OH226095   4.345   6.898   3.456 -0.2989  0.5044 -0.1755
 8713TIP3    H126096   4.281   6.876   3.524  0.0698 -0.2021 -0.0489
 8713TIP3    H226097   4.381   6.982   3.484 -0.0967  0.1843  0.5561
 8714TIP3   OH226098   1.979   5.484   4.722  0.3023 -0.0705 -0.4155
 8714TIP3    H126099   1.890   5.456   4.700 -0.7146  2.7467 -0.3436
 8714TIP3    H226100   2.020   5.501   4.637 -0.8142  2.8321 -0.4895
 8715TIP3   OH226101   4.243   6.174   0.779  0.0859 -0.5478  0.5302
 8715TIP3    H126102   4.151   6.171   0.753  0.1255  1.0397  0.1104
 8715TIP3    H226103   4.264   6.267   0.781  2.0135 -0.9259 -0.4919
 8716TIP3   OH226104   3.673   3.584   6.548 -0.5187  0.1624 -0.1397
 8716TIP3    H126105   3.698   3.528   6.474  0.7648  0.3087  0.1706
 8716TIP3    H226106   3.601   3.537   6.590 -1.6988  0.3647 -1.8231
 8717TIP3   OH226107   2.943   4.678   2.739  0.0965 -0.0269  0.1328
 8717TIP3    H126108   3.000   4.650   2.811  0.6769 -0.8384 -0.6081
 8717TIP3    H226109   2.952   4.608   2.673 -1.7651 -0.1845 -0.0104
 8718TIP3   OH226110   4.754   2.791   0.651 -0.2423 -0.0438  0.0578
 8718TIP3    H126111   4.706   2.776   0.570  1.2899 -1.6310 -0.6130
 8718TIP3    H226112   4.692   2.838   0.707 -0.9406  2.2616 -2.4221
 8719TIP3   OH226113   1.538   3.468   2.900  0.0792  0.0884  0.4649
 8719TIP3    H126114   1.562   3.434   2.814 -0.3969  1.9651 -0.4880
 8719TIP3    H226115   1.598   3.541   2.914 -0.0468 -0.0177  1.5966
 8720TIP3   OH226116   2.371   1.281   2.539  0.4421 -0.0112 -0.1155
 8720TIP3    H126117   2.361   1.186   2.541 -1.2309  0.1214 -0.6556
 8720TIP3    H226118   2.423   1.298   2.460  1.5778 -0.5048  0.4969
 8721TIP3   OH226119   1.151   2.398   4.577 -0.5105 -0.2312 -0.7135
 8721TIP3    H126120   1.219   2.449   4.621  0.8637  0.3901 -3.3590
 8721TIP3    H226121   1.083   2.463   4.557 -1.0477 -0.4758  0.2655
 8722TIP3   OH226122   0.733   0.655   3.005 -0.5158  0.2210  0.2460
 8722TIP3    H126123   0.817   0.699   3.014 -0.6968  0.4251  1.0154
 8722TIP3    H226124   0.668   0.726   3.010 -0.7674 -0.0261  0.4905
 8723TIP3   OH226125   6.509   6.267   6.578 -0.4378  0.0042  0.1417
 8723TIP3    H126126   6.435   6.327   6.580 -0.5443 -0.0607 -1.3238
 8723TIP3    H226127   6.480   6.191   6.629 -0.8551  0.5415  0.7240
 8724TIP3   OH226128   5.455   6.610   4.744 -0.6160  0.2442 -0.3562
 8724TIP3    H126129   5.488   6.552   4.813  2.9057 -1.2152 -2.9652
 8724TIP3    H226130   5.395   6.556   4.693  0.0728 -0.0667 -0.8490
 8725TIP3   OH226131   7.690   3.341   5.190  0.1931 -0.0555 -0.0809
 8725TIP3    H126132   7.656   3.421   5.230  0.1414 -0.5746  0.9467
 8725TIP3    H226133   7.783   3.340   5.214 -0.1446 -1.0928  1.2942
 8726TIP3   OH226134   2.577   1.726   0.012  0.5071  0.1629  0.0626
 8726TIP3    H126135   2.634   1.776   0.070 -0.7459 -0.8650  2.3129
 8726TIP3    H226136   2.602   1.635   0.027 -1.8967 -0.3579  1.4628
 8727TIP3   OH226137   3.925   2.337   1.654 -0.2743 -0.7182 -0.4831
 8727TIP3    H126138   3.980   2.407   1.619 -2.0445 -0.3825 -2.8311
 8727TIP3    H226139   3.972   2.306   1.732  2.0093  1.0848 -1.0380
 8728TIP3   OH226140   0.720   0.962   4.754  0.1116  0.6152  0.5377
 8728TIP3    H126141   0.814   0.960   4.775  0.0658  0.4814  0.7375
 8728TIP3    H226142   0.678   0.931   4.834 -0.1561  1.4621  0.7344
 8729TIP3   OH226143   2.359   5.723   0.888  0.3467 -0.4857 -0.0076
 8729TIP3    H126144   2.399   5.653   0.837  0.1703  0.2105 -1.1392
 8729TIP3    H226145   2.397   5.804   0.852 -0.7683  0.0921  0.0602
 8730TIP3   OH226146   5.111   3.369   5.878 -0.0789 -0.5033 -0.2062
 8730TIP3    H126147   5.205   3.373   5.862  0.0252 -1.9447 -0.0829
 8730TIP3    H226148   5.101   3.397   5.969 -0.0404  1.8453 -0.8612
 8731TIP3   OH226149   3.308   2.952   5.669  0.2221  0.4360 -0.3263
 8731TIP3    H126150   3.321   3.006   5.591  0.9467  1.4945  0.5008
 8731TIP3    H226151   3.375   2.885   5.664 -0.3238 -0.0747 -1.0712
 8732TIP3   OH226152   5.062   6.815   6.052 -0.0531 -0.5280 -0.0418
 8732TIP3    H126153   5.007   6.829   6.129  0.4554 -2.0562  0.6543
 8732TIP3    H226154   5.143   6.777   6.088  0.4883 -0.5613 -1.2655
 8733TIP3   OH226155   7.853   2.583   2.368 -0.0272  0.0522 -0.4602
 8733TIP3    H126156   7.861   2.678   2.374 -2.1686  0.3352 -1.2854
 8733TIP3    H226157   7.818   2.557   2.453  0.4094  0.0030 -0.2910
 8734TIP3   OH226158   0.097   1.984   4.314 -0.3873 -0.5198 -0.2457
 8734TIP3    H126159   0.001   1.979   4.314 -0.3774 -0.7763  0.1715
 8734TIP3    H226160   0.116   2.068   4.355 -0.4193 -1.0770  0.9553
 8735TIP3   OH226161   7.208   6.073   0.536  0.3265 -0.3884  0.6435
 8735TIP3    H126162   7.237   5.986   0.510  3.2948  0.7002 -0.1275
 8735TIP3    H226163   7.263   6.095   0.612 -0.6019  0.7015  1.0448
 8736TIP3   OH226164   1.603   4.758   5.919 -0.2036  0.2520 -0.2577
 8736TIP3    H126165   1.645   4.834   5.879 -2.3833  0.8975 -1.5278
 8736TIP3    H226166   1.571   4.789   6.003  1.9203 -0.3134  0.8348
 8737TIP3   OH226167   1.147   6.117   5.997 -0.9972  0.4153 -0.0063
 8737TIP3    H126168   1.166   6.140   6.088  0.4858 -0.8346  0.0429
 8737TIP3    H226169   1.227   6.076   5.966 -0.6502  2.7258 -2.5818
 8738TIP3   OH226170   0.102   4.148   4.872 -0.1039 -0.0457  0.5289
 8738TIP3    H126171   0.039   4.188   4.813 -0.9012 -1.2342  0.5441
 8738TIP3    H226172   0.166   4.217   4.889  0.4572  0.1652 -2.1368
 8739TIP3   OH226173   2.145   4.790   0.277  0.6252 -0.1917  0.1663
 8739TIP3    H126174   2.054   4.815   0.288  0.6920 -0.3587  1.1289
 8739TIP3    H226175   2.180   4.855   0.216 -0.4736 -0.9268 -1.3071
 8740TIP3   OH226176   7.535   1.293   4.652 -0.5603  0.1188 -0.0302
 8740TIP3    H126177   7.583   1.309   4.734 -1.5845 -0.2391  0.6701
 8740TIP3    H226178   7.471   1.365   4.648 -0.3565  0.2649 -0.6386
 8741TIP3   OH226179   1.584   3.381   1.705 -0.2561 -0.4384  0.4118
 8741TIP3    H126180   1.523   3.376   1.632 -1.6787 -3.8020  1.5987
 8741TIP3    H226181   1.537   3.430   1.773 -0.1741  0.0335  0.1308
 8742TIP3   OH226182   5.223   5.145   5.764 -0.1152  0.3095  0.0397
 8742TIP3    H126183   5.263   5.166   5.680  1.2904  0.8892  0.8351
 8742TIP3    H226184   5.225   5.049   5.768 -0.4012  0.2619 -0.6625
 8743TIP3   OH226185   6.748   2.821   0.181 -0.0384  0.3237  0.4612
 8743TIP3    H126186   6.791   2.892   0.228  1.9129 -0.6415  0.2027
 8743TIP3    H226187   6.733   2.855   0.093  1.3349  0.2873  0.1953
 8744TIP3   OH226188   6.339   1.925   5.725  0.2458  0.1976 -0.1968
 8744TIP3    H126189   6.344   1.833   5.752  1.3158  0.5138  0.7402
 8744TIP3    H226190   6.348   1.923   5.630 -0.1070 -0.6832 -0.2230
 8745TIP3   OH226191   7.172   1.456   1.718  0.1140  0.0066  0.3100
 8745TIP3    H126192   7.155   1.437   1.626 -0.8996  1.4615  0.1642
 8745TIP3    H226193   7.178   1.371   1.760  1.9487 -0.7407 -1.3121
 8746TIP3   OH226194   0.530   2.205   5.215 -0.0727  0.1171  0.1970
 8746TIP3    H126195   0.623   2.181   5.212 -0.4896 -1.5669 -0.4787
 8746TIP3    H226196   0.507   2.200   5.308 -0.2232 -2.7650  0.1155
 8747TIP3   OH226197   3.918   6.077   2.241  0.0595 -0.8906  0.0453
 8747TIP3    H126198   3.919   6.035   2.327 -1.7891  1.7527  1.4995
 8747TIP3    H226199   3.825   6.086   2.220  0.3348  1.8963 -0.3770
 8748TIP3   OH226200   7.985   7.447   5.146 -0.0286 -0.1480  0.3492
 8748TIP3    H126201   7.926   7.523   5.139  0.2489 -0.0211 -0.7622
 8748TIP3    H226202   7.947   7.382   5.087  1.6415  0.4315 -1.4954
 8749TIP3   OH226203   0.644   0.643   4.773  0.0211  0.0169  0.3347
 8749TIP3    H126204   0.622   0.675   4.685 -0.5507  1.0317  0.8336
 8749TIP3    H226205   0.630   0.718   4.830 -0.4511 -0.8707  1.4251
 8750TIP3   OH226206   1.825   4.564   6.716  0.4701 -0.3088 -0.3580
 8750TIP3    H126207   1.782   4.587   6.634 -0.0484 -1.7696 -0.5215
 8750TIP3    H226208   1.905   4.520   6.691  0.6931 -0.0794 -0.0639
 8751TIP3   OH226209   6.387   4.695   4.191  0.0354  0.5503  0.5169
 8751TIP3    H126210   6.324   4.703   4.262 -0.1395 -0.1153  0.4455
 8751TIP3    H226211   6.408   4.785   4.166 -1.3733  0.7769  0.0976
 8752TIP3   OH226212   5.348   2.306   3.096  0.6272  0.2033 -0.2268
 8752TIP3    H126213   5.423   2.247   3.091  0.1640 -0.7688  2.4708
 8752TIP3    H226214   5.344   2.331   3.189 -3.6120 -1.5441  0.2690
 8753TIP3   OH226215   2.151   5.502   5.341 -0.1445 -0.4487  0.2957
 8753TIP3    H126216   2.161   5.569   5.273 -1.5900 -0.1888  0.3096
 8753TIP3    H226217   2.224   5.441   5.325  0.1694  0.1865 -0.8066
 8754TIP3   OH226218   1.836   6.790   3.378  0.4381 -0.2240 -0.5558
 8754TIP3    H126219   1.906   6.852   3.396 -0.4225  0.8027 -0.6063
 8754TIP3    H226220   1.849   6.764   3.287  1.3197 -0.8245 -0.2741
 8755TIP3   OH226221   5.411   7.245   6.067 -0.4202  0.0962 -0.3869
 8755TIP3    H126222   5.457   7.162   6.056  2.5090  1.4672  0.3119
 8755TIP3    H226223   5.355   7.252   5.990  0.5952 -1.7276 -1.3698
 8756TIP3   OH226224   1.784   6.284   5.488 -0.0015 -0.2844 -0.0197
 8756TIP3    H126225   1.738   6.317   5.411  1.2226 -0.1488 -0.7320
 8756TIP3    H226226   1.851   6.350   5.505  1.8243 -1.8344 -0.8265
 8757TIP3   OH226227   5.684   6.470   1.544  0.3102  0.1486  0.3251
 8757TIP3    H126228   5.674   6.414   1.621  0.2159  0.7062  0.7163
 8757TIP3    H226229   5.641   6.420   1.474 -3.2229  1.3389  1.4402
 8758TIP3   OH226230   0.756   3.441   1.215 -0.0555  0.1314  0.0201
 8758TIP3    H126231   0.846   3.437   1.181 -1.0765 -1.3192 -2.9245
 8758TIP3    H226232   0.728   3.531   1.199  0.4820  0.2498 -0.2896
 8759TIP3   OH226233   3.944   0.585   2.979 -0.1792 -0.1705 -0.5260
 8759TIP3    H126234   3.989   0.528   2.918  0.0401  0.0489 -0.5708
 8759TIP3    H226235   3.932   0.667   2.932  0.4526  0.1726 -0.1032
 8760TIP3   OH226236   2.374   2.770   1.580  0.6451  0.5321 -0.1104
 8760TIP3    H126237   2.434   2.714   1.630  0.3410  0.7604  0.5196
 8760TIP3    H226238   2.298   2.714   1.563  0.6230  0.5454 -0.0571
 8761TIP3   OH226239   4.177   1.303   5.817 -0.1805  0.5116 -0.4289
 8761TIP3    H126240   4.106   1.326   5.877 -0.4466 -1.2063 -0.0474
 8761TIP3    H226241   4.179   1.208   5.816 -0.0624  0.4561 -3.0102
 8762TIP3   OH226242   1.566   6.094   6.743  0.7489 -0.3146  0.6552
 8762TIP3    H126243   1.487   6.055   6.706  2.0642 -2.3427 -0.1876
 8762TIP3    H226244   1.572   6.180   6.701 -0.9113 -0.1731  0.6478
 8763TIP3   OH226245   5.931   3.486   5.297  0.8348  0.4852  0.3466
 8763TIP3    H126246   5.940   3.535   5.379  0.1056 -0.7631  1.2130
 8763TIP3    H226247   5.838   3.491   5.276  0.8222 -0.1865  0.2311
 8764TIP3   OH226248   3.666   0.101   1.280  0.4413  0.4322  0.2153
 8764TIP3    H126249   3.676   0.006   1.277  1.2509  0.5184 -0.0529
 8764TIP3    H226250   3.730   0.129   1.346  0.6468  0.8382 -0.1522
 8765TIP3   OH226251   2.805   1.184   0.031 -0.2072 -0.3027  0.1833
 8765TIP3    H126252   2.756   1.102   0.027  0.2122 -0.5208 -1.5576
 8765TIP3    H226253   2.895   1.159   0.007  0.3110  0.4033  1.3379
 8766TIP3   OH226254   7.512   1.159   1.978 -0.2982  0.0432  0.4707
 8766TIP3    H126255   7.486   1.228   1.918  1.2796  0.2789  0.0037
 8766TIP3    H226256   7.518   1.203   2.063  2.8231  1.1191 -0.1764
 8767TIP3   OH226257   4.470   2.321   6.643 -0.1335 -0.1189  0.2212
 8767TIP3    H126258   4.556   2.330   6.601 -0.2828 -0.0192 -0.0683
 8767TIP3    H226259   4.434   2.410   6.644 -0.0210 -0.0760  0.8079
 8768TIP3   OH226260   3.864   3.093   3.705 -0.0439  0.1816  0.0189
 8768TIP3    H126261   3.880   3.135   3.621 -0.3640  1.2415  0.4744
 8768TIP3    H226262   3.787   3.037   3.690 -2.1058  2.7503  0.3428
 8769TIP3   OH226263   0.088   3.518   4.691  0.1925  0.0039 -0.2282
 8769TIP3    H126264   0.038   3.436   4.698 -0.7185  0.0999 -3.6771
 8769TIP3    H226265   0.022   3.587   4.689  0.8381  0.6657  0.5527
 8770TIP3   OH226266   1.667   3.250   0.061 -0.4249 -0.4005  0.0838
 8770TIP3    H126267   1.749   3.298   0.050 -0.6972  0.3024  1.0033
 8770TIP3    H226268   1.692   3.170   0.106 -0.2228 -0.2237  0.2906
 8771TIP3   OH226269   6.340   0.331   4.837  0.1636 -0.0041  0.6033
 8771TIP3    H126270   6.266   0.277   4.863 -0.2318  0.9698  1.5876
 8771TIP3    H226271   6.326   0.415   4.881  0.1829  1.3064 -1.7186
 8772TIP3   OH226272   6.975   6.163   0.986  0.3641  0.4588  0.5908
 8772TIP3    H126273   6.943   6.108   0.914  0.4185  0.3522  0.6468
 8772TIP3    H226274   7.053   6.117   1.017 -0.2073 -0.0106  1.3595
 8773TIP3   OH226275   0.926   3.853   1.424 -0.1574  0.2249 -0.4391
 8773TIP3    H126276   1.014   3.890   1.412 -0.0548  0.1914  0.1822
 8773TIP3    H226277   0.867   3.923   1.393  0.0780 -1.2022 -4.8878
 8774TIP3   OH226278   1.099   3.665   2.634  0.4021  0.4117 -0.1900
 8774TIP3    H126279   1.007   3.676   2.656  0.8228  1.7584  1.0075
 8774TIP3    H226280   1.112   3.718   2.555 -0.0784 -0.7174 -1.0559
 8775TIP3   OH226281   1.011   5.581   1.630  0.5490 -0.2725  0.2839
 8775TIP3    H126282   0.972   5.497   1.606  0.8557 -0.5302  0.6752
 8775TIP3    H226283   1.056   5.564   1.713  1.4801  0.0160 -0.1471
 8776TIP3   OH226284   4.944   1.341   1.099 -0.3576 -0.2204 -0.1462
 8776TIP3    H126285   4.874   1.278   1.114 -0.0227 -0.9416 -1.4421
 8776TIP3    H226286   5.002   1.298   1.036 -0.4378  1.6183 -1.5588
 8777TIP3   OH226287   8.206   1.666   6.075 -0.0587  0.1937 -0.1444
 8777TIP3    H126288   8.248   1.643   5.993  0.8521 -2.0277  0.8705
 8777TIP3    H226289   8.142   1.597   6.090  1.3218 -0.7131  2.0418
 8778TIP3   OH226290   7.535   4.067   5.811  0.4589  0.2041 -0.1444
 8778TIP3    H126291   7.592   4.024   5.747  0.2250  1.8528 -1.5256
 8778TIP3    H226292   7.507   4.148   5.768 -0.6394  0.8171  1.6170
 8779TIP3   OH226293   3.012   1.400   4.377 -0.7983 -0.1881 -0.5714
 8779TIP3    H126294   2.927   1.375   4.414 -1.0615  2.2958  0.7487
 8779TIP3    H226295   3.076   1.351   4.430 -1.3406 -1.7025 -1.2595
 8780TIP3   OH226296   7.534   3.291   5.641  0.5552 -0.0986  0.1091
 8780TIP3    H126297   7.460   3.316   5.586 -0.5368  1.6876  2.2323
 8780TIP3    H226298   7.603   3.266   5.579 -0.5863  1.7496 -2.0569
 8781TIP3   OH226299   7.249   5.685   5.972  0.2165  0.3058  0.3809
 8781TIP3    H126300   7.295   5.694   5.889 -0.7765  2.1449 -0.0089
 8781TIP3    H226301   7.317   5.698   6.038  0.5825  1.2014 -0.1627
 8782TIP3   OH226302   1.117   1.026   0.696  0.2125  0.4931  0.2607
 8782TIP3    H126303   1.138   1.109   0.654  2.5100 -1.3614 -2.6468
 8782TIP3    H226304   1.029   1.006   0.664 -0.8697  2.2329  1.9300
 8783TIP3   OH226305   0.033   0.925   5.884  0.3453 -0.4647 -0.2834
 8783TIP3    H126306  -0.014   0.869   5.822  0.9897  0.2199 -1.4286
 8783TIP3    H226307   0.124   0.925   5.852  0.5701  0.3657  0.3305
 8784TIP3   OH226308   0.041   6.124   3.002 -0.1384 -0.1352  0.4798
 8784TIP3    H126309   0.130   6.089   3.002 -0.0888 -0.0837 -0.9794
 8784TIP3    H226310   0.041   6.191   2.934 -1.6691 -1.2314 -0.6960
 8785TIP3   OH226311   5.638   3.417   4.739 -0.1603 -0.3216  0.5636
 8785TIP3    H126312   5.693   3.341   4.718 -1.9433 -1.9762  1.4573
 8785TIP3    H226313   5.682   3.459   4.813 -0.3427 -1.9592  1.6601
 8786TIP3   OH226314   7.299   5.700   0.791 -0.1643 -0.1526 -0.0227
 8786TIP3    H126315   7.347   5.635   0.738 -0.1393  0.1318 -0.3558
 8786TIP3    H226316   7.251   5.648   0.855 -0.3748 -0.5228 -0.4718
 8787TIP3   OH226317   1.377   2.329   5.186 -0.7450 -0.3719 -0.2439
 8787TIP3    H126318   1.459   2.370   5.159 -1.0661 -1.1371 -2.6685
 8787TIP3    H226319   1.318   2.403   5.204  0.0938  0.1836  0.2934
 8788TIP3   OH226320   0.196   2.492   4.935  0.0711  0.4077 -0.5813
 8788TIP3    H126321   0.160   2.564   4.987 -2.2609 -0.3451 -1.0090
 8788TIP3    H226322   0.221   2.533   4.852  0.1100  0.9617 -0.3012
 8789TIP3   OH226323   6.053   3.350   4.473 -0.0668 -0.0283 -0.0755
 8789TIP3    H126324   6.081   3.394   4.553  0.2893 -1.0582  0.3895
 8789TIP3    H226325   5.972   3.394   4.448 -0.9533 -0.5978  1.6524
 8790TIP3   OH226326   7.659   1.396   2.050  0.3745  0.1339 -0.4277
 8790TIP3    H126327   7.573   1.426   2.020  0.4540 -0.5394 -1.3604
 8790TIP3    H226328   7.708   1.477   2.066 -1.5775  0.7893  3.9268
 8791TIP3   OH226329   0.657   2.867   5.322  1.0156 -0.0685  0.4761
 8791TIP3    H126330   0.603   2.944   5.300  1.3826  0.1289  0.2468
 8791TIP3    H226331   0.670   2.823   5.238  1.0025 -0.2562  0.5718
 8792TIP3   OH226332   2.097   4.904   3.374 -0.3479 -0.2768 -0.2004
 8792TIP3    H126333   2.010   4.867   3.358  0.1721 -1.0062 -1.4715
 8792TIP3    H226334   2.090   4.946   3.460 -1.2165 -2.5469  0.9073
 8793TIP3   OH226335   6.523   4.459   2.960  0.6898  0.7307 -0.0562
 8793TIP3    H126336   6.429   4.478   2.955  1.0244  2.7479  0.3915
 8793TIP3    H226337   6.552   4.457   2.869  0.3879  1.0399 -0.1605
 8794TIP3   OH226338   0.590   6.312   3.985  0.2277  0.1612 -0.0814
 8794TIP3    H126339   0.547   6.243   3.935  0.8489 -0.0940 -0.2716
 8794TIP3    H226340   0.620   6.374   3.919  0.4884  0.1422  0.0172
 8795TIP3   OH226341   2.725   6.850   1.023  0.1356  0.1617 -0.1321
 8795TIP3    H126342   2.676   6.787   0.970  1.4191 -0.6062 -0.4720
 8795TIP3    H226343   2.722   6.931   0.972  0.5819 -0.3203 -0.9587
 8796TIP3   OH226344   8.154   2.205   3.293 -0.1777 -0.0539  0.3675
 8796TIP3    H126345   8.137   2.224   3.200 -0.8923  0.3610  0.5820
 8796TIP3    H226346   8.079   2.241   3.339  0.1752 -0.2672  1.1158
 8797TIP3   OH226347   7.403   5.593   3.039 -0.2058 -0.7206  0.4272
 8797TIP3    H126348   7.450   5.670   3.007  0.4211 -1.2509  0.0496
 8797TIP3    H226349   7.363   5.622   3.122  0.6749 -0.2184  0.6890
 8798TIP3   OH226350   8.172   2.873   4.803  0.0011 -0.0579 -0.0908
 8798TIP3    H126351   8.165   2.785   4.764  0.5987 -0.6563  1.1201
 8798TIP3    H226352   8.094   2.919   4.770  0.2416 -0.6680 -1.6216
 8799TIP3   OH226353   0.332   0.278   2.631 -0.4842  0.2279  0.2236
 8799TIP3    H126354   0.330   0.303   2.723  2.9796 -0.1473  0.5229
 8799TIP3    H226355   0.376   0.351   2.587 -1.1966 -0.0448 -1.0051
 8800TIP3   OH226356   4.341   1.764   3.415 -0.3654 -0.2978  0.5143
 8800TIP3    H126357   4.394   1.689   3.387  0.5145  0.7212 -0.6610
 8800TIP3    H226358   4.276   1.774   3.345  0.2575  0.7337  0.0665
 8801TIP3   OH226359   6.005   0.970   3.090 -0.4334 -0.0887  0.4455
 8801TIP3    H126360   5.934   1.005   3.037  0.2987 -2.3121 -2.1785
 8801TIP3    H226361   5.970   0.890   3.128  0.4008 -0.8166 -0.2753
 8802TIP3   OH226362   4.362   0.758   6.563  0.0943 -0.1333  0.2791
 8802TIP3    H126363   4.347   0.749   6.468  2.0825  1.4949 -0.2452
 8802TIP3    H226364   4.383   0.669   6.591 -0.3083 -0.6089 -0.8256
 8803TIP3   OH226365   7.491   6.691   1.982 -0.1508  0.4745 -0.3453
 8803TIP3    H126366   7.556   6.681   2.052 -1.1785  0.6872  0.6805
 8803TIP3    H226367   7.441   6.769   2.008 -1.0238  0.1206 -0.9228
 8804TIP3   OH226368   5.424   0.313   1.048 -0.1840  0.3770 -0.0090
 8804TIP3    H126369   5.494   0.293   0.986 -0.2852  2.1645 -0.7777
 8804TIP3    H226370   5.346   0.326   0.993 -0.8293 -0.3414  0.7175
 8805TIP3   OH226371   6.847   1.003   0.548  0.0040  0.5531 -0.2109
 8805TIP3    H126372   6.941   1.006   0.565  0.1731 -0.6304 -0.8000
 8805TIP3    H226373   6.806   1.015   0.634  0.7064  0.0919  0.1946
 8806TIP3   OH226374   2.867   0.032   3.020  0.2194  0.4378 -0.1571
 8806TIP3    H126375   2.784   0.051   3.064  0.1129 -0.0588 -0.1452
 8806TIP3    H226376   2.849  -0.044   2.966  0.7002  0.2627 -0.0765
 8807TIP3   OH226377   4.430   2.666   5.370  0.0286  0.0930 -0.0792
 8807TIP3    H126378   4.447   2.758   5.386  1.0377 -0.1407  0.2795
 8807TIP3    H226379   4.354   2.646   5.425 -0.3318  0.7551 -0.3268
 8808TIP3   OH226380   0.527   3.743   4.648 -0.2905 -0.4493 -0.3952
 8808TIP3    H126381   0.472   3.722   4.723 -0.2210  0.5690 -0.0469
 8808TIP3    H226382   0.608   3.694   4.664 -0.4481 -0.5933 -0.0263
 8809TIP3   OH226383   2.814   5.950   3.071  0.2675  0.0076 -0.5324
 8809TIP3    H126384   2.875   5.878   3.057  1.1815  0.0014  2.5875
 8809TIP3    H226385   2.797   5.948   3.165 -3.2465  1.0978 -1.0027
 8810TIP3   OH226386   5.232   0.468   6.357  0.0653  0.1224  0.2540
 8810TIP3    H126387   5.232   0.557   6.390  0.8198  0.2998 -0.2130
 8810TIP3    H226388   5.313   0.460   6.308 -0.9438 -0.1611 -1.4741
 8811TIP3   OH226389   7.702   0.270   4.253  1.0092 -0.0834  0.1743
 8811TIP3    H126390   7.646   0.334   4.297  0.4233 -1.3442  1.3307
 8811TIP3    H226391   7.788   0.313   4.248  0.5113  0.9778  0.4862
 8812TIP3   OH226392   6.563   5.108   6.337 -0.2336  0.4222  0.2237
 8812TIP3    H126393   6.615   5.094   6.258 -1.5404 -0.9708 -0.4549
 8812TIP3    H226394   6.536   5.200   6.332 -1.0619  0.1352 -1.4945
 8813TIP3   OH226395   7.415   3.015   2.015 -0.6934 -0.7564  0.4884
 8813TIP3    H126396   7.461   2.931   2.019  1.9716  0.6355  1.6699
 8813TIP3    H226397   7.357   3.014   2.092  0.0931 -1.1215  1.0895
 8814TIP3   OH226398   6.837   5.568   2.891  0.2184 -0.4967  0.7596
 8814TIP3    H126399   6.813   5.657   2.867  0.1186 -0.8541 -0.5356
 8814TIP3    H226400   6.768   5.513   2.855  1.4753 -1.2884 -0.5669
 8815TIP3   OH226401   1.095   5.676   0.176  0.0116 -0.5518  0.1190
 8815TIP3    H126402   1.131   5.637   0.096  1.1080 -2.3093  1.3991
 8815TIP3    H226403   1.001   5.659   0.172  0.1324 -1.0861 -0.5644
 8816TIP3   OH226404   3.552   4.767   3.317 -0.3451  0.1402 -0.4756
 8816TIP3    H126405   3.483   4.705   3.341 -0.2661  0.7988  1.7186
 8816TIP3    H226406   3.633   4.725   3.346 -0.1076  0.4962 -0.6188
 8817TIP3   OH226407   4.919   4.149   5.607  0.0843 -0.4996 -0.0412
 8817TIP3    H126408   4.931   4.243   5.617 -0.3475 -0.4269 -0.2012
 8817TIP3    H226409   4.966   4.111   5.682 -0.9557 -0.0876  0.8349
 8818TIP3   OH226410   8.180   3.214   1.715 -0.3426 -0.7431  0.4245
 8818TIP3    H126411   8.250   3.170   1.666  0.3113  1.1783 -0.4645
 8818TIP3    H226412   8.154   3.287   1.659 -1.8417 -0.3780  1.5453
 8819TIP3   OH226413   4.728   7.516   6.422  0.1621  0.2411 -0.1045
 8819TIP3    H126414   4.686   7.531   6.337 -0.3208 -2.6990 -0.4800
 8819TIP3    H226415   4.797   7.582   6.426 -0.4076  1.0595 -2.3544
 8820TIP3   OH226416   6.553   3.931   4.351 -0.2334 -0.2479 -0.1597
 8820TIP3    H126417   6.606   3.996   4.398 -2.0879  0.6004  0.9135
 8820TIP3    H226418   6.536   3.971   4.266 -0.6304  0.2920  0.1669
 8821TIP3   OH226419   5.474   7.010   6.665  0.1720  0.0738 -0.1940
 8821TIP3    H126420   5.405   6.957   6.624  1.8167 -0.3731 -2.6386
 8821TIP3    H226421   5.471   7.093   6.617  2.0536 -0.3981 -1.2297
 8822TIP3   OH226422   1.435   3.715   4.833 -0.7214  0.8975 -0.1811
 8822TIP3    H126423   1.418   3.787   4.772 -1.7897 -0.4788 -1.5874
 8822TIP3    H226424   1.489   3.654   4.784  0.3120  0.7793  1.0533
 8823TIP3   OH226425   7.246   5.652   1.163 -0.6347  0.0180 -0.1510
 8823TIP3    H126426   7.171   5.634   1.219  0.3674 -0.5439  1.0644
 8823TIP3    H226427   7.316   5.596   1.198  0.5090  0.9394 -0.8868
 8824TIP3   OH226428   3.571   3.100   2.004  0.2037  0.0563 -0.4191
 8824TIP3    H126429   3.619   3.182   1.993 -0.2724  0.4383  0.2978
 8824TIP3    H226430   3.521   3.112   2.084  0.0046 -0.8802 -0.3948
 8825TIP3   OH226431   5.190   0.780   3.461 -0.0952 -0.2485  0.0224
 8825TIP3    H126432   5.285   0.791   3.453 -0.4111  2.5855 -0.9130
 8825TIP3    H226433   5.179   0.718   3.533  2.4362 -0.6136  0.1883
 8826TIP3   OH226434   0.307   6.958   3.693  0.3558 -0.8882  0.6551
 8826TIP3    H126435   0.249   7.033   3.683  0.5367 -0.6102  1.5927
 8826TIP3    H226436   0.287   6.902   3.619 -0.0688 -0.1039  0.1642
 8827TIP3   OH226437   1.687   5.373   2.711 -0.3855 -0.0538  0.1757
 8827TIP3    H126438   1.727   5.383   2.624 -0.6932  1.3418  0.1719
 8827TIP3    H226439   1.609   5.428   2.708 -1.6636 -1.7658  0.6050
 8828TIP3   OH226440   1.364   4.598   3.590 -0.1326  0.9505  0.1577
 8828TIP3    H126441   1.449   4.581   3.630  0.0812  1.1536 -0.2147
 8828TIP3    H226442   1.307   4.530   3.627  0.0279  1.2130  0.9154
 8829TIP3   OH226443   5.739   0.258   1.824 -0.0762  0.0117 -0.5619
 8829TIP3    H126444   5.724   0.328   1.889 -1.3629 -0.0162 -0.8099
 8829TIP3    H226445   5.795   0.195   1.869  0.5815  0.8871 -0.1165
 8830TIP3   OH226446   5.285   2.603   4.792  0.0460 -0.0608  0.2667
 8830TIP3    H126447   5.281   2.584   4.886  1.6486 -0.4433  0.2801
 8830TIP3    H226448   5.226   2.539   4.752 -1.1208  0.4891  1.0308
 8831TIP3   OH226449   6.466   4.282   4.417  0.4213 -0.1257  0.0766
 8831TIP3    H126450   6.386   4.231   4.406  0.1382  0.3528 -0.1275
 8831TIP3    H226451   6.480   4.285   4.512  1.0993 -1.5707  0.0405
 8832TIP3   OH226452   0.072   7.723   1.196 -0.1206  0.0739 -0.5078
 8832TIP3    H126453   0.127   7.661   1.149 -0.2940 -1.3835  1.1243
 8832TIP3    H226454   0.109   7.727   1.284 -1.6325  0.3284  0.1455
 8833TIP3   OH226455   0.222   2.566   3.269 -0.0544 -0.7502  0.3991
 8833TIP3    H126456   0.175   2.484   3.254 -0.7649 -0.4144  0.7604
 8833TIP3    H226457   0.186   2.626   3.203 -1.1306 -0.0942  1.5590
 8834TIP3   OH226458   0.397   2.521   4.252  0.0334  0.2665 -0.2786
 8834TIP3    H126459   0.407   2.475   4.169  2.0926 -0.7420  0.4515
 8834TIP3    H226460   0.360   2.606   4.228  0.9204  0.1503 -2.2803
 8835TIP3   OH226461   4.527   7.107   3.518 -0.1110  0.3870  0.4684
 8835TIP3    H126462   4.524   7.125   3.424 -0.6047  2.8198  0.8722
 8835TIP3    H226463   4.466   7.170   3.556  0.5373 -0.1254  2.4893
 8836TIP3   OH226464   5.553   3.841   0.773  0.1579 -0.3218  0.5026
 8836TIP3    H126465   5.557   3.929   0.735  0.5654 -0.0392  1.1694
 8836TIP3    H226466   5.538   3.857   0.867 -2.8778 -1.0090  0.2461
 8837TIP3   OH226467   5.001   4.331   1.582 -0.2294 -0.1598 -0.2200
 8837TIP3    H126468   5.037   4.290   1.661  0.3092  0.2176 -0.2688
 8837TIP3    H226469   5.041   4.418   1.579  0.3580 -0.4514 -1.3239
 8838TIP3   OH226470   6.225   6.071   2.580  0.2924  0.1826 -0.0197
 8838TIP3    H126471   6.261   6.101   2.496  1.3448 -1.0958 -0.0594
 8838TIP3    H226472   6.166   5.999   2.556  0.1716  0.1772  0.2922
 8839TIP3   OH226473   6.370   2.094   3.598 -0.0798 -0.3038 -0.1199
 8839TIP3    H126474   6.299   2.031   3.598 -0.6546  0.3203  0.5105
 8839TIP3    H226475   6.372   2.129   3.509  0.5257 -1.4886 -0.5967
 8840TIP3   OH226476   6.698   6.497   5.823 -0.2134 -0.2792 -0.1484
 8840TIP3    H126477   6.765   6.521   5.887 -0.1431  1.8016 -0.8937
 8840TIP3    H226478   6.617   6.532   5.860 -0.2516  0.4794 -0.8998
 8841TIP3   OH226479   3.586   2.937   2.403  0.1455 -0.3716  0.1313
 8841TIP3    H126480   3.594   2.857   2.352  1.1113 -0.4682  0.4266
 8841TIP3    H226481   3.645   2.925   2.478 -1.6443 -0.4805  1.6069
 8842TIP3   OH226482   3.449   7.210   3.182  0.2698  0.3754  0.1877
 8842TIP3    H126483   3.533   7.226   3.138 -0.4205  0.2272 -1.2476
 8842TIP3    H226484   3.383   7.239   3.119 -0.8211 -1.2129  0.5494
 8843TIP3   OH226485   6.425   2.837   5.331 -0.1519 -0.0882 -0.3839
 8843TIP3    H126486   6.413   2.847   5.236 -1.1131  1.1621 -0.1655
 8843TIP3    H226487   6.492   2.901   5.354 -0.3017 -0.0176 -0.1423
 8844TIP3   OH226488   3.900   2.319   0.682  0.2917  0.2542 -0.4149
 8844TIP3    H126489   3.981   2.360   0.711  0.2328 -0.6737  1.1848
 8844TIP3    H226490   3.835   2.389   0.685  0.4071  0.3241  1.2699
 8845TIP3   OH226491   1.827   5.251   0.420 -0.1506  0.0966 -0.1747
 8845TIP3    H126492   1.847   5.180   0.359  2.9124  1.1673 -0.5736
 8845TIP3    H226493   1.762   5.304   0.373  1.1043  0.1344 -1.9617
 8846TIP3   OH226494   4.125   5.572   1.636  0.1259  0.0064 -0.4474
 8846TIP3    H126495   4.191   5.617   1.689 -0.6625 -1.5576  2.0163
 8846TIP3    H226496   4.056   5.637   1.623  0.0893  0.2913  0.9794
 8847TIP3   OH226497   4.119   3.023   5.260  0.1070  0.3759 -0.5385
 8847TIP3    H126498   4.025   3.028   5.243  0.1541  3.9632 -0.5769
 8847TIP3    H226499   4.159   3.041   5.174  0.8532 -0.8951 -0.4750
 8848TIP3   OH226500   6.316   6.768   5.076  0.2386 -0.0360  0.5762
 8848TIP3    H126501   6.268   6.734   5.151  0.7093 -2.6209 -0.2064
 8848TIP3    H226502   6.254   6.764   5.003  0.5513  0.0576  0.3016
 8849TIP3   OH226503   0.440   0.103   2.033  0.8517  0.8210  0.0944
 8849TIP3    H126504   0.394   0.035   1.983  1.0784 -0.1658  1.1667
 8849TIP3    H226505   0.428   0.183   1.982  2.1489 -0.3494 -2.1994
 8850TIP3   OH226506   8.277   5.357   3.568  0.2266  0.5761  0.8105
 8850TIP3    H126507   8.251   5.283   3.514  0.2013  1.1855 -0.0312
 8850TIP3    H226508   8.321   5.417   3.508 -1.3746  2.0938  1.0846
 8851TIP3   OH226509   5.206   4.336   0.808  0.1730 -0.6194  0.4957
 8851TIP3    H126510   5.279   4.371   0.757 -1.0886  1.2422 -0.1537
 8851TIP3    H226511   5.241   4.329   0.897  0.7562  1.7957  0.5445
 8852TIP3   OH226512   4.858   2.641   2.295  0.1483 -0.1613 -0.2984
 8852TIP3    H126513   4.820   2.698   2.227  0.4546 -0.5509 -0.8056
 8852TIP3    H226514   4.942   2.613   2.258 -0.3371 -1.5751 -0.4115
 8853TIP3   OH226515   7.904   1.289   5.738 -0.3620  0.0776 -0.1764
 8853TIP3    H126516   7.941   1.346   5.670  1.3062 -1.1278 -0.3305
 8853TIP3    H226517   7.866   1.216   5.690 -0.9154  0.1628  0.1186
 8854TIP3   OH226518   1.278   3.643   5.290 -0.2957  0.3493 -0.3444
 8854TIP3    H126519   1.211   3.596   5.240 -0.8366  0.4645  0.2705
 8854TIP3    H226520   1.361   3.615   5.250 -0.4953 -2.1031  0.7797
 8855TIP3   OH226521   3.789   4.153   1.594 -0.1836  0.2940 -0.0211
 8855TIP3    H126522   3.706   4.194   1.619 -0.0468  0.6841 -0.2015
 8855TIP3    H226523   3.854   4.196   1.648 -0.0135  0.4561 -0.3500
 8856TIP3   OH226524   3.444   3.344   6.197 -0.0480 -0.2263  0.6526
 8856TIP3    H126525   3.370   3.322   6.140 -1.6798  1.2623  2.0912
 8856TIP3    H226526   3.464   3.262   6.242  0.9926 -1.3266 -1.6175
 8857TIP3   OH226527   5.328   7.671   5.797  0.3607 -0.0777 -0.5501
 8857TIP3    H126528   5.339   7.670   5.892  0.4282 -1.3262 -0.5536
 8857TIP3    H226529   5.416   7.684   5.762  0.4221 -0.2112 -0.4464
 8858TIP3   OH226530   4.763   5.896   3.242  0.6810 -0.2176 -0.2709
 8858TIP3    H126531   4.708   5.935   3.173  2.7127 -0.3608 -2.0810
 8858TIP3    H226532   4.808   5.970   3.281 -1.4294  0.0241  1.9449
 8859TIP3   OH226533   7.420   6.881   3.938 -0.9287 -0.2849 -0.3074
 8859TIP3    H126534   7.476   6.818   3.891  0.7186 -1.2816  2.6936
 8859TIP3    H226535   7.433   6.859   4.031 -2.8751  2.4238  0.7171
 8860TIP3   OH226536   4.562   2.946   5.464  0.4062  0.7831 -0.2443
 8860TIP3    H126537   4.623   2.960   5.391  2.7576  2.7727  1.8829
 8860TIP3    H226538   4.531   3.034   5.486 -1.7505  0.0060  0.0014
 8861TIP3   OH226539   1.255   0.697   2.715  0.3355  0.2280  0.2696
 8861TIP3    H126540   1.221   0.611   2.689  1.9678 -0.2073 -0.5112
 8861TIP3    H226541   1.349   0.690   2.705  0.4711  2.2855 -0.2694
 8862TIP3   OH226542   7.051   7.572   6.310 -0.0253 -1.3314 -0.1079
 8862TIP3    H126543   7.063   7.631   6.384  0.5063 -1.2073 -0.2824
 8862TIP3    H226544   6.956   7.566   6.299 -0.1195 -1.6121  0.7828
 8863TIP3   OH226545   2.335   0.021   0.808  0.0644  0.5018  0.4877
 8863TIP3    H126546   2.388  -0.014   0.879  0.6559 -1.7218 -0.9504
 8863TIP3    H226547   2.398   0.045   0.740 -0.5259  2.0635  0.4387
 8864TIP3   OH226548   5.172   3.552   2.992  0.5416  0.1729  0.2029
 8864TIP3    H126549   5.148   3.480   3.050  1.3161 -1.0290 -0.8914
 8864TIP3    H226550   5.138   3.525   2.906 -1.9093  2.5854  0.2992
 8865TIP3   OH226551   3.670   5.998   3.742  0.4885  0.6091  0.2563
 8865TIP3    H126552   3.755   5.955   3.751 -0.9465 -2.1192  2.3172
 8865TIP3    H226553   3.644   5.981   3.652  2.5274  2.5513 -0.8148
 8866TIP3   OH226554   5.361   5.659   0.700 -0.1044 -0.2560  0.1348
 8866TIP3    H126555   5.377   5.565   0.692 -1.6585 -0.5547  0.1455
 8866TIP3    H226556   5.318   5.683   0.618  0.8368  0.5960 -0.1330
 8867TIP3   OH226557   3.608   1.386   4.729 -0.6323 -0.2830 -0.1755
 8867TIP3    H126558   3.653   1.342   4.657 -0.7401 -0.9261  0.1359
 8867TIP3    H226559   3.661   1.367   4.806  0.0658  1.2994 -0.2380
 8868TIP3   OH226560   7.327   1.066   4.976 -0.6510 -0.3656  0.4809
 8868TIP3    H126561   7.412   1.044   4.938 -0.8171 -3.3404  1.5894
 8868TIP3    H226562   7.268   1.073   4.901  0.3723  0.8553 -0.2357
 8869TIP3   OH226563   6.106   3.679   3.555 -0.0186  0.1004  0.0434
 8869TIP3    H126564   6.074   3.668   3.465 -0.2204  0.2487  0.0957
 8869TIP3    H226565   6.033   3.721   3.601 -0.2731 -0.8144  0.5045
 8870TIP3   OH226566   5.184   4.902   3.980  0.4508  0.0547 -0.5468
 8870TIP3    H126567   5.155   4.993   3.976 -2.1472 -0.6890 -0.5169
 8870TIP3    H226568   5.262   4.899   3.925 -0.9866  1.7783 -2.8453
 8871TIP3   OH226569   5.047   1.337   4.034 -0.2947 -0.2763 -0.3816
 8871TIP3    H126570   5.050   1.333   3.939 -0.2391  0.4764 -0.4192
 8871TIP3    H226571   5.100   1.263   4.064  0.3201 -0.0621 -0.9368
 8872TIP3   OH226572   2.574   1.705   0.697  0.0576  0.0242  0.1795
 8872TIP3    H126573   2.627   1.780   0.672  0.3268  0.4153  1.8179
 8872TIP3    H226574   2.566   1.711   0.792 -0.8730 -1.3914  0.2309
 8873TIP3   OH226575   0.654   0.257   4.374  0.1846 -0.2908 -0.0753
 8873TIP3    H126576   0.660   0.164   4.395  0.9345 -0.4113 -0.7365
 8873TIP3    H226577   0.741   0.279   4.338  0.0786  0.7024  0.2314
 8874TIP3   OH226578   5.470   1.158   4.752 -0.3296  0.1949 -0.0464
 8874TIP3    H126579   5.454   1.247   4.783 -0.6836  0.4479 -0.9131
 8874TIP3    H226580   5.455   1.102   4.829 -0.2837  0.8612  0.4548
 8875TIP3   OH226581   1.303   7.586   6.672 -0.1885 -0.4050  0.0679
 8875TIP3    H126582   1.222   7.564   6.718  0.0529 -0.9636  0.2391
 8875TIP3    H226583   1.320   7.509   6.617  0.6695 -0.6476  0.6580
 8876TIP3   OH226584   6.979   6.743   6.160 -0.5569 -0.3877  0.2234
 8876TIP3    H126585   7.007   6.825   6.201  1.8099 -0.4865 -1.0120
 8876TIP3    H226586   6.896   6.765   6.118 -0.2894  1.1997  0.4512
 8877TIP3   OH226587   6.202   2.921   6.656 -0.2233  0.1526  0.0351
 8877TIP3    H126588   6.117   2.966   6.657 -0.2730  0.0532  0.2676
 8877TIP3    H226589   6.241   2.942   6.741 -0.2928 -0.3321  0.1920
 8878TIP3   OH226590   0.997   5.053   3.669 -0.1656 -0.5957  0.0199
 8878TIP3    H126591   1.084   5.093   3.667 -0.4078 -0.0676 -1.8144
 8878TIP3    H226592   1.008   4.972   3.620 -1.2929  0.9010 -2.9431
 8879TIP3   OH226593   0.687   6.456   0.385  0.3999  0.6560  0.3489
 8879TIP3    H126594   0.658   6.514   0.455  0.5076  0.9578  0.1489
 8879TIP3    H226595   0.606   6.415   0.352  0.3343  0.6210  0.5534
 8880TIP3   OH226596   0.799   4.568   3.077 -1.1486  0.0515 -0.0771
 8880TIP3    H126597   0.805   4.545   2.984  3.4168 -1.2146  0.2868
 8880TIP3    H226598   0.754   4.493   3.117 -1.3241 -0.3652 -1.0213
 8881TIP3   OH226599   2.981   3.216   1.512  0.2177  0.2472  0.3113
 8881TIP3    H126600   3.052   3.153   1.518  0.7468  0.5810 -1.5785
 8881TIP3    H226601   2.916   3.186   1.575  0.6650 -1.8889 -0.1857
 8882TIP3   OH226602   6.861   7.205  -0.001 -0.1498 -0.1996 -0.6487
 8882TIP3    H126603   6.841   7.229   0.089  0.5008 -2.2010  0.0886
 8882TIP3    H226604   6.812   7.124  -0.015 -0.7297  0.3954 -2.3364
 8883TIP3   OH226605   5.674   7.189   0.065 -0.2783  0.2010 -0.5026
 8883TIP3    H126606   5.734   7.236   0.123 -1.2428  0.1522  0.5602
 8883TIP3    H226607   5.705   7.099   0.067 -1.6799 -0.2947  1.8490
 8884TIP3   OH226608   7.701   3.033   2.640 -0.0224 -0.2631  0.2770
 8884TIP3    H126609   7.750   3.052   2.559 -0.5804  2.7197  0.5350
 8884TIP3    H226610   7.765   3.048   2.710 -0.0046 -1.2022  0.4757
 8885TIP3   OH226611   0.683   7.360   4.565  0.0226 -0.0949 -0.0274
 8885TIP3    H126612   0.634   7.364   4.483 -0.5005  2.5397  0.3253
 8885TIP3    H226613   0.619   7.379   4.633  0.8977  0.0946  0.7728
 8886TIP3   OH226614   3.256   2.139   1.218  0.0468 -0.4189 -0.3211
 8886TIP3    H126615   3.215   2.186   1.145  0.5161  1.0872  0.3440
 8886TIP3    H226616   3.186   2.130   1.283  0.2058  0.3066 -0.0343
 8887TIP3   OH226617   0.918   6.823   4.442  0.7332 -0.8924  0.1064
 8887TIP3    H126618   0.841   6.868   4.408  0.9893 -0.9325 -0.5217
 8887TIP3    H226619   0.905   6.825   4.537  0.8629  0.7091  0.1173
 8888TIP3   OH226620   3.468   5.249   4.600  0.5222  0.3916 -0.2139
 8888TIP3    H126621   3.397   5.185   4.595  1.3694 -0.7052  1.0078
 8888TIP3    H226622   3.424   5.334   4.601 -0.7429 -0.2415  0.0626
 8889TIP3   OH226623   1.517   2.409   4.884 -0.0134 -0.5554 -0.2338
 8889TIP3    H126624   1.516   2.446   4.972  0.3780  0.6553 -0.7286
 8889TIP3    H226625   1.532   2.315   4.899  0.4813 -0.3150  0.9723
 8890TIP3   OH226626   2.837   3.747   4.566 -0.0597 -0.3962 -0.0552
 8890TIP3    H126627   2.897   3.690   4.614  1.2967  0.2500 -0.9264
 8890TIP3    H226628   2.883   3.767   4.484 -1.0152  0.9687 -0.2958
 8891TIP3   OH226629   4.734   5.641   2.764 -0.2104  0.2372  0.3109
 8891TIP3    H126630   4.767   5.561   2.723 -0.9330 -0.0557  0.2852
 8891TIP3    H226631   4.665   5.610   2.823 -0.4120  0.8345  0.3874
 8892TIP3   OH226632   1.550   0.452   3.173 -0.5810 -0.3578  0.0614
 8892TIP3    H126633   1.602   0.378   3.205  0.5257  0.4573  0.1963
 8892TIP3    H226634   1.465   0.414   3.150  0.0508 -1.7072 -0.1002
 8893TIP3   OH226635   2.571   2.381   2.491 -0.0285  0.1799 -0.4457
 8893TIP3    H126636   2.604   2.318   2.556  0.5911 -0.1255 -1.0512
 8893TIP3    H226637   2.535   2.327   2.422  1.0145  0.4619 -1.2372
 8894TIP3   OH226638   6.838   5.118   4.294 -0.0251  0.1921  0.2115
 8894TIP3    H126639   6.916   5.170   4.311 -0.7389  1.8632 -1.2804
 8894TIP3    H226640   6.843   5.097   4.201 -1.0575 -0.1797  0.2243
 8895TIP3   OH226641   6.003   5.528   0.036  0.1988 -0.2464 -0.3883
 8895TIP3    H126642   6.025   5.454   0.093 -1.2173 -0.0172  0.4889
 8895TIP3    H226643   6.079   5.535  -0.023  1.4736 -0.8226  1.1071
 8896TIP3   OH226644   1.857   3.189   5.858  0.0542  0.0530  0.2361
 8896TIP3    H126645   1.766   3.216   5.861 -0.2330 -0.9379  0.9933
 8896TIP3    H226646   1.856   3.097   5.884  1.4280  0.4572  1.9525
 8897TIP3   OH226647   3.880   4.356   3.672 -0.0471  0.6310  0.2294
 8897TIP3    H126648   3.814   4.317   3.615 -0.1537  0.1635  0.6702
 8897TIP3    H226649   3.830   4.400   3.741  0.0904  0.6763  0.3007
 8898TIP3   OH226650   7.390   1.459   5.526 -0.1327  0.1773  0.4910
 8898TIP3    H126651   7.316   1.479   5.584 -0.6048 -0.2510  0.0599
 8898TIP3    H226652   7.447   1.403   5.578  0.4405  1.3883  1.1901
 8899TIP3   OH226653   7.802   3.741   5.317 -0.3345 -0.0984  0.0525
 8899TIP3    H126654   7.823   3.742   5.410 -0.1165 -1.0829  0.0154
 8899TIP3    H226655   7.881   3.775   5.274 -0.7324  1.1494  0.2691
 8900TIP3   OH226656   6.649   4.417   1.748  0.3337  0.2050  0.3289
 8900TIP3    H126657   6.705   4.345   1.778  1.1553  0.5508 -0.3354
 8900TIP3    H226658   6.560   4.390   1.774  0.7872 -0.3624  1.3921
 8901TIP3   OH226659   0.946   2.722   1.802 -0.2350  0.6651  0.1876
 8901TIP3    H126660   0.892   2.801   1.793 -1.9919 -0.4779  0.0627
 8901TIP3    H226661   0.924   2.687   1.888 -1.2072 -0.8274 -0.6079
 8902TIP3   OH226662   7.214   6.892   1.005 -0.2782  1.0361  0.1817
 8902TIP3    H126663   7.253   6.805   0.997 -0.7740  0.8735 -0.5430
 8902TIP3    H226664   7.279   6.952   0.970 -0.1485  0.9019  0.1952
 8903TIP3   OH226665   4.440   5.762   5.464 -0.1166 -0.7818  0.6324
 8903TIP3    H126666   4.402   5.711   5.392 -0.3597 -0.4896  0.5539
 8903TIP3    H226667   4.516   5.711   5.492 -1.0912 -1.8630  1.4109
 8904TIP3   OH226668   4.704   6.737   2.892 -0.6666 -0.6474  0.2223
 8904TIP3    H126669   4.623   6.710   2.847 -1.6045  1.4165  0.5577
 8904TIP3    H226670   4.691   6.830   2.910  0.7513 -0.8247  2.5018
 8905TIP3   OH226671   8.055   6.042   3.583 -0.7011  0.1416 -0.0321
 8905TIP3    H126672   8.019   6.062   3.669 -0.1321  2.4807 -0.2627
 8905TIP3    H226673   8.033   6.118   3.530 -0.2595 -0.8543 -1.7255
 8906TIP3   OH226674   4.578   5.765   1.843 -0.0112 -0.4371 -0.4072
 8906TIP3    H126675   4.601   5.826   1.913 -2.8205  1.0580 -0.6288
 8906TIP3    H226676   4.658   5.714   1.828  2.6210  3.2786 -0.3450
 8907TIP3   OH226677   0.296   6.926   4.882 -0.7227  0.2298 -0.2001
 8907TIP3    H126678   0.227   6.876   4.925 -1.3983  1.8325  0.6534
 8907TIP3    H226679   0.279   7.017   4.906  1.0189  0.7948 -0.9161
 8908TIP3   OH226680   0.401   4.219   0.835  0.3488  0.8262 -0.4691
 8908TIP3    H126681   0.332   4.274   0.798  1.1794  1.8062 -0.6155
 8908TIP3    H226682   0.449   4.276   0.894  0.5498 -0.0610  0.2534
 8909TIP3   OH226683   1.707   6.545   1.014 -0.0408 -0.0506 -0.6395
 8909TIP3    H126684   1.769   6.591   1.069  0.0874 -1.0145  0.0424
 8909TIP3    H226685   1.714   6.588   0.928 -0.0524  1.2822  0.0068
 8910TIP3   OH226686   1.707   5.121   0.621 -0.4990  0.4663  0.5689
 8910TIP3    H126687   1.682   5.196   0.674  0.5246  1.0970  0.1985
 8910TIP3    H226688   1.781   5.152   0.568  1.2373 -1.3272  1.7772
 8911TIP3   OH226689   3.966   1.094   2.885 -0.0749 -0.2183 -0.1080
 8911TIP3    H126690   4.023   1.115   2.811 -1.3262  0.3571 -0.9420
 8911TIP3    H226691   3.955   1.177   2.932 -0.3843 -0.2891 -0.0564
 8912TIP3   OH226692   2.250   7.115   5.164 -0.0609  0.2457  0.0817
 8912TIP3    H126693   2.313   7.180   5.133  0.0958 -0.3705 -0.9510
 8912TIP3    H226694   2.227   7.065   5.085 -4.0932  2.2855 -0.2463
 8913TIP3   OH226695   0.173   4.019   3.546  0.2049 -0.1140 -0.0787
 8913TIP3    H126696   0.123   4.066   3.480 -1.5829 -1.2124  0.4189
 8913TIP3    H226697   0.197   3.937   3.504  1.9129  0.5155 -0.4083
 8914TIP3   OH226698   0.899   5.461   2.100  0.6040 -1.0784  0.2235
 8914TIP3    H126699   0.851   5.543   2.095  0.2331 -1.0718  2.6649
 8914TIP3    H226700   0.896   5.425   2.012 -1.5897  0.2055 -0.2765
 8915TIP3   OH226701   0.798   7.203   0.539  1.1025  0.2819  0.5159
 8915TIP3    H126702   0.791   7.256   0.618  3.1562 -0.3241  1.1730
 8915TIP3    H226703   0.808   7.114   0.571 -0.7565 -0.3512 -0.5372
 8916TIP3   OH226704   3.117   5.095   2.249 -0.5444  0.0216 -0.4856
 8916TIP3    H126705   3.108   5.001   2.260  2.0922 -0.1719  0.8735
 8916TIP3    H226706   3.053   5.134   2.308  0.2762 -0.9833  1.1313
 8917TIP3   OH226707   1.403   4.891   6.051  0.6954  0.3483 -0.1465
 8917TIP3    H126708   1.333   4.850   6.001  1.0904  0.0263 -0.4488
 8917TIP3    H226709   1.359   4.949   6.113  0.2203  1.1814 -1.2434
 8918TIP3   OH226710   8.045   3.527   3.160 -0.6534  0.6642 -0.2718
 8918TIP3    H126711   8.138   3.515   3.142 -0.4503 -0.9887  1.5806
 8918TIP3    H226712   8.028   3.619   3.139  1.3373  0.9688 -0.7563
 8919TIP3   OH226713   5.821   4.133   3.045 -0.1996  0.6432  0.1000
 8919TIP3    H126714   5.894   4.075   3.065  0.7963  0.8477 -2.5524
 8919TIP3    H226715   5.744   4.077   3.050  0.5340 -0.4627 -0.4622
 8920TIP3   OH226716   5.360   6.702   2.198  0.1962 -0.1067  0.2785
 8920TIP3    H126717   5.324   6.779   2.243 -0.8072 -0.5699  0.3048
 8920TIP3    H226718   5.320   6.706   2.111  0.6508 -0.2452  0.0650
 8921TIP3   OH226719   2.248   5.425   4.872  0.0435  0.2492 -0.0111
 8921TIP3    H126720   2.277   5.483   4.942 -0.5093 -0.4208  0.7882
 8921TIP3    H226721   2.219   5.484   4.802  0.9710  0.9208  0.1512
 8922TIP3   OH226722   5.213   2.289   0.688 -0.4114  0.1997  0.0831
 8922TIP3    H126723   5.253   2.293   0.775 -1.1549  1.6538  0.3847
 8922TIP3    H226724   5.288   2.282   0.628  0.0752 -1.8565  0.8453
 8923TIP3   OH226725   3.709   6.487   6.314 -0.4383  0.5373 -0.3127
 8923TIP3    H126726   3.655   6.423   6.361 -0.5414  0.1258 -0.9839
 8923TIP3    H226727   3.791   6.440   6.297  0.4066  1.3624  1.2651
 8924TIP3   OH226728   7.015   5.475   6.406 -0.8429 -0.0789  0.0645
 8924TIP3    H126729   7.085   5.482   6.471  0.3130 -3.3470 -0.6298
 8924TIP3    H226730   7.031   5.548   6.346  2.3545 -0.8772 -0.2825
 8925TIP3   OH226731   8.208   6.879   2.032  0.2520  0.5375 -0.1538
 8925TIP3    H126732   8.270   6.874   2.105 -0.5924  0.7507  0.5965
 8925TIP3    H226733   8.176   6.789   2.022 -1.1231  0.8468  1.0923
 8926TIP3   OH226734   6.028   0.229   0.455  0.1461 -0.2721  0.5835
 8926TIP3    H126735   5.949   0.206   0.407  0.4135 -0.1644  0.0817
 8926TIP3    H226736   6.051   0.150   0.504 -0.7177 -0.0503  1.3707
 8927TIP3   OH226737   1.000   2.810   4.598  0.2148  0.3983 -0.2147
 8927TIP3    H126738   0.965   2.721   4.602  0.1291  0.4501  0.3673
 8927TIP3    H226739   1.080   2.806   4.652  0.8666  0.3928 -1.1485
 8928TIP3   OH226740   0.686   5.864   1.529 -0.9672 -0.1254  0.1470
 8928TIP3    H126741   0.607   5.876   1.476 -0.7744 -0.8837 -0.3218
 8928TIP3    H226742   0.657   5.874   1.619 -1.2915  1.2657 -0.0817
 8929TIP3   OH226743   3.981   2.553   5.470  0.3812 -0.0352 -0.0716
 8929TIP3    H126744   3.951   2.620   5.409 -0.5389 -2.2200 -2.1709
 8929TIP3    H226745   4.066   2.525   5.437  1.2409  0.7446  1.3792
 8930TIP3   OH226746   6.687   3.490   1.191  0.1866 -0.7124  0.1053
 8930TIP3    H126747   6.751   3.557   1.213  0.3309 -1.1857  1.2132
 8930TIP3    H226748   6.635   3.479   1.271 -0.0904 -1.6262 -0.1798
 8931TIP3   OH226749   6.977   0.654   0.990 -0.3498 -0.0502  0.0028
 8931TIP3    H126750   6.888   0.630   0.963 -0.5671  0.2117  0.4609
 8931TIP3    H226751   7.008   0.578   1.039 -1.0107  0.5426  1.3933
 8932TIP3   OH226752   8.026   5.993   6.148 -0.1288  0.5021 -0.0985
 8932TIP3    H126753   8.072   6.024   6.070 -0.7955 -1.4597 -1.3666
 8932TIP3    H226754   7.934   6.015   6.132 -0.3010 -0.1186 -0.0068
 8933TIP3   OH226755   8.228   2.655   5.444  0.0550 -1.0066 -0.2880
 8933TIP3    H126756   8.154   2.601   5.471 -0.4862 -0.4914 -0.7132
 8933TIP3    H226757   8.195   2.708   5.372  0.8481 -0.7891 -0.5086
 8934TIP3   OH226758   7.100   7.341   4.346  0.4765  0.1539 -0.6961
 8934TIP3    H126759   7.162   7.299   4.406  0.0277  0.3228 -0.1054
 8934TIP3    H226760   7.015   7.305   4.370  0.1686  0.9103 -0.6108
 8935TIP3   OH226761   6.362   5.673   4.343  0.1272  0.1297 -0.3797
 8935TIP3    H126762   6.393   5.587   4.314  0.7910  1.1033 -2.7370
 8935TIP3    H226763   6.439   5.729   4.337 -0.4272  1.0362  0.6537
 8936TIP3   OH226764   1.726   0.219   0.197  0.3828 -0.2022 -0.9192
 8936TIP3    H126765   1.819   0.243   0.198  0.3979 -0.2578 -0.1716
 8936TIP3    H226766   1.690   0.265   0.121  0.7319  0.9788 -0.3919
 8937TIP3   OH226767   6.366   2.554   2.047  0.1752 -0.4220  0.0527
 8937TIP3    H126768   6.327   2.641   2.041 -0.6021 -0.8104 -0.8451
 8937TIP3    H226769   6.427   2.559   2.121  0.6452  1.0680 -0.4077
 8938TIP3   OH226770   5.235   2.927   3.411  0.0346 -0.4370 -0.3398
 8938TIP3    H126771   5.140   2.937   3.402  0.2135  1.1797 -0.8232
 8938TIP3    H226772   5.269   3.017   3.406  1.5396 -0.9203  0.5415
 8939TIP3   OH226773   7.694   3.989   2.715 -0.5105 -0.6612 -0.1957
 8939TIP3    H126774   7.642   3.950   2.785  1.7564 -3.0900  0.2886
 8939TIP3    H226775   7.679   4.083   2.723 -3.0712 -1.1100  1.2374
 8940TIP3   OH226776   7.898   1.343   5.267  0.5372  0.4649 -0.3808
 8940TIP3    H126777   7.983   1.376   5.296  1.1145  1.0868 -2.6179
 8940TIP3    H226778   7.836   1.412   5.293  0.5470 -0.2424  1.7689
 8941TIP3   OH226779   6.809   3.556   5.617 -0.2882 -0.2623 -0.1594
 8941TIP3    H126780   6.771   3.566   5.530  0.1211 -1.2052 -0.4568
 8941TIP3    H226781   6.790   3.639   5.661  1.1404  1.0120 -1.7721
 8942TIP3   OH226782   0.092   2.877   2.172 -1.0174  0.2657 -0.2086
 8942TIP3    H126783   0.014   2.910   2.216 -0.2431 -0.7730  2.1456
 8942TIP3    H226784   0.063   2.801   2.123 -1.4311 -0.5631  1.2513
 8943TIP3   OH226785   7.769   4.265   4.831 -0.3134 -0.4470 -0.0183
 8943TIP3    H126786   7.815   4.186   4.861 -1.4313 -1.3144 -0.5253
 8943TIP3    H226787   7.681   4.235   4.810 -0.3410  0.6411 -1.6343
 8944TIP3   OH226788   1.063   6.597   2.838 -0.5916  0.5680  0.2197
 8944TIP3    H126789   1.021   6.536   2.778 -0.3998  0.1126  0.5409
 8944TIP3    H226790   1.069   6.549   2.921 -0.8766  1.1939  0.6078
 8945TIP3   OH226791   7.016   4.623   6.335 -0.1422 -0.2209 -0.0369
 8945TIP3    H126792   7.077   4.637   6.408  0.0787 -1.3011  0.0041
 8945TIP3    H226793   7.072   4.612   6.258 -0.2873 -0.7988 -0.0693
 8946TIP3   OH226794   6.751   5.174   2.393  0.0806  0.0348  0.3413
 8946TIP3    H126795   6.776   5.154   2.483  0.3924 -1.2543  0.0023
 8946TIP3    H226796   6.720   5.090   2.358 -1.2205  0.7757 -0.3876
 8947TIP3   OH226797   3.618   7.512   0.407 -0.4727  0.2560 -0.4592
 8947TIP3    H126798   3.666   7.506   0.490 -1.4732 -1.9149  0.0483
 8947TIP3    H226799   3.656   7.443   0.352  1.0730  2.5004 -2.3926
 8948TIP3   OH226800   7.152   2.516   4.152 -0.3299 -0.1266 -0.9915
 8948TIP3    H126801   7.163   2.609   4.133  0.4221  0.0833  0.3531
 8948TIP3    H226802   7.106   2.514   4.236 -1.7725 -1.0010 -1.7409
 8949TIP3   OH226803   3.622   0.965   4.790  0.2228 -0.4088  0.3136
 8949TIP3    H126804   3.667   0.880   4.793 -0.5723 -0.9860 -1.9532
 8949TIP3    H226805   3.647   1.003   4.706 -0.8163  0.8020  0.5134
 8950TIP3   OH226806   7.418   6.854   4.577  0.4185 -0.1775  0.1258
 8950TIP3    H126807   7.343   6.885   4.526 -0.5799 -0.2135  1.5246
 8950TIP3    H226808   7.425   6.761   4.554  0.3704 -0.0517 -0.4106
 8951TIP3   OH226809   0.764   1.944   3.739 -0.3375  0.0946  0.2742
 8951TIP3    H126810   0.786   1.860   3.778  0.6699 -1.0192 -2.4378
 8951TIP3    H226811   0.839   2.000   3.759 -0.7585  0.1968  1.6140
 8952TIP3   OH226812   0.306   0.120   5.216 -0.2490  0.2351  0.1350
 8952TIP3    H126813   0.298   0.208   5.180 -1.7292 -0.3884 -1.1601
 8952TIP3    H226814   0.375   0.128   5.282 -0.5188  2.3961  0.2295
 8953TIP3   OH226815   6.648   6.974   2.939  0.3070  0.2084  0.4326
 8953TIP3    H126816   6.592   7.014   2.873  0.9574  1.6451  0.7108
 8953TIP3    H226817   6.605   6.993   3.022 -0.1745 -1.0417  0.4977
 8954TIP3   OH226818   7.654   1.932   0.275 -0.0998  0.2834  0.0543
 8954TIP3    H126819   7.639   1.850   0.321 -1.7467  0.4616 -0.1313
 8954TIP3    H226820   7.673   1.996   0.344 -2.5488  0.5540  0.5558
 8955TIP3   OH226821   7.680   6.114   4.866 -0.7416  0.4225 -0.0917
 8955TIP3    H126822   7.612   6.121   4.799  0.6175 -1.8818 -1.8897
 8955TIP3    H226823   7.645   6.053   4.930 -0.5847 -0.3881 -0.7645
 8956TIP3   OH226824   2.278   3.426   4.250 -0.2584 -0.0803  0.1524
 8956TIP3    H126825   2.345   3.482   4.288  0.1162 -0.2075 -0.3196
 8956TIP3    H226826   2.284   3.440   4.156 -0.4813 -0.5521  0.0620
 8957TIP3   OH226827   2.684   6.245   1.314 -0.4756  0.0689  0.2084
 8957TIP3    H126828   2.645   6.184   1.251 -1.7441 -0.0602  1.0843
 8957TIP3    H226829   2.610   6.297   1.346  0.3423  0.9523  0.7040
 8958TIP3   OH226830   8.039   6.320   1.071 -0.3920  0.4818 -0.2001
 8958TIP3    H126831   8.081   6.366   1.143 -1.1176 -1.2056  1.3753
 8958TIP3    H226832   7.951   6.301   1.103 -0.5257 -0.8440 -1.2885
 8959TIP3   OH226833   0.020   0.990   3.754 -0.1775  0.3445 -0.6241
 8959TIP3    H126834  -0.071   1.016   3.767 -0.3411 -0.3980 -0.1685
 8959TIP3    H226835   0.067   1.071   3.738 -0.6689  0.9258  0.6931
 8960TIP3   OH226836   0.109   0.841   1.766  0.1850  0.1541 -0.3371
 8960TIP3    H126837   0.116   0.773   1.834  0.6194  0.4065 -0.1273
 8960TIP3    H226838   0.153   0.917   1.804 -0.9505  0.7936 -0.2742
 8961TIP3   OH226839   6.079   6.420   3.972  0.3380  0.1689 -0.0954
 8961TIP3    H126840   6.065   6.344   3.916  3.7559  0.0149 -0.9793
 8961TIP3    H226841   6.004   6.477   3.955 -1.0400 -1.8610 -1.3083
 8962TIP3   OH226842   5.002   1.591   3.505 -0.3957  0.0456  0.3578
 8962TIP3    H126843   5.075   1.530   3.499 -1.5208 -1.2918 -0.5416
 8962TIP3    H226844   5.017   1.653   3.433 -0.2042 -0.2878  0.1057
 8963TIP3   OH226845   5.634   2.155   6.120 -0.0199  0.1465 -0.2432
 8963TIP3    H126846   5.689   2.081   6.097 -2.0415 -2.4635  2.4891
 8963TIP3    H226847   5.575   2.166   6.045  0.6433 -0.6886 -0.8962
 8964TIP3   OH226848   5.378   0.615   0.780  0.1048  0.4710  0.2189
 8964TIP3    H126849   5.349   0.675   0.711 -1.9325 -2.1307 -1.3814
 8964TIP3    H226850   5.367   0.528   0.742  3.8819 -1.0255  2.0257
 8965TIP3   OH226851   1.556   6.238   2.016  0.5023 -0.2024  0.2649
 8965TIP3    H126852   1.505   6.232   2.097  0.1789 -1.0823  0.0105
 8965TIP3    H226853   1.546   6.152   1.975  0.1784  0.3998 -0.9953
 8966TIP3   OH226854   8.266   6.425   1.235 -0.3902 -0.0061  0.4167
 8966TIP3    H126855   8.242   6.399   1.324  1.4931  0.6154  1.1628
 8966TIP3    H226856   8.250   6.520   1.233 -0.6506 -0.0545  0.0038
 8967TIP3   OH226857   3.886   5.158   4.934  0.0923  0.1644 -0.3195
 8967TIP3    H126858   3.975   5.186   4.954  0.0450 -0.2135  0.4656
 8967TIP3    H226859   3.895   5.105   4.855  0.3060  1.5618 -1.2739
 8968TIP3   OH226860   7.542   7.194   5.476 -0.1437  0.2584 -0.3477
 8968TIP3    H126861   7.501   7.258   5.418  1.0833 -0.5187 -2.1584
 8968TIP3    H226862   7.634   7.221   5.480  0.0981 -0.5865  0.0187
 8969TIP3   OH226863   7.839   1.685   4.516  0.2653 -0.4043  0.3214
 8969TIP3    H126864   7.901   1.683   4.443  0.3844 -2.0084  0.4203
 8969TIP3    H226865   7.893   1.702   4.593  0.2387  0.5670  0.1361
 8970TIP3   OH226866   6.625   1.673   5.995 -0.2010 -0.1253 -0.2403
 8970TIP3    H126867   6.714   1.686   5.962  0.0641 -2.4533 -0.6006
 8970TIP3    H226868   6.573   1.653   5.918 -0.9285  0.6305  0.0426
 8971TIP3   OH226869   0.977   6.008   2.997  0.0949 -0.1894 -0.4792
 8971TIP3    H126870   0.884   5.986   3.008 -0.5863  2.0909 -1.0667
 8971TIP3    H226871   1.004   6.042   3.082  1.1028 -2.8878  0.3859
 8972TIP3   OH226872   5.876   4.302   5.942  0.0264  0.0985 -0.0365
 8972TIP3    H126873   5.828   4.283   5.862  0.9363 -0.8570 -0.3850
 8972TIP3    H226874   5.878   4.397   5.948 -0.6993  0.1667 -0.7452
 8973TIP3   OH226875   7.530   5.657   5.263  0.2105  0.1184 -0.2678
 8973TIP3    H126876   7.569   5.591   5.206 -2.0126 -1.1513 -0.4591
 8973TIP3    H226877   7.480   5.606   5.327  0.1567  1.6000  0.9215
 8974TIP3   OH226878   5.940   3.476   6.795 -0.5863 -0.0770 -0.1667
 8974TIP3    H126879   6.035   3.463   6.786 -0.3336  1.7374 -0.6221
 8974TIP3    H226880   5.902   3.432   6.719 -0.0522 -0.3356 -0.2858
 8975TIP3   OH226881   3.125   0.892   2.653  0.3058  0.2961  0.1609
 8975TIP3    H126882   3.093   0.904   2.743  0.0891  0.1917  0.0968
 8975TIP3    H226883   3.050   0.915   2.598  0.0783 -0.7379  0.0234
 8976TIP3   OH226884   1.175   1.048   3.825  0.2843 -0.3415  0.7025
 8976TIP3    H126885   1.167   0.986   3.753 -2.7391 -1.7931  2.1439
 8976TIP3    H226886   1.183   0.994   3.903 -0.8376  1.0788  1.8580
 8977TIP3   OH226887   4.629   3.377   5.319  0.1127  0.1211 -0.2783
 8977TIP3    H126888   4.615   3.283   5.335  0.8774  0.0515  0.0316
 8977TIP3    H226889   4.545   3.408   5.287 -0.3478 -0.5458  0.2347
 8978TIP3   OH226890   1.607   2.144   4.881  0.4247  0.1207 -0.7475
 8978TIP3    H126891   1.659   2.126   4.960 -0.9231 -2.2017 -0.2922
 8978TIP3    H226892   1.636   2.080   4.818 -0.0493  0.5270 -1.3926
 8979TIP3   OH226893   4.588   0.096   2.032  0.0689  0.6950  0.4416
 8979TIP3    H126894   4.666   0.070   1.983 -0.4900 -0.7973  0.2799
 8979TIP3    H226895   4.596   0.191   2.040  1.5118  0.6704 -0.2244
 8980TIP3   OH226896   0.912   4.701   3.284 -0.2231 -0.0466  0.1955
 8980TIP3    H126897   0.890   4.655   3.204  0.3066 -0.9330  0.5426
 8980TIP3    H226898   0.868   4.786   3.276 -0.8411 -0.4317 -0.6563
 8981TIP3   OH226899   3.955   5.117   0.795  0.1745 -0.1913  0.3240
 8981TIP3    H126900   3.915   5.031   0.780 -1.8038  0.7035  0.1987
 8981TIP3    H226901   3.979   5.148   0.708 -3.0244  1.1275 -0.2281
 8982TIP3   OH226902   3.540   6.533   4.091  0.6040 -0.1411 -0.5983
 8982TIP3    H126903   3.474   6.466   4.105 -0.8542  1.1533 -1.0010
 8982TIP3    H226904   3.595   6.530   4.169 -0.9735 -0.1111  0.5512
 8983TIP3   OH226905   5.031   1.590   1.155  0.5980 -0.0888  0.1115
 8983TIP3    H126906   5.006   1.504   1.122 -0.4970 -0.0693  0.8074
 8983TIP3    H226907   5.118   1.606   1.119  0.3379 -0.9793 -0.9678
 8984TIP3   OH226908   2.304   7.626   3.373 -0.1685  0.0338 -0.5295
 8984TIP3    H126909   2.305   7.663   3.461 -0.6732 -1.1673  0.0145
 8984TIP3    H226910   2.396   7.620   3.348  0.0417 -0.5438  0.3377
 8985TIP3   OH226911   3.066   7.547   1.229 -0.7991 -0.0999 -0.0728
 8985TIP3    H126912   3.060   7.523   1.321  1.0602 -0.1166  0.0763
 8985TIP3    H226913   3.140   7.608   1.225 -0.8836 -0.0640 -1.5419
 8986TIP3   OH226914   0.253   6.414   1.288  0.1890  0.3607 -0.5086
 8986TIP3    H126915   0.279   6.487   1.232  1.3144 -0.3290 -0.9045
 8986TIP3    H226916   0.159   6.405   1.274  0.2255  1.0626 -1.2485
 8987TIP3   OH226917   0.438   5.663   3.748  0.0741 -0.2102 -0.2614
 8987TIP3    H126918   0.485   5.633   3.826 -0.7371  2.2440  1.3227
 8987TIP3    H226919   0.469   5.753   3.734 -1.5245  0.2312 -1.2975
 8988TIP3   OH226920   1.163   7.707   4.176 -0.5902  0.0340 -0.6914
 8988TIP3    H126921   1.168   7.743   4.265  2.6606 -1.9668  0.0784
 8988TIP3    H226922   1.190   7.779   4.120  3.5764 -0.2822  0.6094
 8989TIP3   OH226923   2.572   5.950   3.512  0.2725  0.0648 -0.1317
 8989TIP3    H126924   2.507   5.992   3.569 -1.6123 -1.6607 -0.8650
 8989TIP3    H226925   2.563   5.996   3.428  0.6157  0.3753 -0.0009
 8990TIP3   OH226926   7.450   5.808   4.760 -0.4551 -0.1135  0.0827
 8990TIP3    H126927   7.471   5.820   4.852  0.3998  1.3087 -0.2688
 8990TIP3    H226928   7.524   5.759   4.725 -0.0022  0.7237 -0.1595
 8991TIP3   OH226929   5.535   1.757   0.323 -0.0090 -0.1986 -0.0339
 8991TIP3    H126930   5.471   1.822   0.350 -0.4002 -0.3982 -0.4666
 8991TIP3    H226931   5.528   1.755   0.227 -1.5517 -2.4472  0.0635
 8992TIP3   OH226932   3.987   2.864   1.718 -0.3134 -0.2955 -0.2953
 8992TIP3    H126933   3.934   2.784   1.723 -1.2870  0.3726  0.6463
 8992TIP3    H226934   3.927   2.934   1.746  0.2669  0.8958 -1.8457
 8993TIP3   OH226935   0.899   5.897   6.430  0.1038 -0.5568  0.2337
 8993TIP3    H126936   0.842   5.948   6.487  0.1758 -0.7785  0.5016
 8993TIP3    H226937   0.914   5.954   6.354 -0.0362 -0.2876  0.4087
 8994TIP3   OH226938   5.203   7.570   4.940  0.4250  0.1855  0.2506
 8994TIP3    H126939   5.172   7.576   4.850 -0.0984  0.0583  0.4199
 8994TIP3    H226940   5.175   7.651   4.981  0.4927  0.1568  0.3543
 8995TIP3   OH226941   1.014   6.377   6.297 -0.2085  0.6830 -0.4671
 8995TIP3    H126942   0.952   6.391   6.368  1.2097  1.9765  0.6067
 8995TIP3    H226943   1.070   6.454   6.299  3.5234 -1.7453  0.8677
 8996TIP3   OH226944   0.903   6.961   0.609  0.4116 -0.1304  0.6215
 8996TIP3    H126945   0.912   6.906   0.532 -0.7332 -0.4802  0.7150
 8996TIP3    H226946   0.859   6.905   0.674 -0.1977  0.6822  0.9337
 8997TIP3   OH226947   0.061   5.891   6.704 -0.2322 -0.1900  0.0362
 8997TIP3    H126948   0.034   5.828   6.637  0.4296  0.1199 -0.5302
 8997TIP3    H226949   0.153   5.871   6.720 -0.3908 -0.2852  0.8981
 8998TIP3   OH226950   2.824   7.458   2.382  0.4273  0.5352  0.0648
 8998TIP3    H126951   2.823   7.422   2.293 -0.6368  0.7865 -0.0405
 8998TIP3    H226952   2.912   7.441   2.414  0.7144  0.1201 -0.9118
 8999TIP3   OH226953   4.618   7.462   5.439  0.0727  0.4185  0.6262
 8999TIP3    H126954   4.556   7.505   5.381 -1.2401  0.2075  1.8093
 8999TIP3    H226955   4.595   7.369   5.436  1.0130  0.1890  0.2847
 9000TIP3   OH226956   0.640   1.625   6.376  0.1648 -0.1188  1.0394
 9000TIP3    H126957   0.581   1.563   6.333  0.4447  0.9170 -0.9806
 9000TIP3    H226958   0.583   1.687   6.421 -0.4581  1.4125 -1.6483
 9001TIP3   OH226959   2.565   2.633   1.701  0.2740 -0.5814 -0.1553
 9001TIP3    H126960   2.619   2.627   1.622 -0.7684 -0.0999 -0.9301
 9001TIP3    H226961   2.562   2.543   1.735  1.1091 -0.7097 -0.3915
 9002TIP3   OH226962   8.011   0.651   4.197  0.4101 -0.0563 -0.2101
 9002TIP3    H126963   8.073   0.719   4.223  1.5976 -0.9516 -0.5755
 9002TIP3    H226964   7.943   0.697   4.148  2.1246  0.6897 -2.0458
 9003TIP3   OH226965   0.190   6.815   0.045  0.4591 -0.2454 -0.0237
 9003TIP3    H126966   0.237   6.892   0.077  1.3173  0.0965 -1.9209
 9003TIP3    H226967   0.150   6.777   0.123  1.3856  1.1831  1.2158
 9004TIP3   OH226968   5.181   0.437   4.574  0.3674 -0.1199  0.3861
 9004TIP3    H126969   5.238   0.367   4.543 -0.1483 -0.8001  0.9452
 9004TIP3    H226970   5.156   0.483   4.494  2.4820  0.8380  0.2156
 9005TIP3   OH226971   2.968   3.140   5.069  0.1739  0.7733  0.3329
 9005TIP3    H126972   3.044   3.189   5.039  0.1061  0.5870 -0.1605
 9005TIP3    H226973   2.907   3.143   4.995 -0.2336  0.7874  0.6639
 9006TIP3   OH226974   3.741   7.001   2.405 -0.1469  0.0151  0.2622
 9006TIP3    H126975   3.687   6.923   2.391 -0.5943  0.4299 -0.3605
 9006TIP3    H226976   3.751   7.007   2.500 -0.1830 -0.7444  0.3221
 9007TIP3   OH226977   6.625   0.308   5.627  0.1529 -0.2096 -0.3218
 9007TIP3    H126978   6.543   0.346   5.594  0.3714  0.6110  0.0491
 9007TIP3    H226979   6.680   0.384   5.647  0.1067 -0.6730  1.7531
 9008TIP3   OH226980   5.625   4.321   2.403  0.3455 -0.2598 -0.1684
 9008TIP3    H126981   5.593   4.275   2.326  0.9038 -0.5064 -0.2608
 9008TIP3    H226982   5.679   4.256   2.449  0.2691 -0.0224  0.2658
 9009TIP3   OH226983   4.328   3.577   6.635 -0.1690 -0.4439  0.3337
 9009TIP3    H126984   4.319   3.498   6.582  0.8235 -1.5631  1.7619
 9009TIP3    H226985   4.417   3.572   6.671 -0.6724  0.4656  1.7861
 9010TIP3   OH226986   1.397   7.647   3.409 -0.1032  0.2754 -0.0017
 9010TIP3    H126987   1.336   7.586   3.367 -1.5424  0.9897  0.9768
 9010TIP3    H226988   1.344   7.723   3.431  0.6501  0.1342  2.6843
 9011TIP3   OH226989   8.107   2.265   5.665  0.0713 -0.7007  0.0615
 9011TIP3    H126990   8.112   2.296   5.574  1.8058 -1.5739 -0.1864
 9011TIP3    H226991   8.071   2.339   5.714  1.8641  0.8931 -0.8744
 9012TIP3   OH226992   6.307   1.124   1.569  0.4164 -0.4275  0.0836
 9012TIP3    H126993   6.343   1.166   1.647  0.2362  0.2363 -0.1933
 9012TIP3    H226994   6.313   1.030   1.589 -0.8846 -0.2596  1.4745
 9013TIP3   OH226995   2.678   3.960   0.794  0.6131 -0.8770 -0.4189
 9013TIP3    H126996   2.590   3.926   0.780  0.2168  0.0089 -0.1594
 9013TIP3    H226997   2.685   4.035   0.735  1.3131 -1.1375 -0.6748
 9014TIP3   OH226998   7.479   7.513   4.089  0.5044  0.1743 -0.1768
 9014TIP3    H126999   7.466   7.461   4.010 -0.3779 -0.1782  0.1936
 9014TIP3    H227000   7.488   7.449   4.159 -1.5477  0.4783  0.4358
 9015TIP3   OH227001   3.391   5.232   2.992  0.5380  0.3298 -0.7457
 9015TIP3    H127002   3.482   5.235   2.961  0.1435  1.3053 -1.9110
 9015TIP3    H227003   3.379   5.142   3.021  1.4116 -0.2617 -2.0959
 9016TIP3   OH227004   1.483   4.631   1.652 -0.6015 -0.0122  0.4586
 9016TIP3    H127005   1.476   4.706   1.711  1.4848  0.6149 -0.0060
 9016TIP3    H227006   1.573   4.633   1.621 -1.4212 -0.6939 -2.2699
 9017TIP3   OH227007   2.271   3.925   0.109  0.0445  0.1899  0.2748
 9017TIP3    H127008   2.276   3.845   0.160  0.8061 -0.0069 -0.0989
 9017TIP3    H227009   2.181   3.928   0.077  0.7154 -2.1248 -2.2564
 9018TIP3   OH227010   6.050   7.102   1.649 -0.3040  0.3215  0.3751
 9018TIP3    H127011   6.136   7.088   1.611 -0.0015 -1.8935  1.6856
 9018TIP3    H227012   6.031   7.021   1.696 -4.1661 -0.2871 -1.8112
 9019TIP3   OH227013   7.176   2.124   1.201 -0.1925  0.2817 -0.6271
 9019TIP3    H127014   7.161   2.202   1.256 -1.0855  0.2719 -0.8428
 9019TIP3    H227015   7.269   2.107   1.209 -0.2206  0.5837  0.4990
 9020TIP3   OH227016   8.194   3.472   0.844 -0.0257  0.0647 -0.1296
 9020TIP3    H127017   8.132   3.413   0.802 -0.6276  0.2369  0.5054
 9020TIP3    H227018   8.247   3.415   0.900 -0.4086  0.0710  0.2503
 9021TIP3   OH227019   7.942   2.639   6.271  0.0356 -0.1460 -0.5173
 9021TIP3    H127020   7.986   2.560   6.302  1.3669  1.3973  1.8884
 9021TIP3    H227021   8.013   2.697   6.244 -0.8582  0.5240 -1.5056
 9022TIP3   OH227022   3.567   1.487   3.916  0.4854  0.2522  0.1768
 9022TIP3    H127023   3.654   1.481   3.877  1.0171  0.9340  1.2074
 9022TIP3    H227024   3.507   1.490   3.842  1.2230 -1.5123 -0.5446
 9023TIP3   OH227025   4.549   3.189   0.528  0.1768  0.0682  0.0749
 9023TIP3    H127026   4.478   3.124   0.527 -1.1188  1.3998  1.0124
 9023TIP3    H227027   4.570   3.202   0.436 -0.0260 -1.1448 -0.1657
 9024TIP3   OH227028   8.262   2.244   1.424  0.3112  0.1115  0.3415
 9024TIP3    H127029   8.167   2.237   1.438  0.1384  2.6378  1.0427
 9024TIP3    H227030   8.272   2.244   1.329 -0.2533 -1.3067  0.2676
 9025TIP3   OH227031   6.958   7.270   4.963 -0.2688  0.2939 -0.1408
 9025TIP3    H127032   6.974   7.362   4.981 -0.1313  0.1579  0.4393
 9025TIP3    H227033   6.874   7.268   4.917 -1.2797  0.5316  1.6521
 9026TIP3   OH227034   3.689   2.216   3.989 -0.2095  0.5463 -0.4350
 9026TIP3    H127035   3.611   2.270   3.996 -0.3449  0.2554  0.3535
 9026TIP3    H227036   3.749   2.268   3.934 -1.6055 -0.0183 -2.6131
 9027TIP3   OH227037   7.459   2.237   0.976  0.3726 -0.0879  0.4747
 9027TIP3    H127038   7.413   2.192   0.905  1.2262 -0.7246  0.3102
 9027TIP3    H227039   7.468   2.170   1.044  2.5573 -0.5242 -0.1746
 9028TIP3   OH227040   0.809   7.567   1.978 -0.1899  0.3639 -0.7573
 9028TIP3    H127041   0.888   7.523   2.006  0.8553  3.3820  1.6602
 9028TIP3    H227042   0.840   7.648   1.937 -1.9111  2.0505  1.0510
 9029TIP3   OH227043   3.162   5.665   3.224  0.1244  0.3162 -0.5582
 9029TIP3    H127044   3.188   5.689   3.313 -1.1835  2.2105 -0.6369
 9029TIP3    H227045   3.168   5.569   3.222  0.7374  0.2827  1.3774
 9030TIP3   OH227046   4.226   0.052   2.044  0.1113 -0.2092  0.1062
 9030TIP3    H127047   4.299   0.028   2.100  1.4744  2.7603 -0.1981
 9030TIP3    H227048   4.184   0.125   2.088 -1.3671 -0.4642 -0.7852
 9031TIP3   OH227049   5.544   6.049   5.100 -0.1269 -0.2574  0.4661
 9031TIP3    H127050   5.492   5.975   5.069 -1.1274  1.8161 -3.4997
 9031TIP3    H227051   5.617   6.055   5.039  1.0608  0.8694  1.9232
 9032TIP3   OH227052   8.017   6.814   6.242  0.3735  0.1888 -0.3940
 9032TIP3    H127053   7.995   6.868   6.319  0.6525 -0.1040 -0.1081
 9032TIP3    H227054   8.065   6.740   6.278 -0.1431 -0.3327 -0.7744
 9033TIP3   OH227055   1.745   3.666   0.319  0.2401 -0.2208 -0.0493
 9033TIP3    H127056   1.742   3.726   0.394  0.2377 -0.5658  0.2289
 9033TIP3    H227057   1.757   3.723   0.243 -0.6720  0.1988  0.1157
 9034TIP3   OH227058   6.478   1.201   6.800 -0.0577 -0.4776  0.1607
 9034TIP3    H127059   6.423   1.178   6.725  0.3943 -2.0514  0.2748
 9034TIP3    H227060   6.565   1.169   6.776  0.5507  0.8193  0.5348
 9035TIP3   OH227061   6.522   0.892   0.550 -0.1527  0.4916  0.1611
 9035TIP3    H127062   6.542   0.845   0.631  0.1024  0.8891  0.3338
 9035TIP3    H227063   6.533   0.827   0.480  2.4244  0.8185  0.1578
 9036TIP3   OH227064   7.542   2.472   1.788 -0.0468 -0.4555 -0.0864
 9036TIP3    H127065   7.558   2.475   1.694  3.0069  0.3485  0.3433
 9036TIP3    H227066   7.510   2.559   1.811  0.8150 -0.1157 -0.1648
 9037TIP3   OH227067   4.244   3.728   0.823 -0.8449 -0.5374  0.0506
 9037TIP3    H127068   4.212   3.726   0.913 -0.2327 -1.5927  0.2657
 9037TIP3    H227069   4.168   3.750   0.770 -1.4475 -0.9646  0.7308
 9038TIP3   OH227070   1.798   0.224   0.988 -0.6550  0.3889  0.1698
 9038TIP3    H127071   1.793   0.134   1.021 -0.2280 -0.1818 -1.2403
 9038TIP3    H227072   1.714   0.263   1.012 -0.7336 -0.2861  1.0540
 9039TIP3   OH227073   5.932   4.441   6.568  0.5876 -0.3675  0.7700
 9039TIP3    H127074   5.992   4.515   6.565 -0.7782  0.7584  0.3029
 9039TIP3    H227075   5.870   4.464   6.637 -0.7165 -0.3693 -0.3737
 9040TIP3   OH227076   6.026   5.812   0.138 -0.2052 -0.3345 -0.0046
 9040TIP3    H127077   6.086   5.886   0.144  1.8223 -1.9164  0.4680
 9040TIP3    H227078   6.070   5.752   0.077 -0.8355 -1.9529  1.0864
 9041TIP3   OH227079   0.521   1.463   2.513 -0.1369 -0.4800 -0.0268
 9041TIP3    H127080   0.427   1.448   2.510 -0.1734 -0.3671  0.4292
 9041TIP3    H227081   0.534   1.543   2.462 -0.3223 -0.3460  0.1323
 9042TIP3   OH227082   1.792   4.667   1.618  0.0081  0.5385  0.4008
 9042TIP3    H127083   1.784   4.763   1.616  2.0164  0.7506 -0.8789
 9042TIP3    H227084   1.885   4.652   1.631 -0.0138 -1.2099 -1.0854
 9043TIP3   OH227085   5.380   6.539   0.724  0.4494 -0.5077 -0.3713
 9043TIP3    H127086   5.372   6.447   0.752 -0.3084 -0.2459  0.3174
 9043TIP3    H227087   5.349   6.538   0.634  0.4430 -0.9330 -0.3697
 9044TIP3   OH227088   4.119   3.742   5.685  0.3518 -0.1470  0.1030
 9044TIP3    H127089   4.118   3.728   5.780  0.8636  0.9020  0.2841
 9044TIP3    H227090   4.030   3.769   5.663  0.8583  2.2547  0.7535
 9045TIP3   OH227091   7.624   1.052   6.640  0.1317  0.2734  0.0961
 9045TIP3    H127092   7.603   1.118   6.574  2.2106  0.0184 -0.9200
 9045TIP3    H227093   7.582   0.972   6.607  0.8755  0.2246 -0.7984
 9046TIP3   OH227094   7.805   6.413   2.000  0.5297  0.3741 -0.1864
 9046TIP3    H127095   7.789   6.508   2.001  2.2552  0.7109  0.6197
 9046TIP3    H227096   7.900   6.406   1.985  0.2527 -1.2823 -1.4267
 9047TIP3   OH227097   8.046   3.244   4.259  0.3159 -0.4672 -0.9404
 9047TIP3    H127098   8.050   3.318   4.320 -1.4458  0.1106 -1.4843
 9047TIP3    H227099   8.084   3.277   4.178  0.6747 -0.5563 -0.8091
 9048TIP3   OH227100   1.706   0.729   4.295  0.2788 -0.9392  0.2514
 9048TIP3    H127101   1.614   0.742   4.317  0.4432 -0.2584  0.5681
 9048TIP3    H227102   1.706   0.657   4.232 -0.5242 -0.4724 -0.2871
 9049TIP3   OH227103   1.643   2.558   6.392 -0.1770 -0.2009  0.0400
 9049TIP3    H127104   1.666   2.649   6.371  0.1956 -0.1592  0.6232
 9049TIP3    H227105   1.578   2.534   6.325  0.1534  0.3020 -0.4719
 9050TIP3   OH227106   6.535   6.849   3.583  0.8175 -0.0329 -0.2094
 9050TIP3    H127107   6.598   6.921   3.572  2.3103 -1.1685  0.5911
 9050TIP3    H227108   6.451   6.893   3.594  1.4915  1.5493 -1.0336
 9051TIP3   OH227109   0.881   6.829   3.118  0.5140  0.6768  0.6117
 9051TIP3    H127110   0.794   6.817   3.158  0.7919  0.0530  1.0482
 9051TIP3    H227111   0.939   6.776   3.172  0.9477  0.0354 -0.4644
 9052TIP3   OH227112   5.566   1.986   3.654 -0.1373 -0.0286 -0.1552
 9052TIP3    H127113   5.500   2.000   3.586 -1.0917 -1.0683  0.5218
 9052TIP3    H227114   5.541   2.046   3.724  0.0548  0.0805 -0.1799
 9053TIP3   OH227115   3.273   0.438   4.913 -0.1652 -0.2247 -0.1014
 9053TIP3    H127116   3.241   0.421   5.002 -2.2680  0.7485 -0.6193
 9053TIP3    H227117   3.195   0.458   4.863  0.9061 -1.4329 -2.3758
 9054TIP3   OH227118   4.093   4.643   0.658  0.5750  0.5362  0.1896
 9054TIP3    H127119   4.041   4.641   0.739  0.5489 -1.2981  0.1518
 9054TIP3    H227120   4.165   4.703   0.678  1.3052 -0.8762  2.0517
 9055TIP3   OH227121   0.155   1.320   3.390  0.3039 -0.1350  0.2073
 9055TIP3    H127122   0.229   1.276   3.433  0.4735 -1.5643 -1.4390
 9055TIP3    H227123   0.196   1.382   3.329  0.1058  0.1863  0.3976
 9056TIP3   OH227124   1.252   3.768   3.201  0.3005  0.0141  0.1960
 9056TIP3    H127125   1.252   3.843   3.142 -0.4188 -0.6872 -0.7389
 9056TIP3    H227126   1.233   3.805   3.287 -1.5047  0.7710 -0.4749
 9057TIP3   OH227127   6.753   3.983   1.495  0.1390  0.0976 -0.1151
 9057TIP3    H127128   6.735   4.071   1.526  0.7399  1.0251 -2.2064
 9057TIP3    H227129   6.691   3.970   1.423  0.1721 -1.1424  0.0493
 9058TIP3   OH227130   7.701   2.553   6.148 -0.0799 -0.4306  0.2283
 9058TIP3    H127131   7.729   2.518   6.064 -0.5114 -2.7490  0.9931
 9058TIP3    H227132   7.780   2.592   6.186 -0.2468  2.4201 -1.9588
 9059TIP3   OH227133   6.611   4.751   1.141  0.6489  0.4172 -0.2869
 9059TIP3    H127134   6.679   4.701   1.187  0.4092  1.3221  1.1355
 9059TIP3    H227135   6.536   4.749   1.200  0.2091  1.3579 -0.7895
 9060TIP3   OH227136   0.928   2.882   5.399 -0.4849 -0.1195 -0.0943
 9060TIP3    H127137   0.836   2.880   5.371 -0.3883 -1.3768 -0.3799
 9060TIP3    H227138   0.977   2.855   5.321 -0.0557 -1.6743  0.6797
 9061TIP3   OH227139   0.777   7.674   2.961 -0.5446 -0.2023 -0.3059
 9061TIP3    H127140   0.698   7.701   3.008  0.2093 -0.2650  1.0666
 9061TIP3    H227141   0.747   7.651   2.873 -2.0033 -0.0051  0.1213
 9062TIP3   OH227142   5.023   4.539   0.700  0.3059  0.1460  0.8348
 9062TIP3    H127143   5.076   4.477   0.750 -0.0245 -0.2108  0.7482
 9062TIP3    H227144   4.987   4.488   0.628 -0.4160  0.3063  1.0747
 9063TIP3   OH227145   2.464   4.978   4.905 -0.2121 -0.2312 -0.1849
 9063TIP3    H127146   2.411   4.942   4.834 -2.0469  1.7754  0.0649
 9063TIP3    H227147   2.469   5.072   4.886  2.0148 -0.1242  0.6451
 9064TIP3   OH227148   2.232   4.530   3.494 -0.1697  0.0313 -0.0863
 9064TIP3    H127149   2.139   4.510   3.494 -0.0353 -0.6220 -0.2542
 9064TIP3    H227150   2.237   4.622   3.520 -0.6233 -0.9333  4.1429
 9065TIP3   OH227151   0.387   3.468   3.765 -0.1011 -0.2321 -0.2515
 9065TIP3    H127152   0.415   3.497   3.851  1.5407 -1.8911 -0.1691
 9065TIP3    H227153   0.294   3.447   3.776 -0.1489  0.4755  0.8455
 9066TIP3   OH227154   6.893   4.526   1.708 -0.2319 -0.3293 -0.2132
 9066TIP3    H127155   6.817   4.471   1.686  0.3399 -1.6472  0.9031
 9066TIP3    H227156   6.856   4.598   1.758 -0.8843 -0.2823 -0.7386
 9067TIP3   OH227157   4.513   4.369   4.030 -0.3273 -0.3700 -0.2311
 9067TIP3    H127158   4.528   4.275   4.033 -1.8855 -0.6438  0.2048
 9067TIP3    H227159   4.520   4.392   3.937 -1.4843 -1.2284 -0.5567
 9068TIP3   OH227160   7.327   5.519   4.661 -0.0745  0.1647 -0.2945
 9068TIP3    H127161   7.409   5.567   4.663  0.1259 -0.1641  2.3337
 9068TIP3    H227162   7.283   5.542   4.742 -0.5027 -3.0865  0.5478
 9069TIP3   OH227163   0.199  -0.008   3.133 -0.2963  0.2017  0.3200
 9069TIP3    H127164   0.241  -0.028   3.216 -0.8788  2.5932  1.2803
 9069TIP3    H227165   0.262   0.046   3.086 -0.3840 -0.2656 -0.3545
 9070TIP3   OH227166   4.764   4.530   3.495  0.4239  0.0141  0.3006
 9070TIP3    H127167   4.777   4.583   3.574  1.2238 -0.4326  0.4842
 9070TIP3    H227168   4.670   4.515   3.491  0.2676  0.8492  0.6360
 9071TIP3   OH227169   2.006   7.323   0.662  0.2030 -0.2286  0.0344
 9071TIP3    H127170   1.943   7.357   0.726  0.2740  0.1763 -0.1128
 9071TIP3    H227171   1.986   7.229   0.657 -1.3080  0.1101 -1.0411
 9072TIP3   OH227172   1.246   7.366   6.503  0.2430 -0.5536 -0.6868
 9072TIP3    H127173   1.189   7.409   6.439  0.3462 -1.1104 -1.1630
 9072TIP3    H227174   1.304   7.311   6.450  1.4943  0.2886 -0.2435
 9073TIP3   OH227175   2.646   0.094   4.415 -0.5500  0.3387  0.2867
 9073TIP3    H127176   2.658   0.001   4.433  0.8428  0.8304  2.2077
 9073TIP3    H227177   2.591   0.096   4.336  1.0514 -2.1050 -1.0241
 9074TIP3   OH227178   7.821   6.913   0.876 -1.3541  0.1441  0.1039
 9074TIP3    H127179   7.889   6.969   0.914 -0.0280 -1.1445 -0.2929
 9074TIP3    H227180   7.839   6.914   0.782 -1.9400 -0.1651 -0.0168
 9075TIP3   OH227181   1.660   5.099   4.848  0.6138  0.0210 -0.8498
 9075TIP3    H127182   1.693   5.137   4.929 -2.7933  0.8661  0.3238
 9075TIP3    H227183   1.591   5.038   4.876 -0.4982  0.1345 -3.0646
 9076TIP3   OH227184   1.850   6.358   2.776  0.0625 -0.4399 -0.1870
 9076TIP3    H127185   1.941   6.339   2.800 -0.0961 -1.4452 -0.3588
 9076TIP3    H227186   1.804   6.362   2.860  0.5392  1.7580  0.0434
 9077TIP3   OH227187   2.094   1.884   1.588 -0.0852 -0.3785 -0.3596
 9077TIP3    H127188   2.002   1.880   1.613 -0.4671 -1.9446 -1.8467
 9077TIP3    H227189   2.105   1.971   1.551 -1.6719 -1.0325 -2.5479
 9078TIP3   OH227190   6.860   1.746   4.037  0.2916  0.0448 -0.0507
 9078TIP3    H127191   6.783   1.721   3.986  0.5433  1.2121 -1.0352
 9078TIP3    H227192   6.933   1.706   3.991  0.4157  0.1854  0.0251
 9079TIP3   OH227193   7.898   7.503   5.610  0.3127  0.2684  0.1467
 9079TIP3    H127194   7.816   7.543   5.583 -0.0268 -1.3085 -1.3256
 9079TIP3    H227195   7.960   7.527   5.541  1.3449  2.0064  1.5719
 9080TIP3   OH227196   6.072   0.142   0.071  0.0605 -0.5687 -0.2650
 9080TIP3    H127197   6.008   0.119   0.004  1.7583  0.3683 -2.3376
 9080TIP3    H227198   6.111   0.058   0.097 -1.1085 -1.0121  0.1187
 9081TIP3   OH227199   1.532   0.553   4.009  0.2400 -0.2446 -0.3151
 9081TIP3    H127200   1.582   0.513   4.080  0.8082 -0.6299 -0.9267
 9081TIP3    H227201   1.593   0.613   3.967 -1.1857  3.0846  1.9525
 9082TIP3   OH227202   0.535   5.094   1.507  0.2754 -0.4799  0.1180
 9082TIP3    H127203   0.537   5.059   1.596  1.8023  0.8075  0.6489
 9082TIP3    H227204   0.580   5.028   1.455  0.0580 -0.8906  0.4385
 9083TIP3   OH227205   4.121   0.018   1.760  0.4010 -0.1088  0.6232
 9083TIP3    H127206   4.170  -0.030   1.826  0.5876 -0.2576  0.3772
 9083TIP3    H227207   4.176   0.092   1.738  1.5717 -1.4644 -1.2842
 9084TIP3   OH227208   0.571   6.312   1.914 -0.3402  0.3954  0.0606
 9084TIP3    H127209   0.634   6.271   1.856  2.7962  1.8256  2.2048
 9084TIP3    H227210   0.556   6.247   1.983 -0.8333  0.2591 -0.1690
 9085TIP3   OH227211   2.094   0.840   3.741  0.3690  0.6379  0.5833
 9085TIP3    H127212   2.031   0.876   3.679  0.1931  0.0325  0.4007
 9085TIP3    H227213   2.041   0.808   3.814  0.2496 -1.5789 -0.3940
 9086TIP3   OH227214   5.524   0.993   0.034 -0.1040 -0.6282 -0.2226
 9086TIP3    H127215   5.457   1.032  -0.022 -1.1482 -0.4293  1.1211
 9086TIP3    H227216   5.603   1.044   0.015 -0.1103 -1.3298 -2.3543
 9087TIP3   OH227217   5.789   0.553   0.541  0.3759  0.1842 -0.1547
 9087TIP3    H127218   5.698   0.524   0.543 -0.3292  1.7498 -3.2980
 9087TIP3    H227219   5.786   0.644   0.570  1.2351 -0.1927  1.2173
 9088TIP3   OH227220   6.374   4.882   3.014  0.1386 -0.0708  0.0978
 9088TIP3    H127221   6.336   4.854   3.098 -2.1241 -0.8889 -1.1181
 9088TIP3    H227222   6.347   4.974   3.005  0.6873  0.1253  0.4090
 9089TIP3   OH227223   3.227   2.452   5.775  0.3448  0.4950  0.1524
 9089TIP3    H127224   3.298   2.472   5.837 -1.6393  0.6953  2.5402
 9089TIP3    H227225   3.188   2.537   5.755 -0.9421  0.1754  1.1488
 9090TIP3   OH227226   0.529   5.080   4.831  0.3591  0.3229  0.2628
 9090TIP3    H127227   0.454   5.061   4.775  1.0160 -0.1610 -0.4772
 9090TIP3    H227228   0.492   5.124   4.907 -0.6015  0.6412 -0.3710
 9091TIP3   OH227229   1.621   5.825   6.461  0.2008  0.2840 -0.2993
 9091TIP3    H127230   1.571   5.769   6.402  0.6360 -0.5651  0.1028
 9091TIP3    H227231   1.600   5.792   6.548  1.8411 -0.4733 -0.1428
 9092TIP3   OH227232   2.123   2.727   4.970  0.0675  0.3507  0.5941
 9092TIP3    H127233   2.173   2.663   5.021  0.8039  2.2238  2.3319
 9092TIP3    H227234   2.151   2.812   5.004 -2.2991  1.5598 -0.2781
 9093TIP3   OH227235   2.909   7.034   0.324 -0.0047  0.3243  0.0976
 9093TIP3    H127236   2.974   7.033   0.395 -0.3211  1.4526  0.4278
 9093TIP3    H227237   2.922   6.951   0.279  0.2932 -0.3721  1.4084
 9094TIP3   OH227238   5.465   0.796   3.432  0.2687 -0.2655  0.3963
 9094TIP3    H127239   5.526   0.762   3.497 -0.6196  0.9194  1.9232
 9094TIP3    H227240   5.520   0.847   3.373  1.2847 -2.4274 -0.6389
 9095TIP3   OH227241   3.053   6.916   2.483 -0.2264 -0.2774  0.1616
 9095TIP3    H127242   3.055   7.010   2.498 -1.9305 -0.4168  1.5421
 9095TIP3    H227243   3.017   6.907   2.395 -1.7538  0.3705  0.6800
 9096TIP3   OH227244   7.375   6.843   5.796  0.7371  0.0581  0.0761
 9096TIP3    H127245   7.330   6.815   5.716 -0.9763  0.5716  0.8130
 9096TIP3    H227246   7.403   6.761   5.837  0.3796 -0.2857 -0.3567
 9097TIP3   OH227247   0.180   4.591   3.366 -0.0105  0.1302  0.6660
 9097TIP3    H127248   0.264   4.612   3.323  1.3990 -0.0620  3.1404
 9097TIP3    H227249   0.180   4.496   3.373 -0.4671  0.1283  0.6763
 9098TIP3   OH227250   7.237   0.032   4.648  0.4970 -0.3019 -0.5135
 9098TIP3    H127251   7.314  -0.020   4.624  1.7056  0.5737  1.2856
 9098TIP3    H227252   7.234   0.102   4.583  1.4284 -0.1348 -0.3779
 9099TIP3   OH227253   2.342   6.401   0.840 -0.4800 -0.5977  0.7235
 9099TIP3    H127254   2.401   6.378   0.913  1.3564  0.8557 -0.1917
 9099TIP3    H227255   2.309   6.317   0.809  0.3630 -1.4181  1.9029
 9100TIP3   OH227256   3.820   7.587   3.989 -0.0991  0.2064  0.2661
 9100TIP3    H127257   3.791   7.525   4.055  1.0448  0.9806  1.5621
 9100TIP3    H227258   3.880   7.646   4.036  1.4058  0.3019 -1.6215
 9101TIP3   OH227259   1.503   6.851   2.340 -0.1749 -0.3616 -0.3661
 9101TIP3    H127260   1.537   6.940   2.349 -0.4272 -0.1115 -1.6917
 9101TIP3    H227261   1.417   6.862   2.299  0.5422 -1.2717 -2.2774
 9102TIP3   OH227262   2.925   2.217   0.446 -0.2282  0.5056 -0.0295
 9102TIP3    H127263   3.011   2.175   0.446 -1.0119 -1.2725  1.6887
 9102TIP3    H227264   2.911   2.243   0.355  2.1729  1.0123 -0.3187
 9103TIP3   OH227265   0.896   3.160   1.982 -0.3130 -0.1369 -0.4673
 9103TIP3    H127266   0.940   3.195   2.059  1.2893 -0.4274 -1.1976
 9103TIP3    H227267   0.896   3.232   1.919 -0.8969 -0.1385 -0.4707
 9104TIP3   OH227268   4.080   3.432   3.063 -0.0959 -0.6789  0.6193
 9104TIP3    H127269   4.130   3.364   3.018  1.1871 -0.7072  2.0120
 9104TIP3    H227270   4.065   3.396   3.151 -1.1128  0.0379  0.7545
 9105TIP3   OH227271   6.904   1.989   0.798 -0.0704 -0.1783 -0.3409
 9105TIP3    H127272   6.967   1.987   0.870 -0.1470  0.4436 -0.2463
 9105TIP3    H227273   6.824   2.023   0.837 -0.3271 -0.5177 -0.5657
 9106TIP3   OH227274   5.394   6.187   6.041 -0.0906 -0.4142 -0.0014
 9106TIP3    H127275   5.365   6.277   6.057 -1.1651 -1.0278  1.8644
 9106TIP3    H227276   5.368   6.139   6.120 -0.7183 -2.6438 -1.4593
 9107TIP3   OH227277   3.304   2.563   3.412 -0.0209 -0.2403  0.0799
 9107TIP3    H127278   3.353   2.489   3.449 -0.1752  0.2902  1.3780
 9107TIP3    H227279   3.221   2.525   3.382 -0.0639 -0.6067  0.6584
 9108TIP3   OH227280   1.781   2.041   4.224  0.0982 -0.4059 -0.1536
 9108TIP3    H127281   1.773   1.964   4.167 -1.6572  0.2960 -0.9310
 9108TIP3    H227282   1.758   2.115   4.168  2.1644  0.7886  0.4535
 9109TIP3   OH227283   4.726   2.383   6.589  0.2278  0.1148  0.0244
 9109TIP3    H127284   4.741   2.472   6.557 -0.2948 -0.1027 -0.8579
 9109TIP3    H227285   4.811   2.355   6.622  0.5025  0.7792 -0.0952
 9110TIP3   OH227286   6.958   5.734   4.220 -0.3220 -0.6300  0.1330
 9110TIP3    H127287   7.022   5.678   4.175  2.3334  0.4620  2.2446
 9110TIP3    H227288   6.913   5.675   4.281 -0.4243 -1.1889 -0.4737
 9111TIP3   OH227289   3.585   5.925   3.975  0.1053 -0.2383  0.4010
 9111TIP3    H127290   3.616   5.950   3.889  0.5490 -0.7841  0.3966
 9111TIP3    H227291   3.628   5.987   4.035 -1.1171  0.9028  0.1481
 9112TIP3   OH227292   2.821   2.096   0.997  0.4014  0.0311 -1.0263
 9112TIP3    H127293   2.836   2.123   0.906 -0.9863  0.4229 -1.1629
 9112TIP3    H227294   2.766   2.165   1.033  0.1258 -0.6248 -0.1703
 9113TIP3   OH227295   5.306   7.598   3.083  0.6881 -0.0922  0.2280
 9113TIP3    H127296   5.389   7.633   3.117  0.3365 -0.0097  1.0166
 9113TIP3    H227297   5.320   7.593   2.989  1.1094  1.2132  0.1984
 9114TIP3   OH227298   3.988   1.777   5.242  0.0996  0.4714 -0.2775
 9114TIP3    H127299   4.049   1.738   5.305  0.7436  0.0784 -1.1211
 9114TIP3    H227300   3.997   1.871   5.255  0.0896  0.3954  0.3388
 9115TIP3   OH227301   0.631   1.111   5.409 -0.2751 -0.3853 -0.3565
 9115TIP3    H127302   0.715   1.157   5.404 -1.1510  1.2339 -0.9480
 9115TIP3    H227303   0.654   1.019   5.422  1.6220 -0.2939 -2.6136
 9116TIP3   OH227304   4.729   4.515   6.558 -0.1376  0.2282 -0.1706
 9116TIP3    H127305   4.768   4.436   6.521 -2.2427 -1.4248  0.8907
 9116TIP3    H227306   4.793   4.546   6.622  0.4411 -1.0077 -0.1317
 9117TIP3   OH227307   6.226   1.043   4.154 -0.1652 -0.2037 -0.2379
 9117TIP3    H127308   6.215   0.976   4.087 -0.0614  1.5945 -2.1630
 9117TIP3    H227309   6.137   1.073   4.173 -0.3517 -1.6863  1.6127
 9118TIP3   OH227310   6.374   0.154   2.980  0.7125 -0.2168  0.2034
 9118TIP3    H127311   6.355   0.224   3.044 -0.2546 -1.1699  1.0052
 9118TIP3    H227312   6.288   0.123   2.953  1.1062 -1.9783  0.8628
 9119TIP3   OH227313   1.994   0.101   4.025 -0.4736 -0.4746  0.6296
 9119TIP3    H127314   1.964   0.040   4.093 -1.0832  1.5957  2.3150
 9119TIP3    H227315   2.081   0.070   4.002 -0.3235 -1.3596  2.2215
 9120TIP3   OH227316   0.878   5.094   6.121  0.6489  0.2360  0.0264
 9120TIP3    H127317   0.887   5.063   6.030  1.1304  0.2941  0.0538
 9120TIP3    H227318   0.843   5.183   6.112  0.6703  0.2323 -0.1004
 9121TIP3   OH227319   5.089   1.442   0.835  0.0471  0.2775  0.4277
 9121TIP3    H127320   5.103   1.348   0.826 -0.5241  0.1088  1.1184
 9121TIP3    H227321   5.176   1.481   0.836  0.2547 -0.1052 -1.1353
 9122TIP3   OH227322   2.607   7.491   0.438  0.0310  0.1962 -0.1360
 9122TIP3    H127323   2.627   7.413   0.490  0.9559 -0.0187 -0.7875
 9122TIP3    H227324   2.537   7.463   0.379 -2.3907  0.9491  2.1547
 9123TIP3   OH227325   5.652   4.582   4.728  0.3435  0.4057  0.0373
 9123TIP3    H127326   5.745   4.601   4.740  0.2229  1.1495 -0.1449
 9123TIP3    H227327   5.646   4.537   4.643  0.6480 -0.5918  0.5286
 9124TIP3   OH227328   3.632   5.330   1.711  0.2039 -0.1713 -0.3250
 9124TIP3    H127329   3.717   5.361   1.741  0.4643  0.1577 -1.3361
 9124TIP3    H227330   3.617   5.378   1.629 -1.6172  0.8542  0.5484
 9125TIP3   OH227331   0.937   6.217   2.329 -1.0597  0.0178  0.0068
 9125TIP3    H127332   1.012   6.268   2.300 -0.8491  1.0367  2.1104
 9125TIP3    H227333   0.908   6.170   2.251  1.2691  0.1871 -1.0503
 9126TIP3   OH227334   2.952   0.898   2.402 -0.6515 -0.1131 -0.4327
 9126TIP3    H127335   2.964   0.918   2.310  1.5908  0.1791 -0.1211
 9126TIP3    H227336   2.917   0.809   2.403  1.4786 -1.0165 -1.5438
 9127TIP3   OH227337   6.624   1.876   3.594 -0.2128 -0.1212  0.4585
 9127TIP3    H127338   6.656   1.825   3.520 -0.3530 -1.1052  1.0668
 9127TIP3    H227339   6.628   1.967   3.564 -2.2577 -0.5898 -1.5535
 9128TIP3   OH227340   0.872   0.078   3.568  0.4376 -0.1712  0.1139
 9128TIP3    H127341   0.819   0.020   3.512 -0.5203 -0.3854  1.2124
 9128TIP3    H227342   0.874   0.161   3.520 -1.7979  0.1755  0.5031
 9129TIP3   OH227343   2.505   2.551   5.203 -0.1527  0.1510  0.4380
 9129TIP3    H127344   2.582   2.501   5.174  0.0065  1.4144 -1.4493
 9129TIP3    H227345   2.485   2.514   5.289  0.7456 -2.2539 -0.2903
 9130TIP3   OH227346   3.429   4.441   4.050 -0.1415 -0.1340 -0.2828
 9130TIP3    H127347   3.368   4.453   3.976 -0.8024  0.7629  0.3780
 9130TIP3    H227348   3.463   4.529   4.066 -0.4113 -0.2153  0.8064
 9131TIP3   OH227349   6.636   2.766   4.307  0.0018  0.2300 -0.5552
 9131TIP3    H127350   6.622   2.781   4.213 -1.9046 -0.0503 -0.3576
 9131TIP3    H227351   6.642   2.854   4.344 -1.9475  0.4403 -0.6204
 9132TIP3   OH227352   3.246   6.894   4.002 -0.6392 -0.1199 -0.2206
 9132TIP3    H127353   3.289   6.977   3.979  0.2462 -0.8053 -1.1412
 9132TIP3    H227354   3.281   6.831   3.939 -0.0882 -1.5481  1.4484
 9133TIP3   OH227355   0.907   1.427   2.164 -0.0014  0.4542 -0.1490
 9133TIP3    H127356   0.998   1.441   2.137 -0.1554  2.0554  0.0673
 9133TIP3    H227357   0.911   1.351   2.223  1.0955  0.1400 -0.5987
 9134TIP3   OH227358   3.227   2.619   0.075  0.4265  0.1594 -1.1367
 9134TIP3    H127359   3.239   2.708   0.041  0.5720  0.6179  0.0706
 9134TIP3    H227360   3.195   2.632   0.164 -0.6161 -1.0170 -1.3196
 9135TIP3   OH227361   7.963   0.117   5.182  0.0825 -0.3167 -0.1245
 9135TIP3    H127362   7.994   0.055   5.247  0.3189 -0.0410  0.0264
 9135TIP3    H227363   7.897   0.068   5.133 -0.0640 -0.5432  0.2875
 9136TIP3   OH227364   7.118   6.593   3.447  0.2455  0.1026  0.2575
 9136TIP3    H127365   7.045   6.532   3.447  0.4635 -0.1735 -1.0439
 9136TIP3    H227366   7.135   6.611   3.355  1.2718  0.8285  0.5691
 9137TIP3   OH227367   0.466   2.191   4.939  0.4459  0.4032  0.4387
 9137TIP3    H127368   0.372   2.204   4.930  0.2917  0.4134  1.7643
 9137TIP3    H227369   0.489   2.238   5.020  1.7666  1.1942 -0.3565
 9138TIP3   OH227370   6.321   2.591   3.322 -0.1908  0.2911 -0.3612
 9138TIP3    H127371   6.310   2.514   3.267 -0.0980 -0.0850  0.1402
 9138TIP3    H227372   6.254   2.652   3.291  0.4615  0.4614 -1.5170
 9139TIP3   OH227373   0.458   1.530   4.900  0.2710  0.2575 -0.2400
 9139TIP3    H127374   0.385   1.592   4.902 -0.8953 -1.0515 -0.2403
 9139TIP3    H227375   0.478   1.518   4.808  0.4659  0.6118 -0.2413
 9140TIP3   OH227376   3.120   6.849   4.965  0.1514 -0.8922  0.1359
 9140TIP3    H127377   3.092   6.841   5.056 -0.0270 -2.2766 -0.0168
 9140TIP3    H227378   3.044   6.821   4.914 -0.0108  0.6029 -0.4793
 9141TIP3   OH227379   2.058   7.770   0.580  0.2584  0.3449  0.6030
 9141TIP3    H127380   2.087   7.682   0.555 -0.3519  0.3777 -0.2927
 9141TIP3    H227381   1.990   7.754   0.645  1.7480  0.2500  2.1921
 9142TIP3   OH227382   6.130   3.455   0.313  0.2511 -0.5511 -0.3818
 9142TIP3    H127383   6.043   3.488   0.339  0.5122  0.3294 -0.5830
 9142TIP3    H227384   6.113   3.368   0.278 -0.8742  0.3593 -2.3190
 9143TIP3   OH227385   2.001   0.824   0.320 -0.4531 -0.3413 -0.1623
 9143TIP3    H127386   1.965   0.840   0.407  1.1008  0.4460  0.3685
 9143TIP3    H227387   1.979   0.733   0.301  0.4963 -1.0121  1.7233
 9144TIP3   OH227388   8.029   0.210   3.979 -0.3610 -0.2701 -0.4396
 9144TIP3    H127389   8.004   0.196   3.888 -2.5304 -1.4478  0.2650
 9144TIP3    H227390   7.987   0.293   4.003 -0.0163 -0.0988 -0.4134
 9145TIP3   OH227391   1.671   5.994   5.314  0.0889  0.6338 -0.5033
 9145TIP3    H127392   1.646   5.995   5.407  2.1258 -0.2643  0.1201
 9145TIP3    H227393   1.681   5.902   5.292  0.2228  0.8603 -1.4358
 9146TIP3   OH227394   4.208   3.892   2.293  0.4168  0.3603 -0.5919
 9146TIP3    H127395   4.192   3.986   2.303  1.2242  0.5094 -0.6415
 9146TIP3    H227396   4.204   3.877   2.199  1.0142  0.4838 -0.6396
 9147TIP3   OH227397   4.556   4.258   5.787  0.3006 -0.1449  0.0714
 9147TIP3    H127398   4.540   4.188   5.725  2.0612  0.3660 -1.0091
 9147TIP3    H227399   4.469   4.280   5.821 -1.0902  0.9712 -3.7483
 9148TIP3   OH227400   3.172   2.720   2.149  0.6160  0.5976 -0.3168
 9148TIP3    H127401   3.205   2.809   2.150  0.4256  0.6636  0.1604
 9148TIP3    H227402   3.114   2.717   2.073  1.9662  0.3791 -1.3827
 9149TIP3   OH227403   5.303   5.864   4.611 -0.6258 -0.3001 -0.3906
 9149TIP3    H127404   5.242   5.935   4.635  0.4379 -0.0882  1.9397
 9149TIP3    H227405   5.251   5.784   4.621 -1.1415 -0.0076 -0.6467
 9150TIP3   OH227406   6.953   4.832   0.635 -0.1710 -0.5010  0.2805
 9150TIP3    H127407   7.007   4.802   0.708 -2.1692  0.1561  2.1439
 9150TIP3    H227408   6.892   4.760   0.618  0.2089 -0.6040 -0.6793
 9151TIP3   OH227409   4.673   4.946   0.309  0.0563  0.4509  0.2022
 9151TIP3    H127410   4.759   4.957   0.270 -0.2053  1.1539 -0.2050
 9151TIP3    H227411   4.648   4.856   0.291  0.5042  0.3888 -0.0920
 9152TIP3   OH227412   3.784   7.481   1.773 -0.1256 -0.1267 -0.1390
 9152TIP3    H127413   3.740   7.396   1.779  0.7896 -0.6182 -0.1973
 9152TIP3    H227414   3.822   7.494   1.860  0.4339 -0.1675 -0.3745
 9153TIP3   OH227415   5.985   1.683   0.072 -0.5795  0.4597  0.2002
 9153TIP3    H127416   6.058   1.734   0.107  0.1012 -0.0734 -0.4192
 9153TIP3    H227417   6.011   1.660  -0.017  0.3239 -3.0721  1.1937
 9154TIP3   OH227418   0.490   5.444   4.373  0.1972  0.3489 -0.4055
 9154TIP3    H127419   0.479   5.359   4.416  1.2200  0.2713 -0.2697
 9154TIP3    H227420   0.404   5.464   4.337 -0.1359 -0.5938 -0.1628
 9155TIP3   OH227421   4.084   6.476   4.852  0.4089  0.2069  0.2872
 9155TIP3    H127422   4.158   6.443   4.801  1.8151 -0.4774  2.6611
 9155TIP3    H227423   4.119   6.551   4.900 -0.6089  0.2345  1.0197
 9156TIP3   OH227424   4.419   5.863   6.702 -0.0068  0.1418 -0.6562
 9156TIP3    H127425   4.445   5.774   6.678  1.5891  0.2638  0.4278
 9156TIP3    H227426   4.323   5.860   6.705  0.0102 -1.5370 -0.6582
 9157TIP3   OH227427   5.637   1.826   2.359  0.0438 -0.4478  0.1153
 9157TIP3    H127428   5.645   1.782   2.444  0.4759  0.1068  0.3765
 9157TIP3    H227429   5.549   1.862   2.359 -0.0702 -0.7273  0.1957
 9158TIP3   OH227430   0.864   1.783   5.203  0.2901 -0.1954  0.0474
 9158TIP3    H127431   0.786   1.744   5.164 -0.1928  0.7816  0.0365
 9158TIP3    H227432   0.896   1.845   5.137  1.8665 -1.5302 -0.5412
 9159TIP3   OH227433   0.816   7.231   6.690  0.1610 -0.1558  0.3197
 9159TIP3    H127434   0.797   7.138   6.680  0.4828 -0.3160  1.0908
 9159TIP3    H227435   0.911   7.236   6.691  0.1913  0.4288 -1.7419
 9160TIP3   OH227436   2.672   3.827   0.317  0.2134 -0.1283 -0.0674
 9160TIP3    H127437   2.703   3.737   0.303 -0.2192 -0.1539 -0.8784
 9160TIP3    H227438   2.643   3.828   0.409  0.1456 -0.8413 -0.0745
 9161TIP3   OH227439   5.454   2.900   0.684 -0.4152 -0.6429  1.3003
 9161TIP3    H127440   5.518   2.880   0.752 -0.9492 -0.1131  1.9826
 9161TIP3    H227441   5.504   2.904   0.603  0.2818 -1.0092  1.7049
 9162TIP3   OH227442   4.701   4.217   0.394  0.1074 -0.0828  0.0635
 9162TIP3    H127443   4.629   4.178   0.344 -0.1618  2.0117 -1.3301
 9162TIP3    H227444   4.734   4.287   0.337  2.3229 -0.0664  1.2804
 9163TIP3   OH227445   4.066   1.101   5.138  0.9277  0.2259 -0.3925
 9163TIP3    H127446   4.160   1.120   5.133  0.7193  0.9072 -3.7603
 9163TIP3    H227447   4.023   1.184   5.116 -0.4100 -0.5367 -0.7935
 9164TIP3   OH227448   7.858   3.327   5.956  0.3697 -0.1372 -0.4705
 9164TIP3    H127449   7.882   3.277   6.034  2.1930  0.8244 -0.3749
 9164TIP3    H227450   7.911   3.406   5.961  1.7639 -0.7389 -3.4832
 9165TIP3   OH227451   1.030   2.277   6.291  0.2406 -0.4170  0.3638
 9165TIP3    H127452   1.047   2.254   6.200 -0.6830 -0.5954  0.2266
 9165TIP3    H227453   1.116   2.280   6.332  0.7453  0.5608 -0.7261
 9166TIP3   OH227454   6.436   3.982   5.889  0.1060 -0.0089 -0.3054
 9166TIP3    H127455   6.403   4.069   5.911 -2.0246 -0.5332 -1.2232
 9166TIP3    H227456   6.503   3.997   5.823  1.6234  1.0692  1.3797
 9167TIP3   OH227457   1.238   2.809   5.307  0.4579 -0.3842  0.1789
 9167TIP3    H127458   1.242   2.903   5.289  0.4561 -0.1184  1.5072
 9167TIP3    H227459   1.316   2.791   5.358 -0.4225 -0.7458  1.4476
 9168TIP3   OH227460   1.986   3.821   6.316  0.3721  0.1892  0.1260
 9168TIP3    H127461   1.992   3.729   6.290  1.0578 -0.2394  1.7290
 9168TIP3    H227462   1.892   3.839   6.317  0.2382 -0.4185 -0.3794
 9169TIP3   OH227463   1.029   2.171   3.016  0.6338 -0.5718  0.2177
 9169TIP3    H127464   1.069   2.112   2.952  1.4056  0.1515  0.0102
 9169TIP3    H227465   1.000   2.113   3.087  0.4999 -1.2950 -0.4083
 9170TIP3   OH227466   1.306   6.856   1.291  0.2752  0.6606 -0.8802
 9170TIP3    H127467   1.217   6.830   1.270 -0.4007  0.3994  1.9794
 9170TIP3    H227468   1.358   6.777   1.280  0.6476  1.2031 -4.3520
 9171TIP3   OH227469   6.156   3.030   5.192  0.2388 -0.0722 -0.5191
 9171TIP3    H127470   6.094   3.017   5.120  0.1532 -2.7217 -0.0669
 9171TIP3    H227471   6.224   2.964   5.178 -0.1018 -1.1101  2.1053
 9172TIP3   OH227472   6.744   7.583   4.750 -0.2960 -0.3759  0.5934
 9172TIP3    H127473   6.811   7.556   4.814  0.2647 -2.3968 -0.7693
 9172TIP3    H227474   6.744   7.678   4.756  2.4645 -0.3004  0.9169
 9173TIP3   OH227475   4.737   1.662   3.563  0.0171 -0.1908  0.0992
 9173TIP3    H127476   4.797   1.675   3.489 -1.6574 -0.2765 -1.3525
 9173TIP3    H227477   4.782   1.700   3.638  1.2980  0.9838 -1.2108
 9174TIP3   OH227478   0.853   2.563   0.939 -0.5414 -0.0166 -0.1348
 9174TIP3    H127479   0.775   2.615   0.958 -1.2356 -1.6240  1.8459
 9174TIP3    H227480   0.863   2.506   1.015  1.3564 -1.3464 -1.2795
 9175TIP3   OH227481   0.810   7.229   2.007 -0.0301  0.2777  0.2103
 9175TIP3    H127482   0.749   7.264   1.942  1.2572 -1.2635 -1.9429
 9175TIP3    H227483   0.757   7.216   2.085 -1.5597  2.5626 -0.3313
 9176TIP3   OH227484   8.135   2.831   3.478 -0.5583  0.0028  0.3551
 9176TIP3    H127485   8.109   2.776   3.404  0.8421 -2.0694  1.2737
 9176TIP3    H227486   8.114   2.778   3.555  0.2171  1.0553  1.3269
 9177TIP3   OH227487   8.043   6.037   2.977 -0.4470  0.4766  0.3170
 9177TIP3    H127488   7.993   6.085   2.911 -1.1220 -0.0089  0.4590
 9177TIP3    H227489   8.129   6.078   2.977  0.4197 -1.0871 -2.6491
 9178TIP3   OH227490   0.347   7.275   2.223  0.2652  0.3356 -0.4864
 9178TIP3    H127491   0.284   7.208   2.197 -2.1629  0.8765  3.3343
 9178TIP3    H227492   0.402   7.232   2.289 -0.2620  1.5957  0.8195
 9179TIP3   OH227493   0.203   6.008   1.168 -0.3401  0.0277  0.6250
 9179TIP3    H127494   0.259   5.977   1.096 -0.4035  0.8274  0.2213
 9179TIP3    H227495   0.162   6.088   1.134 -0.4033  0.3952  1.5371
 9180TIP3   OH227496   1.759   2.808   2.388  0.0066  0.1134 -0.1561
 9180TIP3    H127497   1.809   2.730   2.363  0.3299 -0.1651  1.2444
 9180TIP3    H227498   1.822   2.880   2.384 -0.2817  0.3159 -1.4100
 9181TIP3   OH227499   7.812   6.777   5.535 -0.0684  0.1531  0.0861
 9181TIP3    H127500   7.810   6.836   5.459  1.2096 -2.1052 -1.8052
 9181TIP3    H227501   7.811   6.836   5.610  0.5068  2.5829 -1.6796
 9182TIP3   OH227502   5.448   7.785   5.038 -0.1627 -0.4004 -0.7766
 9182TIP3    H127503   5.508   7.845   4.995 -0.1592 -0.7648 -1.2855
 9182TIP3    H227504   5.502   7.710   5.063  0.0815  0.2780  0.9013
 9183TIP3   OH227505   0.798   7.478   0.392 -0.2591 -0.4180  0.0942
 9183TIP3    H127506   0.814   7.396   0.439  2.3184 -0.9648 -1.5132
 9183TIP3    H227507   0.874   7.532   0.412  0.9746 -0.6664 -3.1918
 9184TIP3   OH227508   0.332   4.631   0.621 -0.1927 -0.1430  0.3190
 9184TIP3    H127509   0.275   4.696   0.661 -0.3900  1.6490 -2.5988
 9184TIP3    H227510   0.420   4.670   0.625 -0.1976  0.0157 -0.7949
 9185TIP3   OH227511   3.061   4.946   4.957 -0.1004  0.1191  0.3729
 9185TIP3    H127512   3.051   5.039   4.977 -0.0821  0.3810 -0.7801
 9185TIP3    H227513   3.089   4.907   5.040 -0.3740  1.0896  0.9413
 9186TIP3   OH227514   3.709   7.096   3.073  0.0363 -0.4729 -0.0004
 9186TIP3    H127515   3.792   7.133   3.043 -1.2257  1.8845 -0.8208
 9186TIP3    H227516   3.671   7.057   2.994  0.0187 -0.8890  0.2120
 9187TIP3   OH227517   1.506   6.990   6.169 -0.1173  0.5486  0.0755
 9187TIP3    H127518   1.492   6.895   6.173 -0.5363  0.4331 -2.2672
 9187TIP3    H227519   1.601   7.000   6.170 -0.0129 -0.0626 -1.0917
 9188TIP3   OH227520   5.765   1.156   1.003  0.5436 -0.4216  0.2233
 9188TIP3    H127521   5.837   1.146   0.941  1.9369  2.7004  1.1113
 9188TIP3    H227522   5.807   1.182   1.085 -1.5103  0.3543  1.1016
 9189TIP3   OH227523   0.273   6.222   4.553  0.4527  0.3286 -0.4323
 9189TIP3    H127524   0.366   6.211   4.575  0.2568 -0.1485  0.1810
 9189TIP3    H227525   0.237   6.134   4.558  0.1387  0.3764 -1.5305
 9190TIP3   OH227526   1.274   3.504   2.999  0.2719 -0.2450 -0.3678
 9190TIP3    H127527   1.350   3.491   2.941 -0.9590 -1.8477 -1.7318
 9190TIP3    H227528   1.276   3.597   3.020  0.2925  0.6792 -3.7642
 9191TIP3   OH227529   7.020   3.767   5.610  0.4715  0.2096 -0.2351
 9191TIP3    H127530   7.067   3.703   5.556  0.5404 -0.3603  0.4706
 9191TIP3    H227531   6.979   3.714   5.679 -0.6876  0.7727 -0.4713
 9192TIP3   OH227532   0.301   7.766   2.653 -0.4979  0.1346  0.5074
 9192TIP3    H127533   0.229   7.706   2.632 -1.0857  1.3795 -1.1830
 9192TIP3    H227534   0.340   7.789   2.569  1.7891 -0.3172  1.3454
 9193TIP3   OH227535   2.004   3.234   1.277  0.5670 -0.5109  0.5772
 9193TIP3    H127536   1.947   3.163   1.248 -0.1935  0.7315 -1.1450
 9193TIP3    H227537   1.944   3.299   1.313  0.7897  0.9325 -1.5137
 9194TIP3   OH227538   6.957   4.531   4.428 -0.6644  0.4566 -0.6776
 9194TIP3    H127539   7.050   4.535   4.405 -0.4401 -1.4193 -0.2646
 9194TIP3    H227540   6.919   4.471   4.364 -1.6759  1.4507 -1.0325
 9195TIP3   OH227541   6.783   1.602   6.739 -0.5723  0.5452  0.0430
 9195TIP3    H127542   6.744   1.537   6.797 -0.0091 -0.6681 -0.8865
 9195TIP3    H227543   6.874   1.609   6.769 -0.7316  1.1908  0.3780
 9196TIP3   OH227544   2.572   0.386   2.066 -0.0410  0.1151 -0.8027
 9196TIP3    H127545   2.555   0.337   1.986  0.9534  2.7399 -2.7570
 9196TIP3    H227546   2.658   0.426   2.052  0.1955  0.6038  1.6163
 9197TIP3   OH227547   4.263   3.837   6.665  0.3506  0.0582  0.3079
 9197TIP3    H127548   4.272   3.743   6.648 -2.9770 -0.5968  1.5360
 9197TIP3    H227549   4.236   3.874   6.581  3.3701  0.3701 -0.6687
 9198TIP3   OH227550   2.173   1.519   6.750  0.1693 -0.6167 -0.5817
 9198TIP3    H127551   2.179   1.443   6.692 -1.2038  0.2238 -1.9169
 9198TIP3    H227552   2.241   1.579   6.718 -0.0373 -0.4925 -0.7895
 9199TIP3   OH227553   8.165   6.392   1.487 -0.5828 -0.5921 -0.1271
 9199TIP3    H127554   8.215   6.434   1.558  1.2835  0.1085 -1.7496
 9199TIP3    H227555   8.076   6.425   1.498  0.4521  2.6660 -0.3438
 9200TIP3   OH227556   0.752   0.730   6.134  0.1395  0.3075 -0.2415
 9200TIP3    H127557   0.754   0.720   6.229  1.0521  0.1954 -0.2656
 9200TIP3    H227558   0.659   0.738   6.113 -0.0002  2.0034  0.8349
 9201TIP3   OH227559   1.373   7.456   5.177 -0.4921 -0.0774 -0.3472
 9201TIP3    H127560   1.462   7.463   5.212 -1.6157  0.5797  2.7144
 9201TIP3    H227561   1.335   7.543   5.189 -1.6612 -0.4240 -1.3335
 9202TIP3   OH227562   0.195   0.366   6.707 -0.1775  0.2356  0.8638
 9202TIP3    H127563   0.270   0.307   6.709  0.2131  0.6231 -0.6596
 9202TIP3    H227564   0.210   0.427   6.779  1.7275  1.1596 -0.2284
 9203TIP3   OH227565   5.132   5.167   2.915 -0.6817  0.1920  0.2182
 9203TIP3    H127566   5.166   5.156   3.004 -0.2739 -2.5020 -0.2106
 9203TIP3    H227567   5.056   5.109   2.912 -0.4944  0.0047 -1.2857
 9204TIP3   OH227568   5.207   4.148   5.556  0.2347 -0.4423 -0.2878
 9204TIP3    H127569   5.189   4.064   5.513  1.6830 -0.1981 -1.4499
 9204TIP3    H227570   5.265   4.125   5.629  0.9847 -0.4328 -0.8643
 9205TIP3   OH227571   2.451   2.245   1.412 -0.0589 -0.0257  0.2192
 9205TIP3    H127572   2.543   2.238   1.388 -0.0759 -0.7657  0.3377
 9205TIP3    H227573   2.418   2.319   1.362  0.3767 -0.3383 -0.5372
 9206TIP3   OH227574   7.183   3.658   1.043  0.3552  0.0087 -0.0527
 9206TIP3    H127575   7.240   3.718   0.996  0.7300 -0.5056 -0.2626
 9206TIP3    H227576   7.136   3.713   1.106  0.5719  0.5418 -0.3537
 9207TIP3   OH227577   2.977   4.439   1.905  0.0909  0.1845 -0.0142
 9207TIP3    H127578   2.914   4.507   1.927 -0.3807 -0.0505 -0.6332
 9207TIP3    H227579   3.052   4.486   1.870 -0.4922  0.3511 -1.0643
 9208TIP3   OH227580   6.627   4.927   2.406 -0.7792 -0.3961  0.5534
 9208TIP3    H127581   6.637   4.893   2.317 -1.0320 -1.0087  0.7493
 9208TIP3    H227582   6.548   4.883   2.439 -0.1110 -0.9696  1.4332
 9209TIP3   OH227583   2.880   4.220   5.532 -0.0215 -0.0569 -0.6190
 9209TIP3    H127584   2.792   4.248   5.507  0.7206  1.3110 -1.8928
 9209TIP3    H227585   2.888   4.131   5.499 -0.5413  0.2385 -1.5759
 9210TIP3   OH227586   1.978   7.074   0.780  0.1771 -0.0086 -0.2101
 9210TIP3    H127587   2.062   7.070   0.825  0.2806  1.5919 -0.2365
 9210TIP3    H227588   1.922   7.012   0.828  0.1625  1.8958  2.4017
 9211TIP3   OH227589   5.897   2.137   2.577 -0.4063 -0.2508 -0.6551
 9211TIP3    H127590   5.946   2.131   2.495 -0.9242  0.4767 -1.0255
 9211TIP3    H227591   5.809   2.165   2.551  0.0052  2.2239  0.2797
 9212TIP3   OH227592   6.546   2.429   5.508  0.1106 -0.1750 -0.8007
 9212TIP3    H127593   6.526   2.503   5.451  1.9603  1.7291  0.8326
 9212TIP3    H227594   6.575   2.359   5.449 -0.0939  0.9705 -2.2982
 9213TIP3   OH227595   3.443   4.010   1.933 -0.0019 -0.0480  0.1674
 9213TIP3    H127596   3.426   4.026   1.840 -0.6699  1.7157  0.5620
 9213TIP3    H227597   3.517   4.067   1.954 -0.1582 -0.0797  0.8251
 9214TIP3   OH227598   7.818   0.194   1.937 -0.2648 -0.5490  0.2663
 9214TIP3    H127599   7.808   0.271   1.881  0.8844  0.0457  0.8448
 9214TIP3    H227600   7.772   0.124   1.890 -0.7113  0.3178 -0.6171
 9215TIP3   OH227601   4.887   7.357   2.163 -0.1492  0.3768  0.2449
 9215TIP3    H127602   4.805   7.308   2.177 -0.5797  0.0161 -2.7020
 9215TIP3    H227603   4.906   7.397   2.247 -2.9381 -0.1884  1.2756
 9216TIP3   OH227604   5.100   3.477   1.871 -0.2826  0.0342 -0.4808
 9216TIP3    H127605   5.030   3.431   1.825  0.2956 -0.2246 -1.1331
 9216TIP3    H227606   5.159   3.505   1.801  1.6294 -2.0440  0.1859
 9217TIP3   OH227607   3.643   7.792   1.193 -0.2716  0.6450 -0.4098
 9217TIP3    H127608   3.562   7.743   1.208  0.2844 -0.4848 -1.0039
 9217TIP3    H227609   3.675   7.762   1.108  1.0921  0.5997  0.0841
 9218TIP3   OH227610   4.843   1.000   5.935 -0.1201 -0.1312  0.8030
 9218TIP3    H127611   4.918   0.973   5.987 -0.0326 -0.1392  0.6735
 9218TIP3    H227612   4.874   0.997   5.844  0.3158  1.6517  0.8472
 9219TIP3   OH227613   0.657   2.444   0.200 -0.1486 -0.1561 -0.1028
 9219TIP3    H127614   0.577   2.474   0.243 -0.5356 -0.0813 -0.8635
 9219TIP3    H227615   0.712   2.412   0.272  0.4024  2.5409  0.7949
 9220TIP3   OH227616   3.266   2.967   6.599 -0.4766  0.0161  0.5830
 9220TIP3    H127617   3.326   2.899   6.569 -0.0517  0.3836  0.5870
 9220TIP3    H227618   3.303   2.997   6.682 -0.3982  0.5833  0.3461
 9221TIP3   OH227619   6.107   6.819   2.121  0.1466  0.4425  0.5755
 9221TIP3    H127620   6.097   6.728   2.093  1.2959  0.8307 -1.2757
 9221TIP3    H227621   6.024   6.840   2.164 -0.4719 -1.2166  0.2702
 9222TIP3   OH227622   3.716   2.251   6.518  0.6819 -0.5373 -0.3479
 9222TIP3    H127623   3.759   2.205   6.589 -1.5193 -3.3047 -0.6305
 9222TIP3    H227624   3.667   2.322   6.560  1.6477 -0.3563  0.4941
 9223TIP3   OH227625   5.921   7.484   5.212 -0.2305 -0.2328  1.0332
 9223TIP3    H127626   5.945   7.398   5.176 -0.0545 -0.2544  1.2004
 9223TIP3    H227627   6.004   7.531   5.219 -0.1819 -0.4323  1.9482
 9224TIP3   OH227628   7.358   6.942   3.337 -0.4618 -0.1225  0.4698
 9224TIP3    H127629   7.334   7.009   3.273  1.2386  0.6129  0.5553
 9224TIP3    H227630   7.419   6.886   3.291 -0.6957 -0.7203  0.8786
 9225TIP3   OH227631   3.385   4.352   3.297 -0.7005  0.2742  0.4274
 9225TIP3    H127632   3.383   4.315   3.385  0.2834 -3.4545 -0.8898
 9225TIP3    H227633   3.463   4.408   3.296  1.3843 -2.3778  1.1336
 9226TIP3   OH227634   6.932   7.413   0.558 -0.3238 -0.1050 -0.0090
 9226TIP3    H127635   6.997   7.428   0.626  0.0173  0.9523 -0.5553
 9226TIP3    H227636   6.974   7.352   0.497  0.3346  0.8975 -0.5815
 9227TIP3   OH227637   6.567   6.528   6.422  0.6907 -0.0617 -0.3373
 9227TIP3    H127638   6.659   6.541   6.448  0.9369 -0.1472 -1.1353
 9227TIP3    H227639   6.540   6.451   6.472  1.2483 -0.4001 -0.5356
 9228TIP3   OH227640   0.439   4.704   5.409 -0.0093  0.1673  0.8940
 9228TIP3    H127641   0.418   4.650   5.333 -1.3242  1.1694  0.5236
 9228TIP3    H227642   0.395   4.660   5.482 -1.5625  1.0006  0.4993
 9229TIP3   OH227643   3.202   3.275   3.798 -0.5948 -0.0397  0.2220
 9229TIP3    H127644   3.106   3.269   3.796 -0.7905  1.0446  2.8356
 9229TIP3    H227645   3.231   3.196   3.753 -2.6864 -0.0453 -1.2978
 9230TIP3   OH227646   5.764   1.988   5.697  0.5164 -0.1870  0.0409
 9230TIP3    H127647   5.759   1.969   5.604 -0.4061 -1.2460  0.2816
 9230TIP3    H227648   5.743   2.081   5.704  0.2660 -0.1785 -0.7664
 9231TIP3   OH227649   0.310   5.790   0.681 -0.0316 -0.1033  0.6193
 9231TIP3    H127650   0.323   5.820   0.591  1.1569 -1.5442  0.2684
 9231TIP3    H227651   0.231   5.835   0.710 -1.2881 -0.6736 -1.6545
 9232TIP3   OH227652   5.850   6.390   0.273  0.2972  0.3089 -0.1821
 9232TIP3    H127653   5.858   6.351   0.186  0.0925 -2.4163  0.9293
 9232TIP3    H227654   5.767   6.438   0.271  1.1427  1.8141 -1.9705
 9233TIP3   OH227655   2.962   5.336   0.148  0.1151  0.2005  0.4436
 9233TIP3    H127656   2.999   5.416   0.187 -1.7099  1.1446  0.3678
 9233TIP3    H227657   2.941   5.361   0.058  2.7236 -1.4633 -0.7433
 9234TIP3   OH227658   1.420   2.570   0.511 -0.0422 -0.7486 -0.2980
 9234TIP3    H127659   1.347   2.540   0.458  0.0111 -0.4028 -0.5794
 9234TIP3    H227660   1.381   2.602   0.592 -0.1604 -0.9409 -0.2792
 9235TIP3   OH227661   1.922   1.566   4.500  0.4739 -0.2710 -1.2657
 9235TIP3    H127662   1.905   1.516   4.579  0.1632  1.8267  0.0924
 9235TIP3    H227663   1.923   1.502   4.429 -2.0108 -1.8802  0.0529
 9236TIP3   OH227664   7.588   5.483   5.022 -0.0377 -0.0644  0.2856
 9236TIP3    H127665   7.664   5.449   4.975 -0.4482  1.5244 -1.6838
 9236TIP3    H227666   7.514   5.461   4.966 -0.6632  1.0538  0.6439
 9237TIP3   OH227667   4.245   6.279   2.499  0.1248 -0.1198 -0.3509
 9237TIP3    H127668   4.296   6.202   2.474  0.5450 -0.1607  0.5694
 9237TIP3    H227669   4.154   6.248   2.500  0.2114 -0.3904 -0.7456
 9238TIP3   OH227670   6.480   5.792   2.766 -0.1514  0.5925  0.2791
 9238TIP3    H127671   6.403   5.783   2.710 -0.0248 -0.0015  0.1937
 9238TIP3    H227672   6.473   5.720   2.829  0.7035  0.0927 -0.1797
 9239TIP3   OH227673   2.292   4.617   4.261  0.1654 -0.9530 -0.4696
 9239TIP3    H127674   2.333   4.638   4.345 -0.5619  1.4933 -0.6773
 9239TIP3    H227675   2.208   4.576   4.284  0.3147 -1.0157 -0.0336
 9240TIP3   OH227676   6.792   2.063   1.301  0.0924 -0.2935  0.5708
 9240TIP3    H127677   6.756   2.054   1.389 -0.9345 -0.9349  0.0974
 9240TIP3    H227678   6.762   1.986   1.253  2.2841 -0.9909  0.1866
 9241TIP3   OH227679   3.087   3.340   4.083  0.1432  0.2504  0.3591
 9241TIP3    H127680   2.996   3.317   4.102  0.4646 -1.9444 -0.4884
 9241TIP3    H227681   3.126   3.260   4.047  1.9424  1.6213 -0.9795
 9242TIP3   OH227682   5.780   5.942   5.700  0.0507  0.1970  0.7237
 9242TIP3    H127683   5.814   6.026   5.730  3.0615 -0.6145 -0.0064
 9242TIP3    H227684   5.714   5.918   5.764  3.2698  0.4225  4.5447
 9243TIP3   OH227685   6.108   4.843   1.076 -0.1304  0.1330 -0.5516
 9243TIP3    H127686   6.085   4.875   1.163  0.4100  1.2696 -0.8102
 9243TIP3    H227687   6.027   4.802   1.044 -1.2220  2.1996 -0.6167
 9244TIP3   OH227688   1.344   0.194   6.680  0.2235  0.0327  0.0328
 9244TIP3    H127689   1.392   0.212   6.600  0.0052 -0.9502 -0.3414
 9244TIP3    H227690   1.300   0.111   6.663 -2.9453  1.6457 -0.2538
 9245TIP3   OH227691   0.926   2.137   0.788 -0.1562  0.4304 -0.3166
 9245TIP3    H127692   1.009   2.106   0.750 -0.7197 -1.6041  0.0005
 9245TIP3    H227693   0.912   2.081   0.864 -1.7317  0.8678 -0.2589
 9246TIP3   OH227694   4.338   4.300   2.907 -0.1945  0.5994  0.0750
 9246TIP3    H127695   4.283   4.284   2.831  1.6746  0.0338 -1.2274
 9246TIP3    H227696   4.290   4.260   2.980 -1.9105  0.9486 -0.8216
 9247TIP3   OH227697   5.900   0.199   5.263  0.0843 -0.4138 -0.0157
 9247TIP3    H127698   5.873   0.121   5.216  0.4651  0.1345 -1.1740
 9247TIP3    H227699   5.941   0.254   5.197 -2.5982  1.9839  0.0863
 9248TIP3   OH227700   3.088   4.637   4.404  0.0507 -0.2326 -0.1025
 9248TIP3    H127701   3.063   4.651   4.312 -0.6116  0.0310  0.1108
 9248TIP3    H227702   3.129   4.719   4.430  0.6180 -0.4543 -0.2784
 9249TIP3   OH227703   7.881   1.887   6.495  0.0228  0.2408  0.7769
 9249TIP3    H127704   7.885   1.805   6.544  1.2171  0.6788  1.4544
 9249TIP3    H227705   7.918   1.865   6.409  0.5310  0.1063  1.0256
 9250TIP3   OH227706   8.076   7.315   3.517  0.2054 -0.2457 -0.5861
 9250TIP3    H127707   8.078   7.410   3.533 -3.1845 -0.0545 -0.6221
 9250TIP3    H227708   8.059   7.277   3.603 -0.2536 -0.6438 -0.8478
 9251TIP3   OH227709   1.564   7.769   4.683 -0.1797  0.0655  0.0423
 9251TIP3    H127710   1.499   7.720   4.632  0.2541 -1.1770  0.6507
 9251TIP3    H227711   1.517   7.848   4.711 -0.7339  0.2827 -1.4033
 9252TIP3   OH227712   8.151   5.566   6.330 -0.1273 -0.0726  0.1761
 9252TIP3    H127713   8.217   5.619   6.375  0.5611 -0.7789  0.0006
 9252TIP3    H227714   8.069   5.615   6.344  0.2896  0.4138  1.0494
 9253TIP3   OH227715   7.626   0.273   1.559  0.4969 -0.1111 -0.3504
 9253TIP3    H127716   7.680   0.196   1.541  0.6221 -0.0274 -0.3355
 9253TIP3    H227717   7.565   0.243   1.627 -0.3613 -0.5927 -1.2990
 9254TIP3   OH227718   5.689   2.268   5.722  0.3233 -0.1863  0.0884
 9254TIP3    H127719   5.656   2.266   5.632  1.7028 -0.1243 -0.4395
 9254TIP3    H227720   5.610   2.271   5.777 -0.5735 -1.4742 -1.0702
 9255TIP3   OH227721   4.825   2.381   1.319 -0.0166 -0.9513  0.3116
 9255TIP3    H127722   4.917   2.368   1.342  0.5734 -0.4573 -1.5749
 9255TIP3    H227723   4.809   2.317   1.250 -0.1914  0.9206 -1.4592
 9256TIP3   OH227724   3.185   4.540   0.141  0.1169  0.3337 -0.0887
 9256TIP3    H127725   3.160   4.513   0.229 -0.0965  0.6052 -0.0663
 9256TIP3    H227726   3.106   4.581   0.105  0.7475  1.9399  0.2759
 9257TIP3   OH227727   3.248   3.301   6.719 -0.0761  0.8474 -0.1352
 9257TIP3    H127728   3.271   3.211   6.740  2.3453  1.3393 -0.3041
 9257TIP3    H227729   3.216   3.338   6.801  1.5871  0.5495  0.6933
 9258TIP3   OH227730   2.720   6.389   4.145 -0.0021  0.6400 -0.2046
 9258TIP3    H127731   2.745   6.474   4.108  1.8788  0.4730  0.5733
 9258TIP3    H227732   2.757   6.390   4.234  2.2966 -1.9079 -0.9970
 9259TIP3   OH227733   2.313   2.074   5.719 -0.5171  0.1206 -0.0678
 9259TIP3    H127734   2.344   2.158   5.754  0.3415 -0.5221  0.7711
 9259TIP3    H227735   2.284   2.026   5.797  2.5807 -1.8336  0.0153
 9260TIP3   OH227736   8.100   7.443   0.119  0.5669  0.1270 -0.0035
 9260TIP3    H127737   8.134   7.354   0.107  0.7241  0.4592 -2.7225
 9260TIP3    H227738   8.161   7.498   0.070 -1.0790  1.3608 -0.7682
 9261TIP3   OH227739   7.686   7.717   5.913 -0.3031  0.1112 -0.2838
 9261TIP3    H127740   7.669   7.627   5.887 -1.2898 -0.3827  1.8569
 9261TIP3    H227741   7.745   7.751   5.846  0.1155 -2.1201 -1.1197
 9262TIP3   OH227742   0.531   4.512   6.411 -0.4532 -0.0954 -0.5063
 9262TIP3    H127743   0.455   4.531   6.466 -0.9945 -0.2295 -1.1852
 9262TIP3    H227744   0.603   4.497   6.473 -0.5608  1.7248  0.1033
 9263TIP3   OH227745   5.921   6.104   4.480  0.0660  0.3831  0.2358
 9263TIP3    H127746   5.949   6.018   4.512 -1.3345  0.1074  0.7913
 9263TIP3    H227747   5.841   6.087   4.430  0.1225  1.2844 -0.1883
 9264TIP3   OH227748   6.488   0.083   2.642  0.4230 -0.7819  0.5935
 9264TIP3    H127749   6.524   0.161   2.683 -0.1956  0.6584 -1.4187
 9264TIP3    H227750   6.457   0.029   2.715  0.8194  0.8677  2.0470
 9265TIP3   OH227751   7.347   3.516   1.656  0.0356 -0.0386  0.2035
 9265TIP3    H127752   7.333   3.421   1.651  1.8803 -0.4600  1.9148
 9265TIP3    H227753   7.288   3.545   1.726 -1.1306  0.2532 -0.8664
 9266TIP3   OH227754   6.220   4.196   0.257 -0.2394 -0.3744 -0.0133
 9266TIP3    H127755   6.163   4.119   0.262  0.9990 -1.4483 -1.4444
 9266TIP3    H227756   6.246   4.212   0.348 -0.4706 -1.6964  0.3055
 9267TIP3   OH227757   5.060   6.553   1.750  0.2646 -0.1135  0.1394
 9267TIP3    H127758   5.109   6.486   1.703 -0.4424 -0.0465 -0.7163
 9267TIP3    H227759   5.039   6.619   1.683  0.1565  0.5037  0.7690
 9268TIP3   OH227760   5.145   4.274   4.152  0.1875 -0.3369  0.9478
 9268TIP3    H127761   5.223   4.285   4.206  0.7757 -1.7415  0.4113
 9268TIP3    H227762   5.176   4.287   4.062 -0.3320 -0.2353  0.7805
 9269TIP3   OH227763   1.793   4.709   1.163 -0.0593  0.4499 -0.7199
 9269TIP3    H127764   1.755   4.763   1.233 -0.1832 -0.0166 -0.4245
 9269TIP3    H227765   1.824   4.772   1.098  1.5228  0.9923  0.4794
 9270TIP3   OH227766   3.505   6.618   2.198  0.3917  0.3047 -0.0531
 9270TIP3    H127767   3.433   6.653   2.146  0.8005  0.1432 -0.7385
 9270TIP3    H227768   3.570   6.590   2.134  0.2285 -1.4137  0.4567
 9271TIP3   OH227769   5.976   4.984   2.876 -0.4963 -0.0188  0.1748
 9271TIP3    H127770   5.944   4.993   2.786  1.7623  0.7459 -0.6011
 9271TIP3    H227771   5.898   4.996   2.930 -1.7432  0.4322 -1.6390
 9272TIP3   OH227772   3.484   3.868   1.265  0.1038 -0.0956  0.3961
 9272TIP3    H127773   3.562   3.925   1.268 -0.5476  0.8682 -0.2816
 9272TIP3    H227774   3.492   3.812   1.342  1.7531 -0.4006  0.0452
 9273TIP3   OH227775   7.857   7.820   4.350 -0.2795 -0.2489  0.2645
 9273TIP3    H127776   7.852   7.746   4.290 -0.5922 -1.5287  1.7951
 9273TIP3    H227777   7.939   7.865   4.326  1.8721 -3.1778  1.5267
 9274TIP3   OH227778   0.722   1.780   3.216 -0.1234  0.3453  0.4170
 9274TIP3    H127779   0.713   1.820   3.303  0.7385  1.1954  0.1365
 9274TIP3    H227780   0.706   1.687   3.230  3.3776 -0.1460  2.1613
 9275TIP3   OH227781   2.872   1.981   6.161 -0.9838 -0.6914  0.7440
 9275TIP3    H127782   2.939   2.048   6.146 -0.9557 -0.8744  0.0295
 9275TIP3    H227783   2.790   2.021   6.133 -0.6689 -1.6980 -1.8741
 9276TIP3   OH227784   2.153   2.131   4.090 -0.2199 -0.3844  0.3517
 9276TIP3    H127785   2.119   2.112   4.003  0.5541  0.1852 -0.0849
 9276TIP3    H227786   2.118   2.061   4.145 -0.1288 -1.1630 -0.5504
 9277TIP3   OH227787   5.173   6.624   6.450  0.1556 -0.0700 -0.4684
 9277TIP3    H127788   5.222   6.657   6.526  0.7039 -0.1286 -0.7931
 9277TIP3    H227789   5.081   6.627   6.478  0.4796 -3.0407  1.3972
 9278TIP3   OH227790   5.038   0.319   6.656  0.1823  0.1214  0.2488
 9278TIP3    H127791   5.015   0.402   6.699 -1.6034 -0.1335 -0.1376
 9278TIP3    H227792   4.989   0.253   6.705 -0.2348 -0.4245 -0.8832
 9279TIP3   OH227793   4.426   7.068   6.514 -0.3540 -0.0303  0.5986
 9279TIP3    H127794   4.471   7.150   6.533  1.8570 -0.6357 -1.4896
 9279TIP3    H227795   4.390   7.081   6.426  0.5068 -1.4580  0.0094
 9280TIP3   OH227796   0.927   6.101   6.221 -0.1916 -0.1562  0.3668
 9280TIP3    H127797   0.981   6.180   6.219  0.3313 -0.5223 -0.3892
 9280TIP3    H227798   0.837   6.133   6.224 -0.0795  0.5194 -1.7019
 9281TIP3   OH227799   4.459   1.614   1.588 -0.3659 -0.4469  0.2875
 9281TIP3    H127800   4.455   1.685   1.524  1.8634 -1.3976 -1.0482
 9281TIP3    H227801   4.403   1.546   1.551 -0.3178 -0.4013  0.1284
 9282TIP3   OH227802   3.422   6.083   1.313  0.0707 -0.1103  0.3559
 9282TIP3    H127803   3.390   6.044   1.395 -1.4789 -1.9155 -0.9922
 9282TIP3    H227804   3.410   6.013   1.248  0.2823  1.5890 -1.5952
 9283TIP3   OH227805   6.947   7.189   1.860 -0.1382 -0.3353  0.0881
 9283TIP3    H127806   6.986   7.276   1.869 -0.2807 -0.3445  0.9163
 9283TIP3    H227807   6.905   7.190   1.775  0.0345  0.3376  0.0031
 9284TIP3   OH227808   6.555   5.272   4.038  0.5326  0.7555 -0.0408
 9284TIP3    H127809   6.524   5.238   3.954 -1.0781 -1.6453  1.4160
 9284TIP3    H227810   6.648   5.250   4.040  0.2033 -0.7698 -0.4985
 9285TIP3   OH227811   6.251   0.649   5.705 -0.3187 -0.5122  0.3059
 9285TIP3    H127812   6.331   0.685   5.667 -2.0087  3.0622 -0.1744
 9285TIP3    H227813   6.273   0.636   5.798  0.2600  2.6014  0.6971
 9286TIP3   OH227814   5.870   3.598   5.922 -0.3902  0.4203 -0.3904
 9286TIP3    H127815   5.913   3.605   6.007  0.6623  1.5104 -0.9816
 9286TIP3    H227816   5.914   3.524   5.879 -0.8674 -0.0796 -0.0394
 9287TIP3   OH227817   4.506   0.650   0.949  0.7564  0.0486  0.3067
 9287TIP3    H127818   4.491   0.585   1.017 -1.7754  0.5824  0.3464
 9287TIP3    H227819   4.486   0.605   0.867 -0.9947  0.7020  0.3333
 9288TIP3   OH227820   6.553   0.854   3.289  0.2311  0.3984  0.3625
 9288TIP3    H127821   6.519   0.943   3.278 -0.8276 -0.1194 -0.8414
 9288TIP3    H227822   6.636   0.866   3.335 -0.4890  1.9006  1.3594
 9289TIP3   OH227823   6.136   4.579   6.217  0.3285  0.2121  0.3572
 9289TIP3    H127824   6.189   4.606   6.292  0.1887  1.2438  0.1008
 9289TIP3    H227825   6.048   4.568   6.252  0.6929 -1.5953  0.8034
 9290TIP3   OH227826   6.027   2.621   2.580 -0.0365 -0.1485 -0.1197
 9290TIP3    H127827   5.976   2.610   2.499  0.9171  1.3116 -0.9649
 9290TIP3    H227828   6.026   2.715   2.596 -0.7292 -0.4736  1.9680
 9291TIP3   OH227829   1.112   1.954   0.180 -0.2248 -0.3313  0.0111
 9291TIP3    H127830   1.112   2.002   0.263 -1.4688 -2.4079  1.2858
 9291TIP3    H227831   1.036   1.988   0.132 -1.6367 -1.5655  1.2867
 9292TIP3   OH227832   1.976   7.402   0.361 -0.1712  0.2219  0.8390
 9292TIP3    H127833   2.005   7.321   0.318 -2.9002 -0.3084 -0.1803
 9292TIP3    H227834   1.942   7.373   0.446 -0.7596  0.3577  0.6499
 9293TIP3   OH227835   3.900   5.821   3.754 -0.1825  0.2843  0.0470
 9293TIP3    H127836   3.980   5.846   3.801  0.4438  2.2171 -1.8696
 9293TIP3    H227837   3.923   5.739   3.710  0.5854  0.5467 -0.0633
 9294TIP3   OH227838   4.369   4.247   6.151 -0.7491  0.2012  0.1488
 9294TIP3    H127839   4.437   4.198   6.104 -1.0583  1.0698 -1.2720
 9294TIP3    H227840   4.313   4.282   6.082 -1.6648  0.9092  1.2187
 9295TIP3   OH227841   3.842   3.144   6.026  0.3227  0.1020  0.6806
 9295TIP3    H127842   3.909   3.112   5.966  1.8276  0.4003  2.1304
 9295TIP3    H227843   3.853   3.239   6.025  1.0700  0.0557  2.1572
 9296TIP3   OH227844   0.199   1.720   2.223  0.2757 -0.2044 -0.0591
 9296TIP3    H127845   0.166   1.797   2.269  2.2574  1.4148 -1.1759
 9296TIP3    H227846   0.182   1.647   2.283 -1.0304  1.1884  1.3497
 9297TIP3   OH227847   0.294   1.882   3.138  0.1190 -0.5918  0.1308
 9297TIP3    H127848   0.303   1.787   3.132  0.4541 -0.7515  2.5238
 9297TIP3    H227849   0.377   1.916   3.104  0.1382 -1.1408 -0.3989
 9298TIP3   OH227850   0.044   6.849   6.452  0.4362 -0.8276 -0.3637
 9298TIP3    H127851  -0.045   6.820   6.437  0.4892 -1.6844  0.8793
 9298TIP3    H227852   0.062   6.828   6.544  1.8154 -0.4142 -0.5081
 9299TIP3   OH227853   0.124   1.549   4.459  0.4038  0.2663  0.3332
 9299TIP3    H127854   0.037   1.508   4.461  1.7526 -2.9604 -1.0226
 9299TIP3    H227855   0.177   1.497   4.519  1.6803  1.5098  0.3390
 9300TIP3   OH227856   7.578   1.639   1.835  0.3162 -0.3480 -0.2708
 9300TIP3    H127857   7.538   1.678   1.758  1.0927 -2.6895 -1.9690
 9300TIP3    H227858   7.672   1.656   1.825  0.4538 -0.9435 -0.0118
 9301TIP3   OH227859   2.912   4.074   3.476 -0.1284 -0.2882  0.0762
 9301TIP3    H127860   2.830   4.109   3.442  0.5500  1.5498  0.2241
 9301TIP3    H227861   2.964   4.053   3.399  0.0335  0.4832 -0.0304
 9302TIP3   OH227862   8.243   7.108   6.453 -0.2178 -0.6453  0.4525
 9302TIP3    H127863   8.283   7.151   6.378 -1.9540 -0.5708 -0.4987
 9302TIP3    H227864   8.292   7.026   6.463  1.1433  0.1415  0.3464
 9303TIP3   OH227865   3.813   3.126   3.127 -0.2553  0.1056 -0.2372
 9303TIP3    H127866   3.881   3.063   3.105 -2.5498 -1.9000 -2.0034
 9303TIP3    H227867   3.771   3.148   3.044 -1.6929  1.3972  0.7557
 9304TIP3   OH227868   5.571   3.045   2.868 -0.1486  0.1521 -0.1174
 9304TIP3    H127869   5.566   2.954   2.839 -0.0746  0.1237 -0.0396
 9304TIP3    H227870   5.492   3.057   2.921 -0.2965  0.2109 -0.3502
 9305TIP3   OH227871   6.392   3.212   1.255  0.1255  0.1765  0.1349
 9305TIP3    H127872   6.456   3.150   1.221 -1.6107 -1.0412 -1.0825
 9305TIP3    H227873   6.367   3.265   1.179 -0.9143  0.0561  0.3731
 9306TIP3   OH227874   3.570   4.367   5.912 -0.3518 -0.4574  0.2984
 9306TIP3    H127875   3.509   4.440   5.926 -0.4446 -0.7604  1.5583
 9306TIP3    H227876   3.614   4.356   5.996  0.8992 -0.7485 -0.3742
 9307TIP3   OH227877   0.333   6.071   2.433 -0.5763  0.3369 -0.3971
 9307TIP3    H127878   0.417   6.039   2.466 -1.6857  0.4617  2.9338
 9307TIP3    H227879   0.310   6.010   2.362  2.1098  0.1519 -1.2221
 9308TIP3   OH227880   3.538   3.115   4.269  0.2654 -0.8081 -0.5477
 9308TIP3    H127881   3.454   3.085   4.304  0.5190 -1.0939 -0.1727
 9308TIP3    H227882   3.578   3.035   4.233  0.2535 -0.6206 -0.9868
 9309TIP3   OH227883   4.289   2.059   0.590 -0.1630  0.0121 -0.2193
 9309TIP3    H127884   4.292   2.038   0.497 -0.7936  1.6512 -0.6531
 9309TIP3    H227885   4.277   1.975   0.634  0.6547 -0.8427 -1.5663
 9310TIP3   OH227886   7.290   6.666   4.763 -0.1184  0.4173 -0.5916
 9310TIP3    H127887   7.374   6.693   4.800 -0.8100  1.6353  0.1605
 9310TIP3    H227888   7.226   6.718   4.810 -1.2673 -0.1500 -1.4888
 9311TIP3   OH227889   7.486   7.299   1.118 -0.5860 -0.5242  0.0582
 9311TIP3    H127890   7.509   7.386   1.086  0.0341  0.5327  3.0304
 9311TIP3    H227891   7.532   7.239   1.060 -2.1993  0.9555 -3.0118
 9312TIP3   OH227892   2.069   2.238   1.253 -0.3520  0.1217  0.3486
 9312TIP3    H127893   2.065   2.180   1.329 -0.5591 -2.8033 -1.7078
 9312TIP3    H227894   1.987   2.221   1.207  0.3896  0.7016 -1.2427
 9313TIP3   OH227895   8.214   3.906   0.462  0.4489 -0.4689  0.0227
 9313TIP3    H127896   8.188   3.997   0.469  0.1112 -0.4385 -1.4428
 9313TIP3    H227897   8.135   3.860   0.434 -0.0590 -1.6415  2.9519
 9314TIP3   OH227898   3.186   3.291   0.473  0.3859 -0.5812 -0.1537
 9314TIP3    H127899   3.148   3.241   0.401  1.0980 -1.7956  0.2776
 9314TIP3    H227900   3.113   3.340   0.510 -0.2908 -1.1135 -0.7653
 9315TIP3   OH227901   7.394   2.053   5.084  0.3515 -0.4836  0.4636
 9315TIP3    H127902   7.443   2.067   5.165  1.5602  2.5992 -0.6292
 9315TIP3    H227903   7.455   2.006   5.027  0.9734  0.7291  0.1026
 9316TIP3   OH227904   4.122   7.506   0.585  0.1564 -0.1384 -0.1561
 9316TIP3    H127905   4.135   7.591   0.627 -1.0789  0.7639 -1.4848
 9316TIP3    H227906   4.209   7.480   0.555  0.2077  2.1991 -2.4582
 9317TIP3   OH227907   1.631   1.750   1.489 -0.7456  0.4232  0.8758
 9317TIP3    H127908   1.587   1.707   1.415  0.4190  1.8247 -0.7181
 9317TIP3    H227909   1.717   1.709   1.492 -1.3218 -0.7775  2.5824
 9318TIP3   OH227910   1.314   2.071   5.162  0.6518 -0.2124  0.1350
 9318TIP3    H127911   1.316   2.167   5.158 -3.2129  0.0692  0.4567
 9318TIP3    H227912   1.335   2.042   5.074 -0.0013  1.0850 -0.4759
 9319TIP3   OH227913   1.331   3.881   1.768  0.6978  0.0332  0.2860
 9319TIP3    H127914   1.339   3.796   1.724  0.4540  0.3774 -0.4473
 9319TIP3    H227915   1.416   3.894   1.810  0.7432 -0.5628  0.3829
 9320TIP3   OH227916   3.650   6.571   0.732  0.4568 -0.2410  0.0529
 9320TIP3    H127917   3.640   6.492   0.680 -1.7597 -0.7768  1.1288
 9320TIP3    H227918   3.696   6.633   0.675  0.1674 -1.5398 -1.6684
 9321TIP3   OH227919   5.990   5.264   6.425 -0.4328  0.8433 -0.1245
 9321TIP3    H127920   6.061   5.222   6.473 -0.7580 -0.0494 -0.3914
 9321TIP3    H227921   5.910   5.229   6.465 -0.7240 -0.7649 -1.9565
 9322TIP3   OH227922   2.706   5.807   5.951 -0.0183 -0.4247 -0.4782
 9322TIP3    H127923   2.667   5.863   5.884 -3.2634 -1.4569  0.3979
 9322TIP3    H227924   2.734   5.729   5.903  0.1087 -0.0750 -0.9916
 9323TIP3   OH227925   5.823   7.233   1.148 -0.1498 -0.2811 -0.2093
 9323TIP3    H127926   5.777   7.315   1.168 -1.7608 -0.8317 -1.4292
 9323TIP3    H227927   5.793   7.210   1.060  1.2075 -1.5750 -0.3702
 9324TIP3   OH227928   3.324   0.862   3.551  0.2936  0.4942  0.1471
 9324TIP3    H127929   3.244   0.856   3.498 -0.4323  0.3167  1.2232
 9324TIP3    H227930   3.339   0.773   3.583  0.4958  0.6653  0.5408
 9325TIP3   OH227931   7.304   1.124   3.185  0.5097  0.4048 -0.2835
 9325TIP3    H127932   7.247   1.061   3.141  0.6889  0.5122 -0.6728
 9325TIP3    H227933   7.362   1.070   3.239 -0.1087  0.3089  0.3002
 9326TIP3   OH227934   2.010   4.696   4.337 -0.0152  0.7826  0.2692
 9326TIP3    H127935   2.041   4.734   4.419  0.6566  1.6286 -0.3553
 9326TIP3    H227936   1.919   4.725   4.329  0.0227  0.9719  0.5456
 9327TIP3   OH227937   2.535   1.811   5.195 -0.7958 -0.1219 -0.0555
 9327TIP3    H127938   2.564   1.719   5.195  1.2169  0.4525  0.9914
 9327TIP3    H227939   2.447   1.808   5.232 -0.9442 -1.6650 -0.4257
 9328TIP3   OH227940   0.486   6.073   0.470 -0.2613  0.1897 -0.5117
 9328TIP3    H127941   0.474   5.979   0.455 -0.1354 -0.1467  1.2176
 9328TIP3    H227942   0.436   6.116   0.401 -0.1842 -1.1414 -1.4259
 9329TIP3   OH227943   0.162   3.854   2.705 -0.1499 -0.7276 -0.4445
 9329TIP3    H127944   0.174   3.767   2.668 -1.6765 -1.7269  1.2249
 9329TIP3    H227945   0.237   3.867   2.762  0.1152 -0.9068 -0.7500
 9330TIP3   OH227946   4.115   3.010   0.243  0.5686  0.4075 -0.4142
 9330TIP3    H127947   4.041   3.071   0.246  1.2122  1.1625  1.2441
 9330TIP3    H227948   4.192   3.066   0.231  0.9736 -0.2902 -1.1562
 9331TIP3   OH227949   1.222   7.627   0.030  0.2583  0.3710 -1.0333
 9331TIP3    H127950   1.223   7.646  -0.064 -0.3753  0.2756 -1.0647
 9331TIP3    H227951   1.289   7.560   0.042  1.0586  1.1088 -1.2534
 9332TIP3   OH227952   0.528   7.197   5.351  0.1217 -0.1734 -0.2805
 9332TIP3    H127953   0.513   7.201   5.445  2.7873 -0.2442  0.2284
 9332TIP3    H227954   0.482   7.118   5.323  1.1282 -1.4452  1.4202
 9333TIP3   OH227955   5.628   5.528   5.565 -0.6194  0.0988  0.1288
 9333TIP3    H127956   5.655   5.440   5.540  0.5878 -0.0565  1.7929
 9333TIP3    H227957   5.572   5.515   5.642 -1.7613  0.7134 -0.5730
 9334TIP3   OH227958   5.032   3.531   0.958 -0.1821 -0.4146  0.1192
 9334TIP3    H127959   5.009   3.574   1.041 -1.2499 -1.4249  0.3796
 9334TIP3    H227960   4.991   3.585   0.891 -0.0441 -0.0617  0.3162
 9335TIP3   OH227961   2.380   7.601   6.270 -0.6114  0.9325 -0.0721
 9335TIP3    H127962   2.431   7.662   6.324  0.9997  0.5395 -1.0660
 9335TIP3    H227963   2.343   7.656   6.201 -2.8583  1.4717  1.4881
 9336TIP3   OH227964   2.444   0.721   2.634  0.1105  0.2851 -0.0725
 9336TIP3    H127965   2.441   0.687   2.544 -2.7569  0.4798 -0.1268
 9336TIP3    H227966   2.537   0.737   2.650  0.6761  0.8594 -3.2410
 9337TIP3   OH227967   6.738   6.459   1.244  0.0755  0.6840 -0.4950
 9337TIP3    H127968   6.744   6.523   1.173 -1.0956 -0.4524 -1.6742
 9337TIP3    H227969   6.826   6.423   1.251  0.3477  1.2289 -0.9661
 9338TIP3   OH227970   7.879   0.366   0.767 -0.2955 -0.3419 -0.4151
 9338TIP3    H127971   7.831   0.381   0.685 -0.2815  0.4003 -0.3013
 9338TIP3    H227972   7.937   0.442   0.774 -0.0231 -0.5958  0.0917
 9339TIP3   OH227973   4.848   0.422   0.520  0.1196 -0.3836 -0.1775
 9339TIP3    H127974   4.842   0.513   0.490  0.8637  0.4812  2.1402
 9339TIP3    H227975   4.771   0.380   0.481 -0.0376  1.1093 -1.6271
 9340TIP3   OH227976   0.424   0.799   4.305 -0.0296 -0.2361 -0.2666
 9340TIP3    H127977   0.450   0.838   4.221  1.1172 -0.7894 -0.1757
 9340TIP3    H227978   0.380   0.717   4.281  1.4489 -1.0472 -0.3024
 9341TIP3   OH227979   6.977   2.856   2.695  0.3630  0.6150  0.2564
 9341TIP3    H127980   6.913   2.900   2.638 -0.5834  0.8415  1.4427
 9341TIP3    H227981   6.948   2.877   2.783  0.4979 -1.5492  0.8599
 9342TIP3   OH227982   7.865   6.127   2.790  0.5817 -0.4835  0.3234
 9342TIP3    H127983   7.812   6.072   2.732 -0.3108  0.6169  0.0633
 9342TIP3    H227984   7.857   6.215   2.753  0.1989  0.2091  1.9670
 9343TIP3   OH227985   2.793   5.387   2.267 -0.1595  0.3474  0.0537
 9343TIP3    H127986   2.835   5.335   2.336  0.4500 -0.5115 -0.9411
 9343TIP3    H227987   2.709   5.343   2.253 -0.7483  1.1396  0.9474
 9344TIP3   OH227988   6.380   0.109   6.485  0.2223  0.3343  0.2163
 9344TIP3    H127989   6.465   0.094   6.442  1.0834  0.0479  1.9219
 9344TIP3    H227990   6.403   0.129   6.576 -1.4856  1.7149  0.3804
 9345TIP3   OH227991   4.608   5.727   6.024 -0.3471 -0.2651 -0.0804
 9345TIP3    H127992   4.634   5.728   6.116 -2.6841 -0.9003  0.6499
 9345TIP3    H227993   4.602   5.819   5.999 -1.4795 -0.0309  0.9779
 9346TIP3   OH227994   7.174   4.621   2.653  0.1843 -0.2789  0.0643
 9346TIP3    H127995   7.206   4.681   2.586 -1.3521 -0.3557 -0.7907
 9346TIP3    H227996   7.253   4.591   2.698  1.0526  1.8402  0.0904
 9347TIP3   OH227997   1.515   6.609   6.135 -0.0113  0.2593  0.0647
 9347TIP3    H127998   1.577   6.671   6.096  2.2862 -1.6094  0.5740
 9347TIP3    H227999   1.515   6.630   6.228 -0.7430  0.7025 -0.0216
 9348TIP3   OH228000   7.935   2.936   0.428  0.9217 -0.6823  0.2110
 9348TIP3    H128001   7.989   2.864   0.396  1.7700  0.1562 -0.3215
 9348TIP3    H228002   7.855   2.895   0.460  1.3061 -1.8299 -0.2675
 9349TIP3   OH228003   3.170   6.770   4.238 -0.4546  0.2095 -0.3496
 9349TIP3    H128004   3.213   6.686   4.257 -2.0186 -0.5943 -0.2258
 9349TIP3    H228005   3.197   6.790   4.149  0.7244  0.0969 -0.0471
 9350TIP3   OH228006   5.192   7.419   3.593 -0.2435  0.1769  0.2117
 9350TIP3    H128007   5.171   7.445   3.503  0.6264  0.8596  0.1865
 9350TIP3    H228008   5.183   7.500   3.644  1.4991  0.3378  0.3225
 9351TIP3   OH228009   6.801   5.759   4.837  0.1517 -0.5316  0.4064
 9351TIP3    H128010   6.856   5.765   4.759  2.4458 -0.8767  1.9054
 9351TIP3    H228011   6.856   5.791   4.908 -2.5868  1.8449  1.6473
 9352TIP3   OH228012   5.059   0.570   2.889  0.2958 -0.3413  0.1035
 9352TIP3    H128013   5.078   0.642   2.829  1.4487 -0.8686 -0.2023
 9352TIP3    H228014   5.041   0.496   2.831  0.9000 -0.7298  0.4064
 9353TIP3   OH228015   7.603   6.330   0.600  0.0028  0.3932  0.2396
 9353TIP3    H128016   7.679   6.309   0.655  1.4493 -1.7918 -2.3023
 9353TIP3    H228017   7.527   6.309   0.654  1.1978  1.1267  2.3325
 9354TIP3   OH228018   0.824   2.944   4.110  0.0330 -0.2549  0.0229
 9354TIP3    H128019   0.830   2.860   4.155  0.0342  0.1203  0.7321
 9354TIP3    H228020   0.818   3.009   4.180  1.4477  0.4596 -0.4829
 9355TIP3   OH228021   3.929   3.215   6.395 -0.3602  0.1337 -0.0106
 9355TIP3    H128022   3.950   3.275   6.467  1.0505 -0.6439  0.2614
 9355TIP3    H228023   3.948   3.265   6.316 -1.2001  0.7394  0.1560
 9356TIP3   OH228024   6.656   5.154   3.084  0.1819  0.0111 -0.1422
 9356TIP3    H128025   6.712   5.079   3.106  0.9146 -0.8566 -4.0860
 9356TIP3    H228026   6.718   5.226   3.072  0.1461 -0.1375 -1.3758
 9357TIP3   OH228027   0.637   0.195   0.657  0.1441 -0.1942  0.0511
 9357TIP3    H128028   0.548   0.228   0.657  0.9739  2.2839 -0.3905
 9357TIP3    H228029   0.632   0.112   0.610 -1.9117 -0.1492  0.1064
 9358TIP3   OH228030   2.099   6.124   0.219  0.7545 -0.1616 -0.1309
 9358TIP3    H128031   2.080   6.209   0.178  2.3209  0.5796  0.5723
 9358TIP3    H228032   2.182   6.138   0.265  0.5908 -1.8350  0.7519
 9359TIP3   OH228033   7.219   7.322   3.464 -0.2197  0.5044  0.1467
 9359TIP3    H128034   7.305   7.313   3.507 -1.1955 -0.8928  1.9432
 9359TIP3    H228035   7.164   7.365   3.529 -1.5534 -0.9526  0.0515
 9360TIP3   OH228036   1.765   2.680   5.874  0.4927  0.1218 -0.4095
 9360TIP3    H128037   1.793   2.617   5.941  2.5166  2.0980  0.7392
 9360TIP3    H228038   1.679   2.709   5.903  1.6511  1.5218  1.8956
 9361TIP3   OH228039   1.952   5.935   2.108 -0.1087 -0.1813 -0.2000
 9361TIP3    H128040   1.987   5.856   2.067 -1.8244 -0.7122 -0.7109
 9361TIP3    H228041   1.857   5.922   2.109 -0.3606  1.4462  0.6095
 9362TIP3   OH228042   1.371   6.162   0.797 -0.0772 -0.5103 -0.5261
 9362TIP3    H128043   1.424   6.171   0.717 -0.0425  1.7382 -0.3298
 9362TIP3    H228044   1.435   6.149   0.867 -0.0180 -1.0409 -0.6719
 9363TIP3   OH228045   5.446   0.696   2.530  0.0432 -0.1531  0.0518
 9363TIP3    H128046   5.462   0.685   2.436  1.2589  0.0256  0.2265
 9363TIP3    H228047   5.399   0.780   2.537  2.8091  1.5443 -0.1750
 9364TIP3   OH228048   6.551   3.304   4.107  0.5872  0.1351  0.3237
 9364TIP3    H128049   6.517   3.237   4.047 -2.0348  1.6206  0.0474
 9364TIP3    H228050   6.590   3.253   4.178  3.3794 -1.7029 -2.2068
 9365TIP3   OH228051   5.714   7.297   6.661 -0.0512 -0.1477  0.0618
 9365TIP3    H128052   5.697   7.391   6.670 -0.1279 -0.2553  1.1181
 9365TIP3    H228053   5.685   7.259   6.744  1.5314 -0.8727  0.3156
 9366TIP3   OH228054   7.300   2.914   6.235  0.0968  0.3874  0.2628
 9366TIP3    H128055   7.261   2.854   6.298  0.6104 -0.7541 -0.4747
 9366TIP3    H228056   7.228   2.969   6.206 -0.7337 -0.8909 -0.1746
 9367TIP3   OH228057   4.492   4.556   0.730 -0.3223  0.0417  0.0622
 9367TIP3    H128058   4.445   4.480   0.697  0.6997 -0.5604 -0.0336
 9367TIP3    H228059   4.485   4.549   0.825  1.9741 -1.6542  0.1818
 9368TIP3   OH228060   5.300   3.649   2.295 -0.7592 -0.3991  0.5368
 9368TIP3    H128061   5.306   3.720   2.232 -1.8190  0.1807  1.0686
 9368TIP3    H228062   5.234   3.589   2.259 -1.3986 -0.0462  1.0891
 9369TIP3   OH228063   1.475   1.167   6.583  0.1323 -0.8791 -0.7235
 9369TIP3    H128064   1.547   1.119   6.625  0.0182  1.1147  2.0240
 9369TIP3    H228065   1.514   1.208   6.507  1.7289 -0.5586  0.2245
 9370TIP3   OH228066   7.172   3.724   4.357  0.2051 -0.2566  0.1346
 9370TIP3    H128067   7.211   3.651   4.405  0.6211  0.4660  0.9138
 9370TIP3    H228068   7.217   3.802   4.389 -1.3789  0.5323  0.5733
 9371TIP3   OH228069   3.610   5.537   1.533  0.3807  0.4816 -0.3967
 9371TIP3    H128070   3.550   5.531   1.459 -0.7883  1.4858  0.4168
 9371TIP3    H228071   3.605   5.629   1.560  0.3320  0.0284  1.2555
 9372TIP3   OH228072   4.734   3.621   3.979  0.8272 -0.7030 -0.2735
 9372TIP3    H128073   4.652   3.651   3.940  0.3985 -0.0635  1.0384
 9372TIP3    H228074   4.774   3.566   3.912  0.7393  1.2860 -2.0998
 9373TIP3   OH228075   0.819   1.747   0.280  0.2684  0.0321  0.0643
 9373TIP3    H128076   0.839   1.676   0.219 -1.5664  0.2028 -0.7908
 9373TIP3    H228077   0.829   1.827   0.229 -0.9996  0.1901  0.0336
 9374TIP3   OH228078   5.698   7.276   3.965  0.0942 -0.4986 -0.5316
 9374TIP3    H128079   5.637   7.340   4.003  1.4267  0.6632 -0.2828
 9374TIP3    H228080   5.771   7.328   3.933  1.4433 -1.9258  0.0765
 9375TIP3   OH228081   4.601   6.331   6.280  0.3496 -0.5938  0.0167
 9375TIP3    H128082   4.510   6.323   6.251  0.9243 -3.0972 -1.4410
 9375TIP3    H228083   4.617   6.252   6.331  1.7873 -0.3125  0.0457
 9376TIP3   OH228084   1.539   6.204   1.301  0.0299  0.1394  0.0151
 9376TIP3    H128085   1.486   6.267   1.254 -0.7132 -0.1245  0.4854
 9376TIP3    H228086   1.540   6.126   1.245  0.2380  0.2675 -0.1636
 9377TIP3   OH228087   5.591   3.544   5.580  0.1285  0.3056 -0.4519
 9377TIP3    H128088   5.619   3.453   5.565 -0.6296 -0.1940  0.9365
 9377TIP3    H228089   5.501   3.546   5.548 -0.1234  0.3349  0.2383
 9378TIP3   OH228090   2.429   0.272   3.944 -0.0252 -0.4066  0.5118
 9378TIP3    H128091   2.387   0.358   3.945  0.8523  0.0375  2.1935
 9378TIP3    H228092   2.358   0.211   3.926 -0.6737  0.6539 -0.6421
 9379TIP3   OH228093   1.195   7.202   5.222 -0.2898 -0.7217  0.3897
 9379TIP3    H128094   1.219   7.279   5.170 -0.9107 -1.1319 -0.5445
 9379TIP3    H228095   1.206   7.128   5.162 -3.7421 -0.9652 -0.1662
 9380TIP3   OH228096   2.820   0.057   4.796 -0.1337  0.6636  0.3428
 9380TIP3    H128097   2.730   0.028   4.808  0.0930  0.3402  1.3923
 9380TIP3    H228098   2.820   0.149   4.824 -0.2857  0.8782 -0.3562
 9381TIP3   OH228099   5.845   6.650   4.071  0.1252  0.2800  0.5832
 9381TIP3    H128100   5.787   6.720   4.100  0.3293  0.1542  1.3048
 9381TIP3    H228101   5.838   6.583   4.139  0.0434 -0.3478 -0.0238
 9382TIP3   OH228102   4.073   6.224   0.269 -0.0057  0.1840 -0.3557
 9382TIP3    H128103   4.069   6.128   0.279 -0.8063  0.3363  1.1826
 9382TIP3    H228104   4.115   6.254   0.350  0.1000  1.1447 -0.7622
 9383TIP3   OH228105   1.135   2.814   4.886 -0.1305  0.4028  0.1603
 9383TIP3    H128106   1.196   2.746   4.859  1.4034  1.1382  1.6240
 9383TIP3    H228107   1.186   2.895   4.881 -0.2671  0.8175  3.3519
 9384TIP3   OH228108   7.417   6.789   0.690  0.3006  0.4753  0.1633
 9384TIP3    H128109   7.486   6.766   0.752 -0.4662 -0.3816  0.7345
 9384TIP3    H228110   7.434   6.880   0.668 -0.3983  1.4520  3.0752
 9385TIP3   OH228111   6.306   1.667   1.652 -0.0306 -0.2635 -0.7905
 9385TIP3    H128112   6.328   1.655   1.559 -0.2962 -1.9741 -0.6625
 9385TIP3    H228113   6.248   1.594   1.673  0.0867  0.0507  0.7505
 9386TIP3   OH228114   7.365   0.664   3.272  0.2658  0.4523 -0.9147
 9386TIP3    H128115   7.301   0.602   3.306 -0.2740  1.4701 -0.0009
 9386TIP3    H228116   7.401   0.621   3.195 -0.1738 -0.9326 -0.3886
 9387TIP3   OH228117   6.611   3.951   2.650  0.2968  0.4789 -0.2967
 9387TIP3    H128118   6.644   4.031   2.608 -0.2980  0.4548 -0.8280
 9387TIP3    H228119   6.517   3.966   2.659  0.2816  0.0990  0.1915
 9388TIP3   OH228120   6.130   0.071   3.187  0.0477  0.2033 -0.2843
 9388TIP3    H128121   6.100   0.042   3.273  2.7793  0.4688  0.8590
 9388TIP3    H228122   6.056   0.120   3.151 -1.4535 -0.5988  1.5495
 9389TIP3   OH228123   3.905   3.589   2.127 -0.5368 -0.2283  0.2409
 9389TIP3    H128124   3.826   3.555   2.171 -1.1175  0.3609 -0.3188
 9389TIP3    H228125   3.919   3.529   2.054  0.3738 -1.1533  1.1480
 9390TIP3   OH228126   5.305   2.552   5.066  0.0660 -0.2239  0.3802
 9390TIP3    H128127   5.227   2.566   5.119 -1.5052 -1.1057 -1.5781
 9390TIP3    H228128   5.357   2.632   5.078 -0.8460  0.1525  2.1480
 9391TIP3   OH228129   0.024   1.290   1.712 -0.2124 -0.0067  0.2246
 9391TIP3    H128130   0.069   1.351   1.654 -1.8879  1.7208  0.6561
 9391TIP3    H228131  -0.015   1.225   1.653 -0.4690  0.7658 -0.4691
 9392TIP3   OH228132   0.737   6.688   2.642 -0.5765 -0.2001  0.3729
 9392TIP3    H128133   0.664   6.736   2.602  0.3134  0.8878 -0.0140
 9392TIP3    H228134   0.799   6.757   2.665 -0.8906 -0.7944  3.3615
 9393TIP3   OH228135   3.900   1.905   0.860 -0.0491  0.4120 -0.0511
 9393TIP3    H128136   3.994   1.914   0.876  0.1500 -0.4242 -0.6766
 9393TIP3    H228137   3.861   1.913   0.947  0.6875 -0.2888  0.3630
 9394TIP3   OH228138   4.374   2.052   2.367  0.0604  0.2125  0.3487
 9394TIP3    H128139   4.447   1.992   2.348  0.6844  0.6061  1.4615
 9394TIP3    H228140   4.416   2.137   2.381 -0.7757  0.8196 -0.6702
 9395TIP3   OH228141   4.654   2.582   6.766  0.4565 -0.1929 -0.4436
 9395TIP3    H128142   4.701   2.648   6.714  0.4801 -1.0707 -1.5667
 9395TIP3    H228143   4.685   2.498   6.732 -1.9395 -0.8118 -1.2710
 9396TIP3   OH228144   7.593   5.750   3.274  0.4173  0.6369 -0.0347
 9396TIP3    H128145   7.655   5.800   3.326  0.4276  2.6934 -1.8660
 9396TIP3    H228146   7.625   5.758   3.184 -1.0437 -0.5087 -0.7045
 9397TIP3   OH228147   7.334   5.773   1.486  0.2227  0.4959  0.0839
 9397TIP3    H128148   7.275   5.704   1.455 -0.4996  1.0374  0.2357
 9397TIP3    H228149   7.316   5.848   1.430  0.8454  0.6398  0.0703
 9398TIP3   OH228150   5.987   5.395   5.245 -0.2114 -0.5072 -0.3982
 9398TIP3    H128151   5.910   5.339   5.238 -3.3565  2.9341  2.5067
 9398TIP3    H228152   6.003   5.402   5.340  1.7690  1.2776 -0.7932
 9399TIP3   OH228153   4.385   7.394   0.569 -0.8298  0.5380  0.0973
 9399TIP3    H128154   4.436   7.436   0.638 -0.2993  1.1288 -0.6484
 9399TIP3    H228155   4.383   7.301   0.595 -0.1726  0.6613  0.6229
 9400TIP3   OH228156   3.577   4.065   2.750 -0.6634 -0.0926 -0.0365
 9400TIP3    H128157   3.482   4.076   2.740 -0.8442  1.0250  2.3714
 9400TIP3    H228158   3.602   4.129   2.816  1.6337 -0.9828  0.0332
 9401TIP3   OH228159   5.873   7.587   2.859 -0.2716  0.2576 -0.3627
 9401TIP3    H128160   5.836   7.674   2.845 -2.0638 -0.4856 -0.5153
 9401TIP3    H228161   5.911   7.564   2.774  3.6140  2.2855  0.5709
 9402TIP3   OH228162   2.689   1.174   1.046 -0.1870 -0.0133  0.1094
 9402TIP3    H128163   2.721   1.186   0.956 -1.0390  1.1253 -0.0511
 9402TIP3    H228164   2.632   1.097   1.041  0.5389 -0.5529 -0.1051
 9403TIP3   OH228165   7.523   2.327   3.509 -0.1759 -0.1989 -0.0868
 9403TIP3    H128166   7.529   2.357   3.600 -2.2532 -1.6236  0.5983
 9403TIP3    H228167   7.534   2.232   3.515  1.6306 -0.1247 -1.6063
 9404TIP3   OH228168   0.593   7.722   4.638 -0.3092 -0.0387 -0.3699
 9404TIP3    H128169   0.576   7.628   4.638 -0.1952 -0.1326  2.2611
 9404TIP3    H228170   0.512   7.762   4.607  0.0328 -0.9813 -2.6855
 9405TIP3   OH228171   0.281   1.676   1.880 -0.7206 -0.2436 -0.3274
 9405TIP3    H128172   0.259   1.761   1.842  1.3035  0.7857  0.6805
 9405TIP3    H228173   0.304   1.621   1.805  0.2656  0.8352 -0.8456
 9406TIP3   OH228174   2.704   6.574   3.308  0.0728  0.5303  0.3703
 9406TIP3    H128175   2.788   6.599   3.347  1.5003 -0.4631 -1.9023
 9406TIP3    H228176   2.727   6.519   3.233 -2.4955  1.9278 -1.6108
 9407TIP3   OH228177   5.493   6.908   6.284 -0.1796  0.2560  0.0181
 9407TIP3    H128178   5.485   6.857   6.365 -1.4310  0.5055  0.0710
 9407TIP3    H228179   5.437   6.984   6.298 -0.7050  0.1105 -1.2329
 9408TIP3   OH228180   6.080   0.064   6.017 -0.0572 -0.7101 -0.4885
 9408TIP3    H128181   6.138  -0.001   6.056  0.0931 -1.5241 -1.9863
 9408TIP3    H228182   6.133   0.144   6.015 -0.5560 -0.2053  2.2210
 9409TIP3   OH228183   7.298   2.881   0.233 -0.7248 -0.1097  0.0512
 9409TIP3    H128184   7.312   2.850   0.323 -0.2964  1.6407  0.6308
 9409TIP3    H228185   7.206   2.862   0.216 -0.8558 -0.3298  0.9205
 9410TIP3   OH228186   2.281   0.432   2.988  0.1705  0.0441  0.3641
 9410TIP3    H128187   2.342   0.363   2.959  1.6188  2.3887 -2.7218
 9410TIP3    H228188   2.222   0.444   2.914 -0.0281  2.1044  0.8136
 9411TIP3   OH228189   5.108   3.197   2.254  0.3419  0.2725 -0.0365
 9411TIP3    H128190   5.171   3.125   2.258 -0.0888 -0.0966  0.1841
 9411TIP3    H228191   5.099   3.227   2.344 -0.2989 -0.1166  0.0314
 9412TIP3   OH228192   0.319   6.682   2.253  0.1317 -0.5830 -0.3138
 9412TIP3    H128193   0.344   6.604   2.203  0.0344  0.4895 -2.1163
 9412TIP3    H228194   0.341   6.660   2.344  0.4262 -2.5664 -0.8145
 9413TIP3   OH228195   6.339   4.319   0.072 -0.0808  0.4557  0.0464
 9413TIP3    H128196   6.267   4.365   0.029 -1.9406 -1.0208  1.4111
 9413TIP3    H228197   6.298   4.272   0.144  2.1582 -1.0839  0.4197
 9414TIP3   OH228198   1.724   1.573   4.236 -0.0587 -0.1755  0.5749
 9414TIP3    H128199   1.695   1.527   4.157 -0.6068 -2.6480  2.1095
 9414TIP3    H228200   1.820   1.576   4.228  0.0914 -2.4613  0.7872
 9415TIP3   OH228201   2.957   6.460   5.126  0.2685  0.2452  0.2581
 9415TIP3    H128202   2.948   6.510   5.208  0.0875 -0.6658  0.8117
 9415TIP3    H228203   3.051   6.464   5.107  0.1780  1.3247 -0.0678
 9416TIP3   OH228204   3.426   6.648   6.083  0.0653  0.2014  0.2834
 9416TIP3    H128205   3.341   6.610   6.061  0.3886 -0.5125  0.2663
 9416TIP3    H228206   3.412   6.690   6.168 -0.6067  1.1047 -0.2503
 9417TIP3   OH228207   4.850   6.565   4.281 -0.0634  0.4426  0.3633
 9417TIP3    H128208   4.860   6.470   4.280  0.0075  0.4335  1.2793
 9417TIP3    H228209   4.839   6.589   4.188 -1.4655 -0.5926  0.2294
 9418TIP3   OH228210   4.846   4.360   2.152  0.5025  0.0047  0.1346
 9418TIP3    H128211   4.920   4.420   2.141  0.7244 -0.5080 -1.3894
 9418TIP3    H228212   4.769   4.414   2.137  0.5891  0.4063  1.1066
 9419TIP3   OH228213   5.640   1.669   6.321  0.0978 -0.2134  0.4385
 9419TIP3    H128214   5.697   1.724   6.375 -1.2217 -1.0981  2.9058
 9419TIP3    H228215   5.585   1.730   6.274  1.0923  0.5973  0.2962
 9420TIP3   OH228216   4.697   0.100   0.388 -0.2590  0.3110 -0.0318
 9420TIP3    H128217   4.720   0.029   0.449 -1.3146  0.5495  0.6649
 9420TIP3    H228218   4.604   0.115   0.403 -0.3567  0.9004 -1.1796
 9421TIP3   OH228219   5.441   2.210   5.890 -0.2963  0.2156  0.0112
 9421TIP3    H128220   5.400   2.139   5.939  1.3094 -1.0211 -0.3428
 9421TIP3    H228221   5.378   2.232   5.821 -1.6442  0.5052  1.2957
 9422TIP3   OH228222   1.622   2.840   4.945  0.5197  0.1957  0.0333
 9422TIP3    H128223   1.582   2.889   5.017 -1.7342 -0.6529 -0.5891
 9422TIP3    H228224   1.692   2.790   4.987  0.1008  0.6981  1.4023
 9423TIP3   OH228225   0.253   3.214   0.365  0.0832  0.6335 -0.2563
 9423TIP3    H128226   0.206   3.258   0.294 -0.3174  2.0215  0.8275
 9423TIP3    H228227   0.194   3.144   0.393 -1.2425  2.1172  0.8312
 9424TIP3   OH228228   2.513   1.256   4.596 -0.0510  0.3414  0.2364
 9424TIP3    H128229   2.566   1.267   4.676  1.0707  0.1735 -0.4549
 9424TIP3    H228230   2.455   1.332   4.595  1.0087  1.1823  0.4147
 9425TIP3   OH228231   5.209   5.085   3.613 -0.5935  0.3716 -0.1316
 9425TIP3    H128232   5.213   5.086   3.708 -0.8636  0.6944 -0.1217
 9425TIP3    H228233   5.121   5.114   3.592 -0.1520  1.5111 -0.5000
 9426TIP3   OH228234   0.015   0.175   0.478 -0.2550  1.0328  0.2879
 9426TIP3    H128235  -0.003   0.256   0.527 -0.5202  0.3454  1.3617
 9426TIP3    H228236   0.053   0.116   0.543 -1.3380 -0.1811 -0.1305
 9427TIP3   OH228237   3.283   7.240   0.190 -0.0308  0.1829 -0.4082
 9427TIP3    H128238   3.302   7.289   0.270 -2.0328  0.0606  0.2103
 9427TIP3    H228239   3.348   7.271   0.127  2.2925 -0.4959  1.5075
 9428TIP3   OH228240   6.334   7.170   5.132 -0.1163  0.6744  0.1245
 9428TIP3    H128241   6.349   7.218   5.214 -1.4956 -0.1020  0.8739
 9428TIP3    H228242   6.313   7.237   5.068  2.6597  1.4644 -0.0779
 9429TIP3   OH228243   7.542   4.194   0.172 -0.3244  0.3452 -0.2011
 9429TIP3    H128244   7.552   4.172   0.264  1.6341 -0.4379 -0.5585
 9429TIP3    H228245   7.536   4.110   0.127 -1.7536  0.7213 -0.7801
 9430TIP3   OH228246   5.107   2.499   3.776  0.2750  0.0547  0.2226
 9430TIP3    H128247   5.168   2.558   3.819  1.5437 -1.1802  0.1909
 9430TIP3    H228248   5.076   2.442   3.846  0.7453 -0.6293 -0.1175
 9431TIP3   OH228249   7.775   5.030   3.823 -0.5065 -0.1301  0.0308
 9431TIP3    H128250   7.756   5.096   3.889 -0.4525 -0.5392  0.4587
 9431TIP3    H228251   7.782   5.079   3.741 -0.6366  0.3699  0.3182
 9432TIP3   OH228252   4.578   7.405   1.792  0.1390  0.1441 -0.2355
 9432TIP3    H128253   4.559   7.439   1.879  1.6814  0.0735  0.1611
 9432TIP3    H228254   4.615   7.318   1.808 -2.4925 -1.2630 -1.1646
 9433TIP3   OH228255   6.806   6.692   6.446  0.3064  0.5082  0.2044
 9433TIP3    H128256   6.768   6.771   6.485 -0.2278 -0.0272  0.7917
 9433TIP3    H228257   6.894   6.687   6.483  0.7708  1.4387 -0.7121
 9434TIP3   OH228258   1.593   5.590   3.820  0.5905  0.0859  0.3523
 9434TIP3    H128259   1.542   5.640   3.757  0.1575  0.5519  1.0539
 9434TIP3    H228260   1.544   5.599   3.902  0.6564 -1.2652  0.5514
 9435TIP3   OH228261   2.055   1.081   0.907 -0.0005  0.4145  0.0428
 9435TIP3    H128262   2.068   1.026   0.984  1.0715  1.2936  0.5134
 9435TIP3    H228263   2.140   1.084   0.863 -0.6070 -0.1146 -1.2255
 9436TIP3   OH228264   7.040   2.210   0.225 -0.9098  0.2884  0.2487
 9436TIP3    H128265   7.111   2.183   0.282 -0.7174 -0.0893 -0.1633
 9436TIP3    H228266   7.064   2.177   0.138 -1.3690  0.5397  0.0181
 9437TIP3   OH228267   4.845   5.442   1.570 -0.4008 -0.3618  0.1966
 9437TIP3    H128268   4.852   5.347   1.573  0.2817 -0.3079  0.2733
 9437TIP3    H228269   4.935   5.474   1.574 -0.4484  0.2351 -2.1394
 9438TIP3   OH228270   1.808   2.311   5.123  0.0847 -0.0079 -0.1080
 9438TIP3    H128271   1.847   2.360   5.050  0.9728 -1.1085 -0.4011
 9438TIP3    H228272   1.860   2.231   5.129 -1.4231 -1.0111  0.2482
 9439TIP3   OH228273   0.010   7.380   3.097 -0.8581 -0.4545  0.0734
 9439TIP3    H128274   0.084   7.404   3.153 -1.1266 -0.0667  0.2663
 9439TIP3    H228275  -0.035   7.312   3.146 -1.4160  0.2813  0.5967
 9440TIP3   OH228276   2.208   2.256   3.432 -0.0107  0.0340  0.5191
 9440TIP3    H128277   2.190   2.165   3.407  1.0644 -0.0049 -0.1567
 9440TIP3    H228278   2.123   2.300   3.423 -0.0644 -0.3908 -1.4564
 9441TIP3   OH228279   6.995   7.527   2.513  0.1670 -0.2885 -0.4711
 9441TIP3    H128280   7.068   7.555   2.568  0.7819 -1.4517 -0.6536
 9441TIP3    H228281   6.923   7.511   2.574 -0.2515  1.7313 -0.3752
 9442TIP3   OH228282   3.044   6.426   3.751 -0.3576 -0.0799 -0.8013
 9442TIP3    H128283   3.083   6.448   3.836 -1.1647  1.5042 -0.8049
 9442TIP3    H228284   3.073   6.495   3.692 -0.8437 -0.4663 -1.5160
 9443TIP3   OH228285   2.643   4.519   3.870  0.0220 -0.2977  0.0680
 9443TIP3    H128286   2.562   4.484   3.833 -0.0857 -0.3333  0.3418
 9443TIP3    H228287   2.664   4.460   3.943 -0.2597  0.3119  0.6499
 9444TIP3   OH228288   4.520   1.966   2.671 -0.5358  0.2031 -0.2097
 9444TIP3    H128289   4.498   2.059   2.668 -0.5905  0.2545  1.1061
 9444TIP3    H228290   4.445   1.924   2.712 -0.3211 -0.3549 -0.3727
 9445TIP3   OH228291   7.373   5.962   5.883  0.0914 -0.1454  0.1064
 9445TIP3    H128292   7.358   5.883   5.831  0.6864  0.4727 -1.0320
 9445TIP3    H228293   7.341   6.034   5.828  0.5568  0.5098  0.6697
 9446TIP3   OH228294   6.864   2.470   6.021  0.0759 -0.1991  0.1542
 9446TIP3    H128295   6.816   2.483   6.102  0.6168 -0.5754  0.5435
 9446TIP3    H228296   6.954   2.494   6.043 -0.0520  1.2926 -0.7685
 9447TIP3   OH228297   6.642   3.721   1.545  0.4317 -0.1215  0.1471
 9447TIP3    H128298   6.712   3.785   1.545 -0.4403  0.8692 -0.8117
 9447TIP3    H228299   6.566   3.767   1.510  0.1085 -2.0231 -1.8721
 9448TIP3   OH228300   1.536   5.176   2.503 -0.3548 -0.2608 -0.4871
 9448TIP3    H128301   1.515   5.092   2.461 -0.7029 -0.7086  0.5499
 9448TIP3    H228302   1.461   5.193   2.560  1.0854 -0.7752  1.6410
 9449TIP3   OH228303   3.554   4.191   4.997 -0.8283 -0.0808  0.0021
 9449TIP3    H128304   3.630   4.155   5.042  0.5323  1.1360 -1.2208
 9449TIP3    H228305   3.497   4.222   5.067  0.0561 -0.4875  0.9218
 9450TIP3   OH228306   7.395   3.462   4.021  0.5484  0.5544  0.8093
 9450TIP3    H128307   7.449   3.501   3.953 -0.0427 -1.8581 -1.1538
 9450TIP3    H228308   7.329   3.529   4.041  0.8302  1.3688 -0.8733
 9451TIP3   OH228309   7.184   6.402   0.861  0.2296  0.6057  0.4367
 9451TIP3    H128310   7.142   6.471   0.808 -0.5613 -0.8210 -0.8903
 9451TIP3    H228311   7.161   6.424   0.951 -0.6844  1.6308 -0.0128
 9452TIP3   OH228312   3.171   3.678   2.931 -0.3738  0.4846 -0.4972
 9452TIP3    H128313   3.122   3.726   2.998  2.1726  2.5579  0.0130
 9452TIP3    H228314   3.218   3.610   2.980 -0.7431  0.1205 -0.6361
 9453TIP3   OH228315   6.805   6.973   3.816  0.3569 -0.1099  0.3000
 9453TIP3    H128316   6.885   6.967   3.869  0.4831  1.2373  0.2742
 9453TIP3    H228317   6.734   6.970   3.880  0.4275 -0.8920  0.3530
 9454TIP3   OH228318   3.558   1.639   5.437 -0.5257  0.4054  0.2252
 9454TIP3    H128319   3.516   1.716   5.475 -1.4676 -0.0460  0.1342
 9454TIP3    H228320   3.621   1.674   5.374 -2.2560  1.1262 -1.2049
 9455TIP3   OH228321   1.906   5.512   1.473  0.4491 -0.3586 -0.0865
 9455TIP3    H128322   1.935   5.491   1.562 -0.0215  0.0261  0.1636
 9455TIP3    H228323   1.814   5.484   1.471  1.0154 -2.2970 -1.1129
 9456TIP3   OH228324   6.463   2.809   6.027  0.0546 -0.0334  0.0694
 9456TIP3    H128325   6.402   2.877   6.056 -0.8013 -0.2088 -1.2145
 9456TIP3    H228326   6.477   2.829   5.934  2.2314  0.1956  0.3790
 9457TIP3   OH228327   5.909   7.583   1.195  0.5781  0.4476  0.1672
 9457TIP3    H128328   5.876   7.600   1.107  0.2701 -1.9760 -0.2492
 9457TIP3    H228329   5.975   7.651   1.209 -0.1972  1.5953 -1.4544
 9458TIP3   OH228330   4.054   7.627   6.436 -0.1496  0.3013  0.1281
 9458TIP3    H128331   4.106   7.706   6.419 -1.6631  1.1883 -0.5232
 9458TIP3    H228332   4.059   7.576   6.355 -0.2906  0.3712  0.0765
 9459TIP3   OH228333   7.159   3.586   3.334 -0.0737 -0.2896 -0.2873
 9459TIP3    H128334   7.169   3.545   3.248 -0.5601 -1.6852  0.3004
 9459TIP3    H228335   7.153   3.680   3.315  1.2772 -0.4389 -1.6525
 9460TIP3   OH228336   4.372   3.998   3.668  0.0622  0.3896  0.3247
 9460TIP3    H128337   4.326   4.077   3.641  0.8033  1.1944  1.3156
 9460TIP3    H228338   4.344   3.983   3.758 -0.6490 -0.9380 -0.0863
 9461TIP3   OH228339   1.346   4.121   2.697 -0.5268  0.1133 -0.3826
 9461TIP3    H128340   1.326   4.166   2.779 -0.4891  0.2455 -0.4442
 9461TIP3    H228341   1.401   4.048   2.722 -0.9541 -0.1578 -0.2313
 9462TIP3   OH228342   2.955   7.364   1.886  0.1066 -0.4208  0.6144
 9462TIP3    H128343   2.980   7.293   1.828 -0.1241 -0.8444  1.0326
 9462TIP3    H228344   2.893   7.416   1.834  1.3938  0.3248 -0.2273
 9463TIP3   OH228345   0.447   1.139   2.132 -0.6252 -0.0443  0.0607
 9463TIP3    H128346   0.522   1.170   2.082 -0.0219 -1.4879  0.0226
 9463TIP3    H228347   0.434   1.205   2.200 -1.3645  1.8762 -1.8574
 9464TIP3   OH228348   1.490   2.670   4.421  0.4702 -0.1748  0.3521
 9464TIP3    H128349   1.552   2.741   4.414 -1.0265  1.1627  0.0279
 9464TIP3    H228350   1.534   2.595   4.382  1.8922  0.6931  0.2498
 9465TIP3   OH228351   7.474   5.307   4.425 -0.0541 -0.4422  0.3277
 9465TIP3    H128352   7.474   5.275   4.515 -0.7569  0.2447  0.5775
 9465TIP3    H228353   7.535   5.381   4.426 -0.4243 -0.1320  0.3585
 9466TIP3   OH228354   2.923   4.573   0.021  0.4101 -0.0980 -0.4378
 9466TIP3    H128355   2.871   4.639   0.067  2.1189  0.6883  0.4435
 9466TIP3    H228356   2.966   4.620  -0.050  0.4528 -0.5973 -0.7540
 9467TIP3   OH228357   4.934   6.407   4.707  0.5963 -0.3701  0.3886
 9467TIP3    H128358   5.025   6.380   4.695  0.9900  0.9362  0.2989
 9467TIP3    H228359   4.893   6.390   4.622  0.3942 -2.1815  0.8025
 9468TIP3   OH228360   3.395   5.885   1.596  0.0288 -0.5832  0.0956
 9468TIP3    H128361   3.407   5.978   1.615  1.0095 -0.7952  0.5765
 9468TIP3    H228362   3.301   5.875   1.580  0.1148  0.7674 -1.5127
 9469TIP3   OH228363   2.456   5.693   3.144 -0.3301  0.1444  0.0510
 9469TIP3    H128364   2.519   5.764   3.130 -0.6439  0.3133 -0.4945
 9469TIP3    H228365   2.439   5.657   3.057 -1.6444  0.6575  0.0745
 9470TIP3   OH228366   0.418   4.475   0.383 -0.4646  0.4087  0.2474
 9470TIP3    H128367   0.382   4.536   0.448 -2.4027 -1.6529  1.2573
 9470TIP3    H228368   0.452   4.403   0.435 -1.9808 -1.2645 -0.9683
 9471TIP3   OH228369   0.720   0.327   3.790 -0.1240  0.3288  0.0555
 9471TIP3    H128370   0.676   0.284   3.716  1.4093 -1.2997  0.0526
 9471TIP3    H228371   0.764   0.402   3.750 -1.4115  0.9779 -0.2183
 9472TIP3   OH228372   3.622   0.851   0.211  0.4149 -0.1732  0.0669
 9472TIP3    H128373   3.674   0.915   0.164 -0.4713  1.4676  1.2315
 9472TIP3    H228374   3.655   0.853   0.301 -0.8957  0.1118  0.5712
 9473TIP3   OH228375   5.113   6.324   4.083  0.1039  0.1323  0.3509
 9473TIP3    H128376   5.035   6.370   4.115 -0.8277 -0.1624 -1.3643
 9473TIP3    H228377   5.090   6.231   4.091 -0.1703  0.0470 -1.0909
 9474TIP3   OH228378   8.023   5.084   0.749  0.4562 -0.2455  0.0331
 9474TIP3    H128379   8.085   5.139   0.797 -2.3581  1.6580  1.8071
 9474TIP3    H228380   7.976   5.036   0.818 -0.2229 -1.4634 -1.2283
 9475TIP3   OH228381   5.985   1.452   1.807 -0.9380  0.2698 -0.3866
 9475TIP3    H128382   5.939   1.404   1.739 -0.9603  0.4125 -0.4718
 9475TIP3    H228383   6.078   1.435   1.790 -0.9821 -0.8418  0.3842
 9476TIP3   OH228384   5.558   4.376   5.857  0.3787 -0.3055 -0.5829
 9476TIP3    H128385   5.572   4.471   5.852  2.0534 -0.5088 -0.3482
 9476TIP3    H228386   5.597   4.342   5.777 -1.7738 -0.6912 -1.5435
 9477TIP3   OH228387   6.715   2.068   1.973  0.6520  0.6127 -0.2174
 9477TIP3    H128388   6.784   2.002   1.982  1.2130  1.0119 -1.3343
 9477TIP3    H228389   6.633   2.019   1.976  1.0813 -0.2605 -1.9293
 9478TIP3   OH228390   7.659   0.262   2.870  0.1799  0.2828 -0.0183
 9478TIP3    H128391   7.633   0.299   2.955  1.7221  1.6302 -0.0821
 9478TIP3    H228392   7.693   0.337   2.821 -1.5403 -0.2827 -2.2289
 9479TIP3   OH228393   0.432   1.277   5.025  0.6656 -0.3194 -0.2275
 9479TIP3    H128394   0.420   1.345   4.959  3.4244  0.7880  0.2539
 9479TIP3    H228395   0.383   1.308   5.101  0.1800  0.0691 -0.6924
 9480TIP3   OH228396   7.979   4.384   6.397  0.2235 -0.1317  0.2296
 9480TIP3    H128397   8.054   4.418   6.446  0.3193  2.0653 -1.2897
 9480TIP3    H228398   7.994   4.290   6.391  1.8682  0.0024  1.5647
 9481TIP3   OH228399   6.323   6.388   1.962 -0.2296 -0.1061 -0.0188
 9481TIP3    H128400   6.346   6.426   2.047 -0.5460  0.4527 -0.1738
 9481TIP3    H228401   6.406   6.377   1.917 -0.2124  1.8546 -0.5599
 9482TIP3   OH228402   0.932   0.660   1.373 -0.7490  0.4628 -0.1181
 9482TIP3    H128403   0.993   0.725   1.338 -0.1438  0.2053  0.4518
 9482TIP3    H228404   0.864   0.653   1.306 -1.0992  2.0535  0.0207
 9483TIP3   OH228405   2.419   6.572   3.055 -0.2030 -0.2569 -0.1157
 9483TIP3    H128406   2.412   6.581   3.150 -1.0272 -0.8497 -0.1174
 9483TIP3    H228407   2.459   6.655   3.026 -0.4306  0.1390  0.6862
 9484TIP3   OH228408   2.173   6.846   5.898  0.0429 -0.0493 -0.3663
 9484TIP3    H128409   2.230   6.783   5.943 -2.6971 -1.0087  2.0445
 9484TIP3    H228410   2.176   6.818   5.806  0.5315 -2.4586  0.2967
 9485TIP3   OH228411   3.313   6.513   5.668 -0.4452 -0.2400 -0.1216
 9485TIP3    H128412   3.225   6.549   5.676 -0.2060  0.3091  0.0238
 9485TIP3    H228413   3.361   6.577   5.616 -0.1648 -0.6052 -0.3222
 9486TIP3   OH228414   0.642   5.043   2.705 -0.4569 -0.2223 -0.0754
 9486TIP3    H128415   0.614   4.969   2.759  2.0541 -1.9072 -0.8867
 9486TIP3    H228416   0.737   5.048   2.719 -0.1589  1.0995 -2.1298
 9487TIP3   OH228417   4.468   5.093   0.459  0.2757 -0.4203  0.0115
 9487TIP3    H128418   4.535   5.053   0.404 -0.0638 -0.4589 -0.3799
 9487TIP3    H228419   4.386   5.075   0.414  0.0331 -0.0748  0.3068
 9488TIP3   OH228420   7.574   5.959   6.053  0.6090 -0.0084 -0.0509
 9488TIP3    H128421   7.636   6.029   6.036  0.7248  0.8122  3.0691
 9488TIP3    H228422   7.506   5.970   5.986  0.5979  3.1508  0.3315
 9489TIP3   OH228423   8.108   2.388   5.389  0.2768  0.1018 -0.1403
 9489TIP3    H128424   8.062   2.325   5.334  1.7769  0.1605 -1.5461
 9489TIP3    H228425   8.167   2.434   5.329  1.5478  0.6119  1.4036
 9490TIP3   OH228426   4.367   4.819   0.552  0.1671  0.2097 -0.3231
 9490TIP3    H128427   4.347   4.753   0.485 -0.7417 -0.0078  0.1494
 9490TIP3    H228428   4.448   4.860   0.522 -0.0000 -0.1806 -1.3314
 9491TIP3   OH228429   5.194   0.230   1.569 -0.0369 -0.4005  0.1786
 9491TIP3    H128430   5.138   0.233   1.491  1.2788 -0.1625 -0.8117
 9491TIP3    H228431   5.243   0.313   1.565  0.6825 -0.7929  0.7683
 9492TIP3   OH228432   5.446   3.339   6.403 -0.2907  0.1388  0.2721
 9492TIP3    H128433   5.497   3.405   6.357 -2.0240  0.8927 -0.6109
 9492TIP3    H228434   5.491   3.329   6.487  1.9157 -0.0189 -0.8567
 9493TIP3   OH228435   5.369   0.027   1.586 -0.6121 -0.0196 -0.2454
 9493TIP3    H128436   5.300   0.079   1.545 -0.2973 -0.5034 -1.4375
 9493TIP3    H228437   5.395  -0.036   1.518 -0.7460 -1.5081  1.0254
 9494TIP3   OH228438   4.947   5.031   5.639 -0.0512  0.4930  0.0903
 9494TIP3    H128439   4.919   5.081   5.716  0.8771  2.0130 -0.4953
 9494TIP3    H228440   4.945   4.940   5.667 -2.8645  0.7132  0.8771
 9495TIP3   OH228441   2.172   1.563   1.807  0.0814  0.8158 -0.2879
 9495TIP3    H128442   2.077   1.567   1.801  0.0459 -0.7270 -1.3190
 9495TIP3    H228443   2.196   1.639   1.860 -1.8212  0.4507  1.2014
 9496TIP3   OH228444   7.012   0.155   5.673 -0.0813  0.0006 -0.6132
 9496TIP3    H128445   7.037   0.228   5.616 -0.7679  0.2319 -0.6228
 9496TIP3    H228446   6.989   0.196   5.756  1.3873 -0.3744  0.0119
 9497TIP3   OH228447   6.406   6.563   2.178  0.2254  0.4655 -0.2495
 9497TIP3    H128448   6.495   6.592   2.159  0.8013 -2.2916 -2.3710
 9497TIP3    H228449   6.350   6.623   2.128  1.0847  0.4636 -1.2389
 9498TIP3   OH228450   2.949   3.893   2.340  0.2199 -0.1874  0.3866
 9498TIP3    H128451   2.868   3.843   2.343 -1.3113  2.0310 -1.5303
 9498TIP3    H228452   2.998   3.855   2.267  0.0050 -0.2393  0.2684
 9499TIP3   OH228453   6.567   0.290   0.808  0.3579  0.1308 -0.3113
 9499TIP3    H128454   6.620   0.273   0.886 -0.2936  0.1454  0.1477
 9499TIP3    H228455   6.622   0.262   0.735  0.8512 -0.2022  0.1759
 9500TIP3   OH228456   5.104   5.691   0.840  0.2490  0.1069  0.0417
 9500TIP3    H128457   5.052   5.758   0.796 -0.3201  0.9748  1.9183
 9500TIP3    H228458   5.186   5.687   0.790 -0.7947  0.1372 -1.7796
 9501TIP3   OH228459   5.045   6.239   0.149  0.0222 -0.3700  0.1134
 9501TIP3    H128460   5.120   6.193   0.187  0.3304  1.4610  1.8908
 9501TIP3    H228461   4.970   6.186   0.173  0.6278 -1.8164 -1.0185
 9502TIP3   OH228462   6.795   4.673   4.781  0.2447 -0.1418  0.0184
 9502TIP3    H128463   6.750   4.662   4.697 -0.5444 -1.1317  0.5562
 9502TIP3    H228464   6.725   4.675   4.846  0.8837  0.0984  0.7125
 9503TIP3   OH228465   8.105   5.853   5.303 -0.0392  0.4895 -0.0476
 9503TIP3    H128466   8.040   5.855   5.233 -0.1504  0.9588  0.0590
 9503TIP3    H228467   8.065   5.801   5.372 -0.1476  0.4622 -0.1322
 9504TIP3   OH228468   2.341   3.008   2.011  0.2791  0.1189  0.4947
 9504TIP3    H128469   2.256   2.965   2.017 -0.1091  0.7121 -0.4763
 9504TIP3    H228470   2.356   3.017   1.917  1.8189 -0.7401  0.6232
 9505TIP3   OH228471   2.254   3.826   6.218 -0.3391  0.7195  0.6570
 9505TIP3    H128472   2.297   3.752   6.261  0.2494 -0.2968 -1.5430
 9505TIP3    H228473   2.163   3.798   6.206 -0.2954  0.6473  0.4884
 9506TIP3   OH228474   1.053   4.209   2.657  0.1121 -0.2585  0.0226
 9506TIP3    H128475   1.017   4.159   2.584 -1.1903  1.3927 -0.5368
 9506TIP3    H228476   1.145   4.182   2.662 -0.2259 -1.7317 -1.0339
 9507TIP3   OH228477   5.623   2.563   0.418 -0.1000 -0.1134 -0.2448
 9507TIP3    H128478   5.564   2.588   0.489  0.9710 -1.8870  1.3688
 9507TIP3    H228479   5.613   2.469   0.410  0.8160 -0.1326 -1.5360
 9508TIP3   OH228480   1.324   7.225   4.076 -0.0682 -0.1276  0.4141
 9508TIP3    H128481   1.369   7.208   3.993  1.8992 -0.2693  1.4496
 9508TIP3    H228482   1.297   7.138   4.107 -0.1548 -0.1521  0.2699
 9509TIP3   OH228483   2.843   2.438   4.386  0.0923  0.3152 -0.1027
 9509TIP3    H128484   2.929   2.406   4.358 -0.2993 -1.2831  0.4438
 9509TIP3    H228485   2.805   2.476   4.307  0.5703 -0.6237 -0.8096
 9510TIP3   OH228486   2.949   7.559   5.958  0.1421  0.3692 -0.0800
 9510TIP3    H128487   3.012   7.596   5.896 -0.1097  1.8979  0.5462
 9510TIP3    H228488   2.864   7.573   5.917  0.0594  0.1182 -0.0007
 9511TIP3   OH228489   3.124   7.544   0.610 -0.0354  0.5275  0.5123
 9511TIP3    H128490   3.181   7.471   0.634  0.8895  0.1267 -2.4130
 9511TIP3    H228491   3.042   7.503   0.583  0.0273  0.6483  0.1179
 9512TIP3   OH228492   6.374   4.813   5.775 -0.0944  0.0573  0.1912
 9512TIP3    H128493   6.298   4.759   5.796  0.4174 -2.0711 -2.8502
 9512TIP3    H228494   6.338   4.888   5.728 -0.4614  0.1135  0.5593
 9513TIP3   OH228495   2.902   2.246   0.174 -0.2753  0.0641 -0.1866
 9513TIP3    H128496   2.838   2.232   0.104 -1.6587  0.0264  1.0468
 9513TIP3    H228497   2.987   2.241   0.130 -0.9586 -2.8685 -1.4405
 9514TIP3   OH228498   5.683   0.124   1.121  0.7760  0.1018 -0.8347
 9514TIP3    H128499   5.775   0.102   1.107  1.3532  2.5394 -1.2988
 9514TIP3    H228500   5.645   0.122   1.033  1.5813  3.6970 -1.4029
 9515TIP3   OH228501   1.753   0.218   3.194  0.5325  0.8925  0.0144
 9515TIP3    H128502   1.678   0.168   3.227 -0.7632  0.6159 -2.9877
 9515TIP3    H228503   1.825   0.156   3.194  0.0144  0.2758  0.3110
 9516TIP3   OH228504   6.564   5.512   3.202  0.0974  0.1608 -0.2100
 9516TIP3    H128505   6.636   5.462   3.165 -0.5887 -0.1729 -1.1285
 9516TIP3    H228506   6.591   5.529   3.292  1.6404  0.6618 -0.7252
 9517TIP3   OH228507   0.816   4.883   5.027  0.0944  0.1806  0.0593
 9517TIP3    H128508   0.881   4.900   5.096 -0.2252 -0.1269  0.4440
 9517TIP3    H228509   0.742   4.845   5.074 -0.1145 -0.0593 -0.4640
 9518TIP3   OH228510   7.304   5.240   1.082 -0.4598 -0.2338  0.2697
 9518TIP3    H128511   7.327   5.302   1.152 -0.1815 -0.8385  0.7300
 9518TIP3    H228512   7.383   5.235   1.028 -0.5457 -0.0421  0.1298
 9519TIP3   OH228513   6.300   3.306   0.543 -1.1226  0.0803 -0.7567
 9519TIP3    H128514   6.255   3.264   0.470 -1.1005  0.6161 -1.0839
 9519TIP3    H228515   6.361   3.239   0.575 -0.9854 -0.0884 -1.3569
 9520TIP3   OH228516   0.503   5.636   0.846  0.4808 -0.1835 -0.6583
 9520TIP3    H128517   0.431   5.678   0.800 -0.7250  0.8638  1.9554
 9520TIP3    H228518   0.582   5.670   0.804 -0.4748 -0.8906 -3.1950
 9521TIP3   OH228519   2.333   3.435   0.733 -0.3355  0.2552 -0.1543
 9521TIP3    H128520   2.251   3.455   0.688  0.5677  0.4423 -1.8093
 9521TIP3    H228521   2.307   3.405   0.820 -2.0994  1.1922 -0.3252
 9522TIP3   OH228522   8.306   0.181   1.277  0.3889  1.0981  0.0548
 9522TIP3    H128523   8.289   0.125   1.201  0.2687 -0.2188  1.0180
 9522TIP3    H228524   8.221   0.220   1.297 -0.0225 -0.0600  0.6598
 9523TIP3   OH228525   0.630   1.670   0.870 -0.8033 -0.4783  0.8825
 9523TIP3    H128526   0.712   1.621   0.861 -1.6173 -1.9867  1.4151
 9523TIP3    H228527   0.628   1.696   0.962  0.4702  2.2027  0.2582
 9524TIP3   OH228528   7.562   0.137   6.698 -0.1704 -0.1333 -0.7825
 9524TIP3    H128529   7.654   0.160   6.706 -0.0560 -1.0895  1.6424
 9524TIP3    H228530   7.517   0.221   6.685  0.9984  0.3408 -1.9652
 9525TIP3   OH228531   6.373   7.140   6.667  0.2798 -0.5483  0.3040
 9525TIP3    H128532   6.439   7.182   6.723 -1.2106  1.3722  0.7379
 9525TIP3    H228533   6.323   7.213   6.630 -0.6118 -1.8915 -1.2706
 9526TIP3   OH228534   3.958   5.640   5.958  0.0324  0.4792 -0.2939
 9526TIP3    H128535   3.869   5.642   5.923  0.0012  1.2207 -0.1816
 9526TIP3    H228536   4.011   5.600   5.889 -0.9030 -3.1442  0.8508
 9527TIP3   OH228537   2.807   7.660   0.704  0.3362  0.4965 -0.3521
 9527TIP3    H128538   2.831   7.751   0.684 -1.4202  1.1890  0.5388
 9527TIP3    H228539   2.742   7.637   0.638 -0.0016  0.2363  0.0726
 9528TIP3   OH228540   0.561   2.146   5.798 -0.3835  0.7980  0.3084
 9528TIP3    H128541   0.620   2.175   5.869  1.1904  0.2378 -0.7128
 9528TIP3    H228542   0.521   2.227   5.766  1.3703  1.4776 -0.2737
 9529TIP3   OH228543   2.204   3.034   5.284  0.2213  0.4164 -0.2096
 9529TIP3    H128544   2.143   3.044   5.212 -1.5969 -3.4020  0.5475
 9529TIP3    H228545   2.265   2.966   5.255 -0.4894 -1.1439  1.6402
 9530TIP3   OH228546   3.437   2.456   1.749  0.0412  0.5132 -0.3507
 9530TIP3    H128547   3.519   2.407   1.742  0.3268  1.0529 -0.9499
 9530TIP3    H228548   3.380   2.417   1.683 -0.6941 -0.7640  0.9680
 9531TIP3   OH228549   6.674   2.715   3.708 -0.1578 -0.4936  0.6586
 9531TIP3    H128550   6.681   2.800   3.664 -0.8078 -0.2047  1.0998
 9531TIP3    H228551   6.741   2.661   3.666 -0.5615 -0.1381 -0.4723
 9532TIP3   OH228552   5.464   1.270   2.099 -0.1358 -0.1743 -0.2450
 9532TIP3    H128553   5.419   1.291   2.017  1.2473 -1.5310 -1.3875
 9532TIP3    H228554   5.405   1.209   2.143  1.1308 -3.2404 -2.4795
 9533TIP3   OH228555   3.963   3.692   0.789 -0.4192 -1.0730 -0.0179
 9533TIP3    H128556   3.938   3.687   0.881  3.4254  0.3938  1.3198
 9533TIP3    H228557   3.920   3.771   0.756  0.1668 -0.1707  1.3142
 9534TIP3   OH228558   6.371   4.902   6.407 -0.2629  0.4387  0.5750
 9534TIP3    H128559   6.387   4.840   6.336  0.1703 -1.4904  2.2586
 9534TIP3    H228560   6.440   4.967   6.397 -0.4035  0.3966 -0.9449
 9535TIP3   OH228561   2.886   5.334   3.428  0.5580  0.0066  0.5766
 9535TIP3    H128562   2.859   5.411   3.478 -0.3128 -0.1208  0.3254
 9535TIP3    H228563   2.827   5.264   3.458 -0.9990  0.2525 -1.6086
 9536TIP3   OH228564   4.691   5.857   6.718  0.5273 -0.4637 -0.1338
 9536TIP3    H128565   4.595   5.862   6.725  0.6185  0.4971  0.5226
 9536TIP3    H228566   4.706   5.782   6.660 -0.5966 -1.1079  0.3701
 9537TIP3   OH228567   6.909   7.633   4.443  0.0995  0.2466 -0.0592
 9537TIP3    H128568   6.953   7.646   4.527  0.2667  0.4541 -0.1791
 9537TIP3    H228569   6.978   7.643   4.377  0.2077 -1.0674 -0.1673
 9538TIP3   OH228570   5.914   5.065   0.696 -0.6094 -0.4610  0.0438
 9538TIP3    H128571   5.860   5.132   0.655  0.5156  1.1243  1.0403
 9538TIP3    H228572   5.947   5.013   0.622  1.4277  2.3510 -1.2114
 9539TIP3   OH228573   7.062   6.494   4.015 -0.3827 -0.6975  0.2531
 9539TIP3    H128574   7.116   6.548   4.072 -0.3724 -2.0623  1.5931
 9539TIP3    H228575   7.099   6.507   3.928  0.3005  0.5721  0.7029
 9540TIP3   OH228576   4.264   1.322   1.183  0.1872  0.0170  0.6320
 9540TIP3    H128577   4.205   1.312   1.258 -1.6954 -2.1419 -0.9938
 9540TIP3    H228578   4.350   1.338   1.222 -0.8530 -0.1762  3.2160
 9541TIP3   OH228579   7.998   4.847   1.944 -0.0934 -0.1868 -0.1721
 9541TIP3    H128580   7.974   4.825   1.854 -0.5442 -2.7637  0.4728
 9541TIP3    H228581   8.035   4.765   1.979  2.4758  1.4361  1.2504
 9542TIP3   OH228582   0.171   0.166   6.479 -0.1752 -0.3691 -0.0998
 9542TIP3    H128583   0.102   0.223   6.513  0.5460  0.3904  0.1057
 9542TIP3    H228584   0.242   0.174   6.542  0.2259 -0.8929 -0.4817
 9543TIP3   OH228585   1.492   5.369   6.155 -0.4354  0.6089  0.1990
 9543TIP3    H128586   1.572   5.406   6.118 -1.6445  1.5099 -1.6671
 9543TIP3    H228587   1.422   5.401   6.098 -1.9457 -1.6370  0.6617
 9544TIP3   OH228588   7.678   0.432   0.601  0.0332 -0.1187  1.1293
 9544TIP3    H128589   7.602   0.479   0.635  0.9639  0.2151  2.8347
 9544TIP3    H228590   7.726   0.498   0.550 -0.2158 -0.0284  1.0101
 9545TIP3   OH228591   1.307   3.815   4.195  0.1341  0.0267  0.5059
 9545TIP3    H128592   1.364   3.891   4.210  0.0349  0.1536  0.2499
 9545TIP3    H228593   1.333   3.752   4.262  0.9851 -0.1494  0.0243
 9546TIP3   OH228594   3.139   4.584   0.637 -0.3540  0.0192 -0.1229
 9546TIP3    H128595   3.185   4.520   0.582  1.4035  0.0562  1.2000
 9546TIP3    H228596   3.061   4.607   0.587  0.6616 -0.6520 -2.1401
 9547TIP3   OH228597   0.962   3.368   6.573  0.2896  0.9461 -0.1833
 9547TIP3    H128598   0.935   3.377   6.482  0.5347  0.6880 -0.2828
 9547TIP3    H228599   0.956   3.457   6.609 -1.7934  0.7434  0.1067
 9548TIP3   OH228600   7.023   5.698   0.121 -0.3425  0.1006  0.7455
 9548TIP3    H128601   7.015   5.606   0.145 -1.6131 -0.2573 -0.8608
 9548TIP3    H228602   7.115   5.706   0.094 -0.3896 -0.8922  0.2121
 9549TIP3   OH228603   0.141   5.799   3.439  0.1540 -0.0222 -0.2569
 9549TIP3    H128604   0.104   5.852   3.510  2.1954 -0.8101  1.5199
 9549TIP3    H228605   0.236   5.807   3.450  0.5546 -2.7271 -0.9078
 9550TIP3   OH228606   7.660   5.343   6.021  0.0215 -0.6486  0.2051
 9550TIP3    H128607   7.628   5.415   5.967  0.2795 -1.4311 -1.0288
 9550TIP3    H228608   7.736   5.309   5.974 -0.1158 -1.7500  0.7421
 9551TIP3   OH228609   2.024   6.672   1.413 -0.0361 -0.3609 -0.2686
 9551TIP3    H128610   2.042   6.613   1.340  1.5156  0.5732 -0.6864
 9551TIP3    H228611   1.934   6.652   1.438 -1.1023  0.1437 -3.2555
 9552TIP3   OH228612   6.543   3.315   5.467  0.5981  0.2182 -0.2307
 9552TIP3    H128613   6.572   3.367   5.392 -1.8787 -1.9986 -2.9376
 9552TIP3    H228614   6.584   3.230   5.455  0.5587 -0.0438  1.2730
 9553TIP3   OH228615   0.775   5.336   6.714  0.0717  0.0918 -0.2844
 9553TIP3    H128616   0.808   5.250   6.687 -1.5939 -0.6967  0.0548
 9553TIP3    H228617   0.807   5.347   6.804  0.9192  0.1840 -0.5904
 9554TIP3   OH228618   1.413   5.417   4.391 -0.4426  0.0711 -0.5392
 9554TIP3    H128619   1.500   5.410   4.351  0.3113 -0.7315  1.1240
 9554TIP3    H228620   1.413   5.504   4.431  0.4737 -0.6930  1.2557
 9555TIP3   OH228621   2.500   4.004   2.612  0.0112 -0.4658  0.3963
 9555TIP3    H128622   2.500   4.050   2.695 -1.1154 -0.1188  0.2144
 9555TIP3    H228623   2.585   3.961   2.608  0.6598  0.7237  1.0487
 9556TIP3   OH228624   5.516   1.643   3.968 -0.1004  0.2020 -0.3137
 9556TIP3    H128625   5.483   1.732   3.953 -0.9413 -0.2972 -1.6551
 9556TIP3    H228626   5.608   1.647   3.942 -0.2467  0.5909 -0.7983
 9557TIP3   OH228627   1.686   5.215   5.103 -0.0517 -0.1858 -0.2149
 9557TIP3    H128628   1.598   5.254   5.102 -0.3197 -0.7426  0.4785
 9557TIP3    H228629   1.745   5.290   5.099 -0.5622  0.2424  0.0819
 9558TIP3   OH228630   1.108   4.108   0.561  0.1884 -0.6776 -0.5492
 9558TIP3    H128631   1.189   4.116   0.511  0.2288  1.0433 -0.2485
 9558TIP3    H228632   1.039   4.128   0.498 -0.1071 -2.6681 -0.9490
 9559TIP3   OH228633   2.994   5.048   0.668 -0.1820  0.8924  0.4499
 9559TIP3    H128634   3.007   5.125   0.613  0.3120  1.5452  1.4365
 9559TIP3    H228635   2.979   5.084   0.755  1.5997 -0.1139  1.2397
 9560TIP3   OH228636   0.969   0.431   2.038  0.2552  0.0674 -0.2329
 9560TIP3    H128637   0.987   0.486   1.962  0.4575  0.0120 -0.2253
 9560TIP3    H228638   1.006   0.346   2.015  0.8018  0.1941  0.1429
 9561TIP3   OH228639   7.629   4.473   1.905  0.4227  0.5578 -0.1583
 9561TIP3    H128640   7.602   4.525   1.980 -0.2902 -1.5247  1.0984
 9561TIP3    H228641   7.722   4.493   1.894  0.7378  0.3175  1.8114
 9562TIP3   OH228642   4.857   6.075   0.197  0.1620  0.5972 -0.0623
 9562TIP3    H128643   4.874   6.033   0.113 -0.4091  0.0946  0.0694
 9562TIP3    H228644   4.810   6.009   0.248  1.7010  0.3922  1.1562
 9563TIP3   OH228645   3.808   6.216   1.840 -0.6222  0.0732 -0.2595
 9563TIP3    H128646   3.885   6.190   1.890 -2.0720  1.0709  2.8052
 9563TIP3    H228647   3.840   6.280   1.777  1.1415  0.0356  0.5441
 9564TIP3   OH228648   2.583   7.641   2.212  0.0873 -0.2151 -0.0625
 9564TIP3    H128649   2.513   7.644   2.147  1.1622 -2.0845 -1.4241
 9564TIP3    H228650   2.664   7.642   2.160  0.9875 -1.5684  1.2038
 9565TIP3   OH228651   2.297   5.588   3.338 -0.3695  0.3161  0.0415
 9565TIP3    H128652   2.349   5.623   3.266 -1.8789 -0.1854 -1.3362
 9565TIP3    H228653   2.292   5.661   3.401  1.1741  0.6750 -0.1971
 9566TIP3   OH228654   4.386   4.990   1.991 -0.5056  0.1553  0.6880
 9566TIP3    H128655   4.303   4.943   2.006  0.2966 -1.7821 -0.5943
 9566TIP3    H228656   4.370   5.044   1.914 -0.6056 -0.1488  0.4944
 9567TIP3   OH228657   1.565   0.653   2.904 -0.1952 -0.5842 -0.2240
 9567TIP3    H128658   1.577   0.558   2.915 -3.3986 -1.3340 -2.0800
 9567TIP3    H228659   1.496   0.676   2.967  0.6649  0.6222  0.3281
 9568TIP3   OH228660   0.972   2.282   3.490 -0.2010  0.6091 -0.1096
 9568TIP3    H128661   0.886   2.325   3.480 -0.7167 -0.3774 -0.0423
 9568TIP3    H228662   0.989   2.284   3.584  0.0569  1.1834 -0.1643
 9569TIP3   OH228663   0.740   1.769   6.168 -0.0723 -0.2600 -0.1274
 9569TIP3    H128664   0.674   1.837   6.178 -0.1669 -0.3898  0.1675
 9569TIP3    H228665   0.724   1.710   6.242 -0.2344 -0.8022 -0.5891
 9570TIP3   OH228666   5.697   5.132   1.558 -0.0091  0.0817 -0.1830
 9570TIP3    H128667   5.738   5.072   1.621 -0.4262 -2.0719 -1.8570
 9570TIP3    H228668   5.718   5.219   1.592  3.9177 -0.8698  0.3741
 9571TIP3   OH228669   3.832   3.823   5.217  0.7908 -0.1533  0.7320
 9571TIP3    H128670   3.864   3.770   5.291  1.0436 -0.8650  0.1303
 9571TIP3    H228671   3.887   3.796   5.143 -2.6892 -3.2995 -1.0152
 9572TIP3   OH228672   1.678   4.377   2.745 -0.0143  0.0446  0.5671
 9572TIP3    H128673   1.608   4.361   2.809 -1.1624  0.6405 -0.5010
 9572TIP3    H228674   1.663   4.313   2.676 -0.1026  0.7896 -0.1262
 9573TIP3   OH228675   0.138   1.482   0.580 -0.1719  0.1222 -0.3641
 9573TIP3    H128676   0.135   1.424   0.504  1.8840  1.7639 -1.8173
 9573TIP3    H228677   0.203   1.549   0.557 -1.4040  2.2220  1.7659
 9574TIP3   OH228678   2.052   6.733   6.424  0.0176  0.0053  0.2158
 9574TIP3    H128679   2.117   6.746   6.493 -1.4174 -0.1634  1.6626
 9574TIP3    H228680   2.021   6.821   6.403  1.0200  0.1309 -0.8236
 9575TIP3   OH228681   3.836   2.694   1.966 -0.5224 -0.2153 -0.2888
 9575TIP3    H128682   3.873   2.745   2.038 -2.0262 -0.0297  0.3736
 9575TIP3    H228683   3.745   2.721   1.961 -0.5684 -0.5616 -1.9883
 9576TIP3   OH228684   7.955   3.201   6.184 -0.0842  0.0763 -0.3918
 9576TIP3    H128685   7.973   3.108   6.196 -0.3909 -0.1037 -1.3127
 9576TIP3    H228686   7.993   3.242   6.262  1.2186 -0.6769 -0.5912
 9577TIP3   OH228687   7.738   2.699   1.259 -0.4100 -0.4487  0.5160
 9577TIP3    H128688   7.721   2.638   1.187 -0.3136 -0.4169  0.4658
 9577TIP3    H228689   7.696   2.660   1.335 -0.7660 -0.3386  0.3778
 9578TIP3   OH228690   2.526   5.431   3.828  0.0659 -0.2561  0.0917
 9578TIP3    H128691   2.578   5.352   3.844  0.5349 -0.2207 -1.1843
 9578TIP3    H228692   2.449   5.420   3.883 -0.1691 -1.8916 -0.4999
 9579TIP3   OH228693   0.239   7.290   6.402  0.4878 -0.1008 -0.0655
 9579TIP3    H128694   0.204   7.294   6.491 -0.3395  0.0147 -0.3877
 9579TIP3    H228695   0.202   7.367   6.358  2.2869  0.8413 -0.0345
 9580TIP3   OH228696   4.932   4.784   2.314 -1.1163  0.2381  0.2090
 9580TIP3    H128697   4.880   4.861   2.290  0.1242  1.4130  1.1315
 9580TIP3    H228698   4.872   4.728   2.362 -2.4428 -0.1042 -1.7349
 9581TIP3   OH228699   2.929   4.584   3.691 -0.1439 -0.6361  0.1623
 9581TIP3    H128700   2.856   4.522   3.695  1.0179 -2.0553  0.6404
 9581TIP3    H228701   2.999   4.535   3.648  0.3794  0.8704 -0.7768
 9582TIP3   OH228702   4.014   5.079   2.184  0.6184  0.3915  0.0518
 9582TIP3    H128703   4.007   5.161   2.233  0.2364  0.9249 -0.8609
 9582TIP3    H228704   3.939   5.080   2.125  1.2370 -0.0655 -0.7729
 9583TIP3   OH228705   3.672   2.651   2.421  0.6100 -0.1746  0.8533
 9583TIP3    H128706   3.620   2.666   2.342 -0.0857  0.3575  1.4040
 9583TIP3    H228707   3.692   2.558   2.420  0.4899 -0.1948  0.1201
 9584TIP3   OH228708   6.011   1.688   6.116 -0.0269 -0.3468  0.5695
 9584TIP3    H128709   5.942   1.627   6.143  2.2915 -3.0187  0.9751
 9584TIP3    H228710   6.064   1.638   6.055  1.8855  1.3775  0.7135
 9585TIP3   OH228711   2.906   5.792   1.675 -0.0054  0.0253  0.5200
 9585TIP3    H128712   2.921   5.733   1.749  1.2349  0.3826  0.5677
 9585TIP3    H228713   2.896   5.879   1.715 -2.9255 -0.2156  0.5552
 9586TIP3   OH228714   5.142   7.604   1.514  0.2274 -0.0319  0.0671
 9586TIP3    H128715   5.210   7.537   1.511  0.5184  0.1213  2.1192
 9586TIP3    H228716   5.181   7.677   1.561 -0.7517  0.8176 -0.3857
 9587TIP3   OH228717   1.422   6.487   0.665 -0.2202  0.4975  0.1699
 9587TIP3    H128718   1.514   6.505   0.683 -0.4915  0.4728  1.6673
 9587TIP3    H228719   1.424   6.435   0.584  1.0923  0.2726  0.3167
 9588TIP3   OH228720   6.276   5.578   1.144  0.0326 -0.6622 -0.0939
 9588TIP3    H128721   6.314   5.492   1.161  0.2177 -0.7428 -0.8639
 9588TIP3    H228722   6.245   5.573   1.053 -2.3555 -0.8059  0.6635
 9589TIP3   OH228723   1.024   1.939   2.018 -0.1175  0.6034  0.0023
 9589TIP3    H128724   1.095   1.905   2.073 -0.9370 -1.0403  0.0987
 9589TIP3    H228725   1.018   2.031   2.042  1.4328  0.5878  0.5875
 9590TIP3   OH228726   4.194   5.312   3.923 -0.0734  0.2306  0.3412
 9590TIP3    H128727   4.215   5.404   3.937  0.3170  0.4898 -1.7102
 9590TIP3    H228728   4.278   5.272   3.899  0.1227 -1.0705  2.8834
 9591TIP3   OH228729   3.236   5.477   1.154  0.5214  0.4057 -0.3536
 9591TIP3    H128730   3.249   5.524   1.072  0.1758  0.7395 -0.2210
 9591TIP3    H228731   3.239   5.384   1.130 -0.0547  0.5008 -0.8200
 9592TIP3   OH228732   4.275   6.357   4.686  0.0540 -0.4847 -0.1947
 9592TIP3    H128733   4.288   6.262   4.682  1.1049 -0.3720  0.0354
 9592TIP3    H228734   4.364   6.392   4.699 -0.1582  0.5994 -1.4598
 9593TIP3   OH228735   7.575   6.393   4.285 -0.0784  0.1832  0.6034
 9593TIP3    H128736   7.550   6.301   4.279  0.9803 -0.0823  0.0572
 9593TIP3    H228737   7.617   6.402   4.370 -0.2066  0.1635  0.6682
 9594TIP3   OH228738   2.521   2.182   4.361 -0.0082 -0.1793 -0.2100
 9594TIP3    H128739   2.603   2.182   4.311  0.1688 -1.5956  0.0377
 9594TIP3    H228740   2.495   2.090   4.363 -1.7489  0.2731 -0.5010
 9595TIP3   OH228741   2.669   5.406   2.902  0.0932 -0.1825 -0.2232
 9595TIP3    H128742   2.717   5.461   2.965  0.1767  0.0695 -0.5072
 9595TIP3    H228743   2.718   5.415   2.820  0.6499 -1.3988 -0.0579
 9596TIP3   OH228744   5.119   2.219   4.159 -0.0990 -0.1315 -0.5058
 9596TIP3    H128745   5.189   2.157   4.136  1.3026  1.6169 -1.1744
 9596TIP3    H228746   5.097   2.197   4.250  3.3258  0.9665  0.7762
 9597TIP3   OH228747   8.228   5.882   4.203  0.7071  0.4586  0.5951
 9597TIP3    H128748   8.278   5.807   4.236 -0.5869 -1.3423 -1.3487
 9597TIP3    H228749   8.155   5.891   4.265  2.2219  1.8431  2.3020
 9598TIP3   OH228750   0.030   2.673   0.087  0.7257 -0.1815  0.3429
 9598TIP3    H128751  -0.005   2.616   0.019 -0.6992  1.7245 -0.6168
 9598TIP3    H228752   0.118   2.694   0.058  0.6983 -0.6510 -0.0987
 9599TIP3   OH228753   3.690   4.900   4.885  1.4276 -0.1702  0.8222
 9599TIP3    H128754   3.767   4.880   4.939 -0.0923 -0.1177  3.1336
 9599TIP3    H228755   3.639   4.960   4.938  0.2924  0.6940 -1.1493
 9600TIP3   OH228756   1.127   5.978   3.772 -0.5611  0.3924  0.8611
 9600TIP3    H128757   1.198   5.929   3.731 -0.1442 -0.1634  2.2057
 9600TIP3    H228758   1.171   6.040   3.830 -1.1666 -0.3155  2.1040
 9601TIP3   OH228759   3.357   3.742   5.304  0.1338  0.5631 -0.0197
 9601TIP3    H128760   3.358   3.682   5.379 -2.2951 -0.0387 -0.3805
 9601TIP3    H228761   3.425   3.807   5.324 -0.4600  0.4594  2.7462
 9602TIP3   OH228762   0.963   1.315   1.515 -0.2612  0.2193 -0.5342
 9602TIP3    H128763   0.904   1.344   1.584  0.0843 -0.7095  0.1823
 9602TIP3    H228764   1.051   1.327   1.552  0.0178  1.3593 -1.4945
 9603TIP3   OH228765   0.549   4.927   3.654 -0.6542 -0.0512  0.4073
 9603TIP3    H128766   0.513   5.009   3.685 -0.8518  0.2116 -0.4975
 9603TIP3    H228767   0.596   4.891   3.730 -0.7844  0.7600  0.8802
 9604TIP3   OH228768   6.559   4.091   4.131 -0.3506  0.8492  0.2080
 9604TIP3    H128769   6.583   4.179   4.159  2.3256  0.2730 -0.0351
 9604TIP3    H228770   6.629   4.066   4.071 -0.9400 -1.5333  0.4462
 9605TIP3   OH228771   5.465   0.685   3.971  0.3150 -0.3566  0.0065
 9605TIP3    H128772   5.540   0.637   4.007  2.4202  3.4056  1.1368
 9605TIP3    H228773   5.503   0.758   3.924 -2.6562  1.4163  0.1271
 9606TIP3   OH228774   1.256   0.951   5.638  0.4253  0.5274  0.0823
 9606TIP3    H128775   1.168   0.986   5.630  0.4438  0.2945 -1.3266
 9606TIP3    H228776   1.283   0.975   5.727 -1.6192 -0.7449  1.1313
 9607TIP3   OH228777   7.736   3.293   4.094 -0.1058  0.0436  0.1169
 9607TIP3    H128778   7.749   3.218   4.153  0.5682 -0.0919 -0.1996
 9607TIP3    H228779   7.659   3.270   4.042 -0.4673 -0.0109  0.6649
 9608TIP3   OH228780   1.540   5.730   0.226  0.0700 -0.0789  0.6128
 9608TIP3    H128781   1.571   5.653   0.179  1.5194  0.3497  0.8283
 9608TIP3    H228782   1.516   5.698   0.313 -0.8140 -0.5421  0.2089
 9609TIP3   OH228783   6.153   5.949   3.240 -0.0084 -0.1363  0.8870
 9609TIP3    H128784   6.110   5.991   3.165 -2.3591  0.9997  2.7207
 9609TIP3    H228785   6.237   5.920   3.206  0.1335  2.6009 -1.5688
 9610TIP3   OH228786   0.206   1.342   2.238 -0.0691 -0.1603 -0.2221
 9610TIP3    H128787   0.217   1.248   2.254  2.4004  0.1030  0.0762
 9610TIP3    H228788   0.187   1.348   2.145  1.6403 -0.9057 -0.6622
 9611TIP3   OH228789   2.650   6.002   6.403 -0.0474  0.0063  0.6471
 9611TIP3    H128790   2.695   5.964   6.328 -4.0676  1.3336 -2.8786
 9611TIP3    H228791   2.570   5.950   6.410 -0.8086  1.3555  2.5591
 9612TIP3   OH228792   6.181   0.068   2.578 -0.2209  0.1599  0.4184
 9612TIP3    H128793   6.273   0.042   2.578  0.0633  0.9132 -1.9368
 9612TIP3    H228794   6.157   0.069   2.671  1.7420 -1.3356  1.0226
 9613TIP3   OH228795   0.059   4.640   0.027  0.6672  0.5961 -0.2546
 9613TIP3    H128796  -0.024   4.687   0.023  0.5531  0.3898 -0.3461
 9613TIP3    H228797   0.092   4.657   0.115  0.6684  0.9145 -0.3157
 9614TIP3   OH228798   6.542   5.388   6.310 -0.1249  0.0872 -0.3095
 9614TIP3    H128799   6.552   5.459   6.374  0.9469  1.0887 -1.5202
 9614TIP3    H228800   6.631   5.373   6.277 -0.2786 -2.0527  0.1260
 9615TIP3   OH228801   2.890   1.142   1.365  0.3246 -0.0746 -0.3017
 9615TIP3    H128802   2.973   1.131   1.319  0.7782  1.3879  0.1039
 9615TIP3    H228803   2.913   1.191   1.444 -1.1292  1.8196 -0.9812
 9616TIP3   OH228804   0.356   4.375   3.704  0.1189 -0.1296  0.3163
 9616TIP3    H128805   0.329   4.467   3.714 -0.5002 -0.0781 -1.5284
 9616TIP3    H228806   0.414   4.375   3.629 -1.4026 -1.5072 -0.9252
 9617TIP3   OH228807   7.762   6.104   3.860 -0.2764  0.1246  0.2881
 9617TIP3    H128808   7.823   6.034   3.880 -1.4658 -0.8922  0.5266
 9617TIP3    H228809   7.739   6.091   3.768  1.0744  1.5010 -0.2766
 9618TIP3   OH228810   0.530   5.633   0.184  0.2542 -0.0809  0.4074
 9618TIP3    H128811   0.618   5.659   0.159  0.3447 -1.6264 -1.0710
 9618TIP3    H228812   0.493   5.594   0.105 -0.8931 -1.6494  1.6340
 9619TIP3   OH228813   7.003   1.144   5.245 -0.0381  0.4068 -0.3219
 9619TIP3    H128814   6.966   1.150   5.156  0.6094 -1.9764 -0.8318
 9619TIP3    H228815   6.929   1.117   5.299  0.2006 -1.2381 -0.7606
 9620TIP3   OH228816   0.652   5.258   5.458  0.3270  0.3705  0.0134
 9620TIP3    H128817   0.709   5.335   5.459  1.5871 -0.5223 -0.3786
 9620TIP3    H228818   0.607   5.263   5.373  0.3203  0.7250  0.0358
 9621TIP3   OH228819   0.679   4.868   6.634  0.3549  0.1774 -0.4388
 9621TIP3    H128820   0.673   4.775   6.656  0.3837  0.5711  1.4108
 9621TIP3    H228821   0.678   4.871   6.538  0.4334 -1.7206 -0.5233
 9622TIP3   OH228822   1.568   2.632   1.830 -0.6037  0.6877  0.3878
 9622TIP3    H128823   1.564   2.724   1.856  2.0259  0.6893  1.1303
 9622TIP3    H228824   1.658   2.606   1.850 -0.7355 -1.5473 -1.5155
 9623TIP3   OH228825   2.270   6.750   5.173  0.1255  0.4279 -0.3959
 9623TIP3    H128826   2.339   6.689   5.150 -0.5228 -0.9857  1.1741
 9623TIP3    H228827   2.242   6.788   5.090  0.9407 -0.9857 -1.3500
 9624TIP3   OH228828   1.261   7.509   2.668 -0.3719 -0.1232 -0.3527
 9624TIP3    H128829   1.255   7.432   2.725  0.7773 -0.4755 -0.6784
 9624TIP3    H228830   1.341   7.553   2.696 -0.1009  0.0109 -1.3077
 9625TIP3   OH228831   2.782   2.972   2.213  0.2186  0.0996 -0.4437
 9625TIP3    H128832   2.733   2.968   2.131 -0.9121  1.8925  0.0951
 9625TIP3    H228833   2.835   2.892   2.213  0.9991  0.5069 -3.3625
 9626TIP3   OH228834   4.328   2.894   4.931 -0.0377 -0.1424  0.2965
 9626TIP3    H128835   4.289   2.923   4.849  1.0057 -1.0284 -0.5318
 9626TIP3    H228836   4.377   2.970   4.963 -0.0630  0.0547 -0.1324
 9627TIP3   OH228837   2.587   4.814   3.596  0.1634 -0.5095 -0.1783
 9627TIP3    H128838   2.573   4.821   3.502 -0.0555  1.6488 -0.0282
 9627TIP3    H228839   2.682   4.801   3.605  0.4208  0.7961 -0.6874
 9628TIP3   OH228840   6.217   4.923   0.832 -0.1292  0.0914  0.1291
 9628TIP3    H128841   6.188   4.886   0.915 -1.0625 -0.1565 -0.2993
 9628TIP3    H228842   6.206   5.018   0.844 -2.0212 -0.0312 -0.3265
 9629TIP3   OH228843   6.593   2.229   0.927 -0.2409 -0.3266  0.3511
 9629TIP3    H128844   6.665   2.175   0.960  0.3254  0.8140  1.0396
 9629TIP3    H228845   6.636   2.304   0.886 -0.9407 -1.2019 -2.2191
 9630TIP3   OH228846   6.792   0.936   4.575  0.7577 -0.1554 -0.1450
 9630TIP3    H128847   6.726   0.939   4.506  0.0639 -0.0026  0.5171
 9630TIP3    H228848   6.792   0.845   4.604 -0.2722  0.1578  0.9013
 9631TIP3   OH228849   3.959   0.426   1.220 -0.1197  0.2537  0.2832
 9631TIP3    H128850   3.987   0.500   1.167 -0.2698  1.4375  1.7637
 9631TIP3    H228851   3.928   0.466   1.302 -1.7082 -1.3353  0.5211
 9632TIP3   OH228852   2.183   1.111   2.806  0.8037 -0.1412  0.0652
 9632TIP3    H128853   2.163   1.060   2.884  0.6803  1.4963  1.1321
 9632TIP3    H228854   2.249   1.174   2.834 -0.6291  1.7452 -0.6272
 9633TIP3   OH228855   0.619   6.851   5.320  0.0524  0.3645 -0.6843
 9633TIP3    H128856   0.558   6.889   5.383 -0.2042 -2.2812  0.8534
 9633TIP3    H228857   0.574   6.857   5.236 -2.9435 -2.3162  0.5171
 9634TIP3   OH228858   1.730   1.369   2.979  0.1574  0.6086  0.3863
 9634TIP3    H128859   1.651   1.421   2.969 -0.4476 -0.4827 -0.7962
 9634TIP3    H228860   1.701   1.289   3.022  0.6309  0.2537  0.0615
 9635TIP3   OH228861   5.844   0.497   0.835  0.1499  0.6907  0.3115
 9635TIP3    H128862   5.892   0.494   0.752  0.3538  1.6313  0.3757
 9635TIP3    H228863   5.836   0.591   0.854  0.9778  0.4848  1.8598
 9636TIP3   OH228864   3.549   4.038   2.280 -0.1597  0.0662 -0.1789
 9636TIP3    H128865   3.628   3.989   2.302 -0.7527 -0.4209  0.9193
 9636TIP3    H228866   3.550   4.042   2.184  0.6013 -0.9145 -0.2332
 9637TIP3   OH228867   2.594   3.227   6.321 -0.5758 -0.1752  0.5813
 9637TIP3    H128868   2.555   3.140   6.317  0.4148 -0.6255  0.1746
 9637TIP3    H228869   2.688   3.211   6.309 -0.5568  1.1115 -1.6619
 9638TIP3   OH228870   2.034   6.627   2.420  0.1065  0.3891  0.3496
 9638TIP3    H128871   2.025   6.534   2.439 -0.5416  0.5773  1.0220
 9638TIP3    H228872   2.045   6.632   2.325  0.3266 -0.3776  0.3298
 9639TIP3   OH228873   7.632   3.719   1.478 -0.2253  0.0647  0.2434
 9639TIP3    H128874   7.552   3.769   1.461  0.0134  0.3202 -0.1443
 9639TIP3    H228875   7.700   3.786   1.488 -0.3477 -0.0361  2.3556
 9640TIP3   OH228876   4.277   2.742   6.559  0.0803  0.1486  0.4342
 9640TIP3    H128877   4.320   2.694   6.629 -0.1211  2.2460  2.0830
 9640TIP3    H228878   4.190   2.764   6.594 -0.1773  0.9095 -0.6157
 9641TIP3   OH228879   6.247   3.492   1.925  0.5239  0.3215  0.2041
 9641TIP3    H128880   6.285   3.555   1.987 -0.9724  1.9998 -0.5139
 9641TIP3    H228881   6.215   3.421   1.981  1.7196  0.4259  1.0821
 9642TIP3   OH228882   6.422   4.517   0.720 -0.1743 -0.2204  0.7077
 9642TIP3    H128883   6.440   4.610   0.734  1.4219 -0.1564 -1.2681
 9642TIP3    H228884   6.461   4.473   0.795 -0.2818  0.6560  1.2810
 9643TIP3   OH228885   1.667   5.748   5.035 -0.5622  0.7358 -0.1220
 9643TIP3    H128886   1.597   5.739   5.100 -1.3495  0.6800 -0.9552
 9643TIP3    H228887   1.623   5.736   4.951  0.5548  0.1266 -0.6420
 9644TIP3   OH228888   4.381   0.158   0.206 -0.3472  0.1132 -0.3900
 9644TIP3    H128889   4.327   0.202   0.272  0.1628  1.6006 -0.9275
 9644TIP3    H228890   4.390   0.069   0.239 -0.4350  0.6966  1.3610
 9645TIP3   OH228891   8.231   2.706   1.960 -0.2553  0.1681  0.1066
 9645TIP3    H128892   8.269   2.674   1.878 -0.0664  0.6352  0.0042
 9645TIP3    H228893   8.170   2.775   1.933  0.7750  1.2412  0.4223
 9646TIP3   OH228894   2.048   7.652   0.066 -0.0334 -0.4961 -0.3177
 9646TIP3    H128895   2.088   7.720   0.120  1.8721 -0.2701 -1.9005
 9646TIP3    H228896   1.954   7.670   0.071  0.3326  1.4693  0.3430
 9647TIP3   OH228897   3.611   1.283   5.206 -0.1914  0.2118 -0.0302
 9647TIP3    H128898   3.539   1.333   5.167 -0.8206 -1.0378 -0.5333
 9647TIP3    H228899   3.659   1.247   5.131  0.5715  0.4964  0.3133
 9648TIP3   OH228900   7.233   4.299   2.049  0.4010 -0.0716  0.2097
 9648TIP3    H128901   7.234   4.372   1.987  0.9810 -0.1237  0.1490
 9648TIP3    H228902   7.323   4.266   2.048  0.1589 -0.7390  0.2954
 9649TIP3   OH228903   3.625   2.804   5.452  0.4196 -0.2051 -0.5265
 9649TIP3    H128904   3.603   2.818   5.544  1.5890  0.1791 -0.2909
 9649TIP3    H228905   3.567   2.864   5.404 -0.3890 -0.6075 -0.0774
 9650TIP3   OH228906   5.628   0.321   1.544  0.3160 -0.2575  0.3652
 9650TIP3    H128907   5.671   0.340   1.628  0.6179  0.7572 -0.0045
 9650TIP3    H228908   5.537   0.346   1.557  0.5594  0.8183  0.1109
 9651TIP3   OH228909   6.259   0.619   2.347 -0.2356  0.4404 -0.0836
 9651TIP3    H128910   6.229   0.698   2.392 -1.7401  0.0232 -0.2925
 9651TIP3    H228911   6.245   0.549   2.411 -1.6487 -0.0422 -0.8628
 9652TIP3   OH228912   4.881   7.522   4.990 -0.4124 -0.2336  0.2230
 9652TIP3    H128913   4.847   7.493   4.905  0.8792 -1.3812  0.0593
 9652TIP3    H228914   4.902   7.614   4.977 -0.6307 -0.2891 -0.5812
 9653TIP3   OH228915   6.034   4.759   1.944  0.3138 -0.1317 -0.4143
 9653TIP3    H128916   6.056   4.853   1.942  0.9476 -0.2841 -0.8835
 9653TIP3    H228917   6.096   4.723   2.008  0.3340 -0.2969 -0.5288
 9654TIP3   OH228918   3.612   3.184   5.134  0.3219 -0.2708  0.0745
 9654TIP3    H128919   3.563   3.224   5.206 -1.3250 -1.7554 -0.1222
 9654TIP3    H228920   3.627   3.255   5.072  0.0927  0.6360  1.0337
 9655TIP3   OH228921   7.400   0.622   2.877 -0.2963  0.9362 -0.2323
 9655TIP3    H128922   7.481   0.660   2.843  0.0545 -1.1591 -1.9273
 9655TIP3    H228923   7.333   0.645   2.812 -0.1226 -0.9935 -1.1781
 9656TIP3   OH228924   6.499   4.742   3.426  0.7496  0.2800 -0.0783
 9656TIP3    H128925   6.424   4.797   3.404 -1.2649 -2.6441 -1.0956
 9656TIP3    H228926   6.475   4.701   3.509  2.5212  1.3323  1.0193
 9657TIP3   OH228927   5.412   5.399   3.290 -0.7386 -0.5139 -0.0036
 9657TIP3    H128928   5.366   5.473   3.331 -0.6282 -0.5891  0.2649
 9657TIP3    H228929   5.484   5.440   3.242  1.0739 -0.5544  2.4373
 9658TIP3   OH228930   1.351   2.401   3.453  0.1987  0.7166  0.3583
 9658TIP3    H128931   1.364   2.306   3.455  0.8016  0.8082  1.0957
 9658TIP3    H228932   1.432   2.438   3.488 -0.1438  1.4934  0.3602
 9659TIP3   OH228933   0.484   7.446   5.613  0.1497 -0.7143  0.1840
 9659TIP3    H128934   0.462   7.353   5.620  0.4464 -0.7928  0.0896
 9659TIP3    H228935   0.561   7.457   5.669 -0.0884 -0.4555  0.4620
 9660TIP3   OH228936   7.161   3.730   2.390 -0.1309 -0.1627 -0.0824
 9660TIP3    H128937   7.251   3.711   2.414  0.4190  1.1271 -0.9810
 9660TIP3    H228938   7.168   3.790   2.315 -1.7230 -0.0161 -0.1584
 9661TIP3   OH228939   1.969   0.878   5.801  0.0162  0.0277 -0.2009
 9661TIP3    H128940   1.947   0.929   5.723 -1.0917 -0.0391  0.0403
 9661TIP3    H228941   1.886   0.838   5.828  1.1241 -3.3863 -1.3687
 9662TIP3   OH228942   2.678   7.771   1.095 -0.4561  0.4855 -0.4914
 9662TIP3    H128943   2.698   7.793   1.004  2.1791 -0.9785 -0.3802
 9662TIP3    H228944   2.732   7.832   1.146 -0.2500 -0.1054  0.0081
 9663TIP3   OH228945   8.148   3.175   5.095 -0.0587 -0.4130 -0.2103
 9663TIP3    H128946   8.072   3.175   5.037 -0.1976  2.5317 -0.1424
 9663TIP3    H228947   8.114   3.203   5.180  0.8801 -0.4506  0.1948
 9664TIP3   OH228948   0.748   1.317   5.005  0.1267  0.0100 -0.6464
 9664TIP3    H128949   0.655   1.298   5.006  0.0153  0.3142  2.0200
 9664TIP3    H228950   0.790   1.232   5.017 -0.0932  0.2737  3.2336
 9665TIP3   OH228951   1.207   2.823   0.339 -0.4596  0.3338  0.4424
 9665TIP3    H128952   1.252   2.758   0.285 -2.3411  1.6909 -3.1392
 9665TIP3    H228953   1.277   2.873   0.380  1.1163 -1.2031 -0.2734
 9666TIP3   OH228954   8.025   0.290   0.406  0.0366  0.2458 -0.1732
 9666TIP3    H128955   7.946   0.237   0.392  0.4686 -0.6068  0.5432
 9666TIP3    H228956   8.097   0.227   0.405  0.6068  0.8736  0.2490
 9667TIP3   OH228957   2.885   2.094   4.573  0.1605  0.0571  0.1365
 9667TIP3    H128958   2.848   2.033   4.636  0.0484 -0.7369 -0.6747
 9667TIP3    H228959   2.888   2.045   4.491  1.4445  0.6540 -0.2041
 9668TIP3   OH228960   7.149   2.890   4.990  0.0053 -0.0693  0.8910
 9668TIP3    H128961   7.232   2.926   4.959  0.0362 -0.3755  0.6149
 9668TIP3    H228962   7.090   2.899   4.915  0.2203 -1.2948  0.5545
 9669TIP3   OH228963   1.251   6.188   3.209 -0.2741  0.3081 -0.1494
 9669TIP3    H128964   1.262   6.271   3.255  1.0183  0.3566 -0.5247
 9669TIP3    H228965   1.310   6.193   3.134  0.9147 -1.4878  0.5915
 9670TIP3   OH228966   2.219   1.626   6.024 -0.9503  0.3993 -0.2692
 9670TIP3    H128967   2.174   1.544   6.047 -1.3717  0.6111 -0.3384
 9670TIP3    H228968   2.256   1.657   6.107 -0.7291  0.1070 -0.2548
 9671TIP3   OH228969   8.212   1.347   5.887  0.4196  0.4201 -0.5879
 9671TIP3    H128970   8.182   1.379   5.802 -0.6471 -1.1752 -0.8744
 9671TIP3    H228971   8.192   1.253   5.885  3.3312 -0.3049  0.1856
 9672TIP3   OH228972   4.518   5.419   1.156  0.0689 -0.4109 -0.0519
 9672TIP3    H128973   4.531   5.401   1.063 -0.1052 -0.4855 -0.0629
 9672TIP3    H228974   4.458   5.351   1.185  1.0676 -1.1096  0.3996
 9673TIP3   OH228975   4.196   2.800   4.383 -0.1751  0.3598 -0.2168
 9673TIP3    H128976   4.103   2.784   4.397 -0.6720  3.6635  1.1369
 9673TIP3    H228977   4.233   2.806   4.471  1.0225  0.5805 -0.7114
 9674TIP3   OH228978   0.799   0.872   5.386  0.3335  0.7639 -0.1915
 9674TIP3    H128979   0.845   0.798   5.347  1.2952  1.6504 -0.8002
 9674TIP3    H228980   0.751   0.834   5.459  1.6359 -0.3114  0.1622
 9675TIP3   OH228981   6.114   2.385   4.242  0.0255 -0.1090  0.4597
 9675TIP3    H128982   6.165   2.451   4.289  0.6834 -0.3518  0.1075
 9675TIP3    H228983   6.145   2.301   4.277 -0.5167 -0.2472  0.6199
 9676TIP3   OH228984   7.632   5.848   2.678 -0.1334  0.4162  0.3695
 9676TIP3    H128985   7.713   5.798   2.688  0.2774  1.2346  1.2376
 9676TIP3    H228986   7.655   5.921   2.621 -0.1605  0.8476  0.9030
 9677TIP3   OH228987   8.176   6.386   3.535 -0.7398 -0.3807  0.3990
 9677TIP3    H128988   8.260   6.344   3.514  0.0023  2.1319 -2.3068
 9677TIP3    H228989   8.182   6.405   3.628  1.0771 -1.5257  0.5853
 9678TIP3   OH228990   7.648   4.158   3.385 -0.1897 -0.0276  0.2151
 9678TIP3    H128991   7.687   4.233   3.341  0.2429 -0.2995  0.1311
 9678TIP3    H228992   7.677   4.082   3.334 -0.6050 -0.2521  0.3116
 9679TIP3   OH228993   6.343   5.216   4.768 -0.3193 -0.0966 -0.0604
 9679TIP3    H128994   6.356   5.125   4.743  0.9189  0.1939 -0.5387
 9679TIP3    H228995   6.418   5.238   4.823 -0.8276  0.5108  0.4122
 9680TIP3   OH228996   5.559   3.229   1.698 -0.1681 -0.0048  0.1605
 9680TIP3    H128997   5.517   3.314   1.711 -1.9008 -0.8750  0.4422
 9680TIP3    H228998   5.531   3.201   1.611 -0.9872 -1.0390  0.7490
 9681TIP3   OH228999   0.614   7.298   0.294  0.1898 -0.0893  0.1471
 9681TIP3    H129000   0.675   7.237   0.334  0.1336 -0.1628  0.1216
 9681TIP3    H229001   0.653   7.384   0.307 -0.2975 -0.0137  1.2352
 9682TIP3   OH229002   7.451   0.886   1.903 -0.3705  0.0539  0.4097
 9682TIP3    H129003   7.402   0.906   1.823  0.4623  0.4067 -0.0217
 9682TIP3    H229004   7.469   0.972   1.942 -0.2877 -0.0846  0.6771
 9683TIP3   OH229005   5.575   6.268   5.581  0.5134  0.1016 -0.6783
 9683TIP3    H129006   5.517   6.202   5.543 -0.8835  0.8306  0.1107
 9683TIP3    H229007   5.533   6.292   5.664  1.5052  1.2701 -0.4867
 9684TIP3   OH229008   4.121   3.972   3.282  0.1190  0.0949  0.1880
 9684TIP3    H129009   4.039   3.952   3.327  0.9209 -1.1817  1.1597
 9684TIP3    H229010   4.106   3.944   3.192 -0.3149 -0.7376  0.5041
 9685TIP3   OH229011   0.792   3.649   4.635 -0.3180  0.2792  0.0598
 9685TIP3    H129012   0.808   3.570   4.687 -0.3127  0.3658  0.1917
 9685TIP3    H229013   0.878   3.688   4.622  0.2804 -1.7623 -3.3354
 9686TIP3   OH229014   1.725   3.976   6.243  0.3631  0.0625 -0.0033
 9686TIP3    H129015   1.702   3.961   6.335 -2.7654 -0.7300 -0.7973
 9686TIP3    H229016   1.679   4.056   6.219 -0.7005 -0.9003 -1.3781
 9687TIP3   OH229017   3.761   2.209   2.571  0.0583  0.0835  0.0972
 9687TIP3    H129018   3.703   2.277   2.606  1.0218  0.1797  1.6068
 9687TIP3    H229019   3.727   2.127   2.607  1.6745  0.2811  2.3124
 9688TIP3   OH229020   3.335   1.103   0.575 -0.4150  1.2484 -0.6072
 9688TIP3    H129021   3.429   1.111   0.591 -0.5814  0.6711  0.7412
 9688TIP3    H229022   3.329   1.052   0.494  0.4333 -0.1613  0.1804
 9689TIP3   OH229023   4.484   7.010   0.992  0.1239  0.2502 -0.2964
 9689TIP3    H129024   4.537   7.074   1.040 -2.1013  1.7995  0.3073
 9689TIP3    H229025   4.513   7.017   0.901  0.8821  1.1211 -0.0010
 9690TIP3   OH229026   1.320   2.714   0.717  0.3944 -0.0066  0.4571
 9690TIP3    H129027   1.369   2.662   0.781 -0.1005 -1.4652 -0.2996
 9690TIP3    H229028   1.235   2.729   0.759 -0.6425 -2.5956 -0.5077
 9691TIP3   OH229029   5.908   5.328   1.040  0.3403 -0.5230  0.2699
 9691TIP3    H129030   5.930   5.380   1.118  0.0695  1.7866 -1.0916
 9691TIP3    H229031   5.814   5.310   1.049 -0.0834  1.2245 -0.2839
 9692TIP3   OH229032   0.175   7.784   3.742 -0.0879  0.1065 -1.0017
 9692TIP3    H129033   0.139   7.862   3.786  0.4368 -0.4514  0.4893
 9692TIP3    H229034   0.152   7.712   3.800  1.6666 -0.5251 -1.0391
 9693TIP3   OH229035   6.622   1.874   1.713 -0.5123 -0.1525  0.0581
 9693TIP3    H129036   6.709   1.835   1.706 -0.8531 -0.8292 -0.6058
 9693TIP3    H229037   6.563   1.806   1.681 -1.5250 -0.5139  2.5165
 9694TIP3   OH229038   7.969   7.032   6.446 -0.3500  0.4690 -0.4313
 9694TIP3    H129039   8.057   7.068   6.453 -0.5953  1.1653 -0.7996
 9694TIP3    H229040   7.921   7.072   6.519 -0.7351  1.2631 -1.0914
 9695TIP3   OH229041   3.127   3.090   2.746  0.1085  0.2692  0.1523
 9695TIP3    H129042   3.087   3.040   2.817  1.8869  0.1366  1.1071
 9695TIP3    H229043   3.078   3.063   2.668 -2.2828  0.8659  1.3519
 9696TIP3   OH229044   1.189   4.292   6.658  0.5428  0.4375  0.3287
 9696TIP3    H129045   1.246   4.277   6.734  0.8376 -0.3120 -0.0237
 9696TIP3    H229046   1.242   4.344   6.598 -0.1747  2.2181  1.1929
 9697TIP3   OH229047   8.284   0.853   2.992 -0.0068 -0.3989  0.1642
 9697TIP3    H129048   8.198   0.856   2.951 -0.8679  1.7448  1.8959
 9697TIP3    H229049   8.341   0.902   2.933 -0.1655 -0.9922 -0.5031
 9698TIP3   OH229050   5.016   1.299   1.357  0.0939  0.6472  0.0229
 9698TIP3    H129051   5.025   1.208   1.330  2.0749  0.1694  2.0065
 9698TIP3    H229052   4.967   1.340   1.285  1.6380 -1.3199 -2.3467
 9699TIP3   OH229053   2.039   2.180   5.136  1.1679 -0.1831  0.1911
 9699TIP3    H129054   2.077   2.113   5.194  2.4034 -0.2815 -0.6912
 9699TIP3    H229055   2.109   2.200   5.074  0.1063  0.4275 -0.8452
 9700TIP3   OH229056   3.246   4.773   6.580  0.5898  0.7437  0.2783
 9700TIP3    H129057   3.291   4.834   6.522 -2.8850  0.7470 -2.7427
 9700TIP3    H229058   3.164   4.817   6.602 -0.9530 -1.8200 -0.0267
 9701TIP3   OH229059   2.686   0.249   1.604 -0.3369  0.2956 -0.6350
 9701TIP3    H129060   2.704   0.223   1.514  3.4956 -0.9086  0.2952
 9701TIP3    H229061   2.762   0.300   1.630 -0.8470 -0.2189  2.1897
 9702TIP3   OH229062   7.858   3.906   1.495  0.4049 -0.1287  0.0204
 9702TIP3    H129063   7.840   3.999   1.506  2.0806  0.0892  1.3455
 9702TIP3    H229064   7.918   3.885   1.566  1.0436 -1.9365 -0.9967
 9703TIP3   OH229065   3.240   3.997   0.863  0.3636 -0.0089  0.4022
 9703TIP3    H129066   3.218   3.982   0.770 -1.4280 -1.4153  0.9841
 9703TIP3    H229067   3.334   3.980   0.868  0.2412 -1.3252 -0.9128
 9704TIP3   OH229068   0.468   1.452   1.932 -0.2243  0.5162  0.2576
 9704TIP3    H129069   0.379   1.448   1.898  0.1503 -0.8503 -0.6138
 9704TIP3    H229070   0.519   1.493   1.862  0.1807 -0.4912 -0.0548
 9705TIP3   OH229071   0.197   0.250   5.531  0.2430 -0.0190 -0.1487
 9705TIP3    H129072   0.150   0.326   5.566  0.1938 -0.2111  0.2045
 9705TIP3    H229073   0.130   0.200   5.485  0.1728 -0.1191  0.0651
 9706TIP3   OH229074   4.417   2.957   0.505  0.1638  0.2234 -0.1283
 9706TIP3    H129075   4.349   2.957   0.438  0.3603 -2.6894 -0.4526
 9706TIP3    H229076   4.478   2.887   0.478  0.3436 -0.9806  2.9417
 9707TIP3   OH229077   8.097   2.417   0.323  0.1552  0.1177  0.1079
 9707TIP3    H129078   8.184   2.416   0.285  1.1183 -0.7392  2.1696
 9707TIP3    H229079   8.043   2.367   0.262  0.7261  1.8243 -1.8985
 9708TIP3   OH229080   7.920   6.830   1.398 -0.0616  0.1745  0.6315
 9708TIP3    H129081   7.835   6.850   1.360  0.5235  1.3198 -0.1091
 9708TIP3    H229082   7.930   6.892   1.470  0.5583  0.7360  0.0825
 9709TIP3   OH229083   5.032   7.591   0.556 -0.0977 -0.9338 -0.2880
 9709TIP3    H129084   5.037   7.527   0.627 -0.8128  1.6184  2.3022
 9709TIP3    H229085   5.103   7.652   0.575 -0.0591 -0.3878 -2.0463
 9710TIP3   OH229086   3.660   6.099   1.638  0.2733 -0.2025  0.1004
 9710TIP3    H129087   3.584   6.156   1.651  0.3414 -0.0457 -0.1826
 9710TIP3    H229088   3.705   6.099   1.723 -0.5243 -1.0046  0.5426
 9711TIP3   OH229089   6.400   7.106   0.087 -0.7206 -0.4229 -0.3124
 9711TIP3    H129090   6.343   7.169   0.042  0.3423  0.1484 -0.9061
 9711TIP3    H229091   6.482   7.109   0.038 -0.1846 -1.2539  0.4994
 9712TIP3   OH229092   4.320   5.398   2.505  0.2639 -0.2850 -0.3980
 9712TIP3    H129093   4.305   5.307   2.482  0.2945  0.5351 -4.2676
 9712TIP3    H229094   4.407   5.418   2.471  0.5913  1.0415  1.0696
 9713TIP3   OH229095   7.081   1.959   1.004  0.5567  0.7840  0.1262
 9713TIP3    H129096   7.130   1.880   1.025 -1.4383 -0.2131  1.3774
 9713TIP3    H229097   7.113   2.025   1.064  1.9283  0.8236 -0.6216
 9714TIP3   OH229098   7.287   7.231   6.114  0.1801  0.5701  0.0941
 9714TIP3    H129099   7.309   7.138   6.103 -1.3283 -0.1629  2.6332
 9714TIP3    H229100   7.193   7.235   6.100 -0.1185  1.3081  2.0229
 9715TIP3   OH229101   2.712   1.568   1.609  0.1089 -0.5852 -0.2902
 9715TIP3    H129102   2.657   1.499   1.573  0.0161  0.0021 -1.3105
 9715TIP3    H229103   2.797   1.555   1.567  0.3037 -0.5222  0.0770
 9716TIP3   OH229104   2.926   1.833   2.932  0.2750 -0.4353  0.8317
 9716TIP3    H129105   2.973   1.904   2.889  0.5866 -0.1405  1.6359
 9716TIP3    H229106   2.834   1.858   2.926  0.3783  0.0097  1.0501
 9717TIP3   OH229107   5.471   7.573   3.635  0.4859 -0.3501  0.4443
 9717TIP3    H129108   5.506   7.582   3.547  0.1421 -0.3822  0.3008
 9717TIP3    H229109   5.417   7.494   3.631 -0.7510  0.4736  0.2659
 9718TIP3   OH229110   5.185   0.396   5.724  0.1764 -0.2271 -0.0948
 9718TIP3    H129111   5.219   0.453   5.656 -2.0087  0.0969 -1.0014
 9718TIP3    H229112   5.162   0.455   5.796 -1.2554 -0.0460 -0.6830
 9719TIP3   OH229113   4.898   0.811   1.889 -0.1789  0.1409  0.1186
 9719TIP3    H129114   4.911   0.905   1.871  0.3554 -0.1213 -0.9739
 9719TIP3    H229115   4.962   0.791   1.957 -0.3171  0.5801  0.3793
 9720TIP3   OH229116   3.686   4.707   1.681  0.1220  0.0589 -0.4730
 9720TIP3    H129117   3.610   4.730   1.735 -0.2269  0.8392 -1.2596
 9720TIP3    H229118   3.760   4.746   1.726  0.4197 -2.3994  1.4036
 9721TIP3   OH229119   7.579   4.390   1.479 -0.1959  0.7743  0.1772
 9721TIP3    H129120   7.585   4.440   1.560 -0.9490 -0.4289  1.0085
 9721TIP3    H229121   7.488   4.360   1.476  0.3033 -0.8057 -0.1097
 9722TIP3   OH229122   2.342   1.581   0.676 -0.7034 -0.1407 -0.0019
 9722TIP3    H129123   2.432   1.613   0.679 -0.6558 -0.2767  0.0524
 9722TIP3    H229124   2.308   1.596   0.764 -1.8593  3.0741 -0.8670
 9723TIP3   OH229125   7.217   7.814   4.413  0.1055  0.1814 -0.4705
 9723TIP3    H129126   7.136   7.865   4.412  0.0995  0.1682 -0.8561
 9723TIP3    H229127   7.196   7.734   4.366  0.8747  1.0401 -2.3793
 9724TIP3   OH229128   5.711   0.813   0.606 -0.1216  0.5757 -0.5235
 9724TIP3    H129129   5.656   0.837   0.680  0.9564  2.3621 -0.2282
 9724TIP3    H229130   5.760   0.893   0.586  0.2836 -0.1340 -2.5834
 9725TIP3   OH229131   7.817   6.415   4.989  0.4837  0.4068  0.0677
 9725TIP3    H129132   7.896   6.413   5.043  0.0145  0.0347  0.7503
 9725TIP3    H229133   7.798   6.323   4.972  0.4960  0.5158 -0.5418
 9726TIP3   OH229134   4.667   3.609   1.288  0.0140  0.3278 -0.3821
 9726TIP3    H129135   4.647   3.539   1.226 -0.4897  2.9647 -3.4436
 9726TIP3    H229136   4.760   3.628   1.273 -0.3847  1.7245 -1.2276
 9727TIP3   OH229137   1.670   3.839   5.114  0.0212 -0.3156 -0.0635
 9727TIP3    H129138   1.756   3.879   5.127  0.1934 -1.2369  2.1454
 9727TIP3    H229139   1.627   3.895   5.050  1.8636  0.7856 -0.4180
 9728TIP3   OH229140   3.661   7.282   2.276  0.0193 -0.8930 -0.0554
 9728TIP3    H129141   3.588   7.224   2.295 -0.3409 -0.2067  0.7235
 9728TIP3    H229142   3.739   7.226   2.282 -0.2860 -1.2250  1.0966
 9729TIP3   OH229143   1.595   1.379   4.814 -0.3079 -0.2520  0.0370
 9729TIP3    H129144   1.502   1.401   4.804  0.3464  2.5542 -0.6954
 9729TIP3    H229145   1.612   1.390   4.908 -0.3167  1.2163 -0.1115
 9730TIP3   OH229146   6.864   1.577   6.313  0.2314  0.1648  0.2432
 9730TIP3    H129147   6.909   1.497   6.338  0.3621  0.0475 -0.3481
 9730TIP3    H229148   6.815   1.553   6.234 -1.8740 -0.0554  1.5364
 9731TIP3   OH229149   4.564   4.347   2.021 -0.1530  0.0074  0.1651
 9731TIP3    H129150   4.482   4.348   1.973  0.0563  0.6618 -0.2022
 9731TIP3    H229151   4.580   4.439   2.042  0.8355 -0.0216 -0.3961
 9732TIP3   OH229152   1.167   3.219   4.083 -0.4100  0.4831  0.2696
 9732TIP3    H129153   1.179   3.147   4.145  0.5688 -0.5572 -1.0812
 9732TIP3    H229154   1.235   3.283   4.107  0.7659 -0.4611 -0.4523
 9733TIP3   OH229155   5.655   6.831   1.889  0.0584 -0.4688  0.1646
 9733TIP3    H129156   5.638   6.824   1.796 -0.7037 -0.0997  0.2704
 9733TIP3    H229157   5.644   6.742   1.923 -2.6455 -0.1492  0.3721
 9734TIP3   OH229158   7.242   3.670   4.103  0.0000 -0.1360  0.2032
 9734TIP3    H129159   7.227   3.692   4.195 -0.7079  1.3779 -0.2490
 9734TIP3    H229160   7.195   3.738   4.054 -0.3402 -1.3804 -1.2836
 9735TIP3   OH229161   6.917   2.601   3.860  0.1273  0.1700 -0.0123
 9735TIP3    H129162   6.899   2.568   3.948 -2.1106 -0.0501 -0.4874
 9735TIP3    H229163   6.899   2.695   3.865  0.3828  0.2263 -0.1379
 9736TIP3   OH229164   0.413   3.760   1.769 -0.6666 -0.3716  0.1360
 9736TIP3    H129165   0.429   3.828   1.834 -0.1657 -0.6874  0.3460
 9736TIP3    H229166   0.427   3.804   1.685  0.6816 -0.4551  0.2869
 9737TIP3   OH229167   7.534   2.948   5.764  0.2408 -0.1040 -0.2912
 9737TIP3    H129168   7.612   2.905   5.727  0.3759 -0.2840  0.1970
 9737TIP3    H229169   7.565   2.984   5.848 -0.2017 -0.1721 -0.0993
 9738TIP3   OH229170   0.475   4.096   2.772  0.1943  0.0119 -0.2192
 9738TIP3    H129171   0.399   4.145   2.741  0.7531  1.1150  0.1020
 9738TIP3    H229172   0.502   4.043   2.698  1.4775  2.5543 -1.7017
 9739TIP3   OH229173   1.890   6.080   5.662 -0.1062 -0.5160  0.2606
 9739TIP3    H129174   1.915   6.128   5.583  1.1995 -1.0862  0.3000
 9739TIP3    H229175   1.795   6.070   5.655  0.0553 -1.0885 -1.5489
 9740TIP3   OH229176   2.140   4.838   6.258 -0.1599  0.2070  0.0950
 9740TIP3    H129177   2.179   4.765   6.306  0.6016  0.0405 -0.7468
 9740TIP3    H229178   2.080   4.796   6.195 -0.2759  0.3479  0.1109
 9741TIP3   OH229179   2.354   5.243   0.183 -0.2675 -0.3128  0.5412
 9741TIP3    H129180   2.395   5.287   0.258 -0.0803 -0.4504  0.5220
 9741TIP3    H229181   2.416   5.173   0.160 -0.7963 -0.9050  0.8839
 9742TIP3   OH229182   6.943   5.778   5.607 -0.2776 -0.1735  0.2732
 9742TIP3    H129183   6.989   5.751   5.686 -0.1463  0.8878  0.5781
 9742TIP3    H229184   6.851   5.758   5.624 -0.1602 -0.6037  0.4015
 9743TIP3   OH229185   1.161   6.729   4.723 -0.5020  0.4677 -0.2590
 9743TIP3    H129186   1.094   6.796   4.733 -0.1319  0.8792 -0.4584
 9743TIP3    H229187   1.156   6.704   4.630 -1.0479 -0.2274 -0.0507
 9744TIP3   OH229188   5.071   5.392   2.711  0.0992  0.1539 -0.3475
 9744TIP3    H129189   5.128   5.469   2.706  1.3820 -0.7158  0.4024
 9744TIP3    H229190   5.081   5.360   2.800  0.3611 -1.4394 -0.9154
 9745TIP3   OH229191   3.903   0.847   4.294 -0.2598  0.5515 -0.0413
 9745TIP3    H129192   3.854   0.918   4.252  0.0706 -0.4280 -2.1565
 9745TIP3    H229193   3.836   0.789   4.329 -0.5334  1.6096  1.3240
 9746TIP3   OH229194   3.583   0.256   3.249 -0.1934  0.0165 -0.2883
 9746TIP3    H129195   3.500   0.235   3.206  1.1824 -0.0498 -3.0828
 9746TIP3    H229196   3.639   0.181   3.232  1.6743  1.6560 -2.0013
 9747TIP3   OH229197   2.575   0.665   0.507  0.3939  0.1847  0.0667
 9747TIP3    H129198   2.536   0.652   0.420 -1.2044  1.5354  0.5322
 9747TIP3    H229199   2.656   0.615   0.504  0.2063 -0.0993 -2.0814
 9748TIP3   OH229200   0.031   1.476   2.693 -0.0771  0.6409  0.4089
 9748TIP3    H129201   0.104   1.446   2.640 -0.0228 -0.4059  1.0482
 9748TIP3    H229202  -0.035   1.505   2.629 -0.0136 -0.5890 -0.2329
 9749TIP3   OH229203   5.095   0.911   2.201 -0.1097  0.1777  0.0282
 9749TIP3    H129204   5.006   0.933   2.174  0.3002  1.6130 -0.2028
 9749TIP3    H229205   5.107   0.821   2.171 -0.9848  0.4443 -1.2045
 9750TIP3   OH229206   3.182   2.424   5.094  0.0840 -0.2448 -0.2219
 9750TIP3    H129207   3.140   2.509   5.110 -0.0261 -0.2581 -0.4384
 9750TIP3    H229208   3.156   2.401   5.004  2.7121  1.0381 -1.4279
 9751TIP3   OH229209   6.959   6.594   5.310 -0.2023  0.2444  0.2082
 9751TIP3    H129210   6.938   6.540   5.234 -1.8483 -1.3385  1.6844
 9751TIP3    H229211   7.015   6.539   5.365 -1.6893  0.0527  1.6220
 9752TIP3   OH229212   2.497   1.478   0.936  0.1407  0.1437 -0.4027
 9752TIP3    H129213   2.536   1.468   0.849  2.6593 -0.9486  0.7482
 9752TIP3    H229214   2.468   1.389   0.959 -1.0309  0.5301 -0.3056
 9753TIP3   OH229215   8.004   1.854   6.223  0.6690  0.5249 -0.2262
 9753TIP3    H129216   8.001   1.947   6.245 -0.3964  0.1861  1.2548
 9753TIP3    H229217   8.013   1.852   6.128 -1.4462  2.1598 -0.5414
 9754TIP3   OH229218   2.746   6.818   1.699  0.5124 -0.3498  0.6031
 9754TIP3    H129219   2.737   6.814   1.604 -0.1682 -1.2672  0.6954
 9754TIP3    H229220   2.671   6.771   1.732  0.2322  0.7746  1.6329
 9755TIP3   OH229221   7.046   0.089   3.202  0.0135 -0.5573 -0.3695
 9755TIP3    H129222   7.035   0.003   3.242 -0.2112 -1.5352 -2.4303
 9755TIP3    H229223   7.087   0.072   3.117 -0.1955  1.3520 -0.9100
 9756TIP3   OH229224   3.881   7.001   6.632  0.4090 -0.1010  0.3681
 9756TIP3    H129225   3.790   7.014   6.606  0.1782  3.1322  2.2762
 9756TIP3    H229226   3.877   6.933   6.699 -0.5071 -0.3569  0.0634
 9757TIP3   OH229227   4.527   1.826   6.161  0.4525  0.6836  0.2330
 9757TIP3    H129228   4.441   1.816   6.201  1.0843 -1.0931  1.2343
 9757TIP3    H229229   4.537   1.749   6.105  1.9191  0.1272  1.2052
 9758TIP3   OH229230   2.112   2.704   5.694  0.4257  0.0798 -0.8105
 9758TIP3    H129231   2.153   2.636   5.747 -0.6805  0.4530  0.5789
 9758TIP3    H229232   2.035   2.662   5.656 -0.7158  0.7088  0.6960
 9759TIP3   OH229233   5.511   3.661   6.741 -0.2006 -0.4695 -0.0153
 9759TIP3    H129234   5.557   3.745   6.733  0.0309 -0.7144 -1.5310
 9759TIP3    H229235   5.558   3.615   6.810  0.1456  0.3484  0.3065
 9760TIP3   OH229236   3.190   1.591   5.689  0.0830 -1.0679  0.0713
 9760TIP3    H129237   3.234   1.671   5.717 -0.9160 -0.0479 -1.1255
 9760TIP3    H229238   3.230   1.522   5.741  1.4609  0.1114  0.6513
 9761TIP3   OH229239   1.994   0.034   3.432  0.3965  0.1409  0.0842
 9761TIP3    H129240   1.901   0.016   3.445  0.1106  2.4457  1.9296
 9761TIP3    H229241   2.017  -0.014   3.353 -2.1639 -1.1092  0.0052
 9762TIP3   OH229242   1.961   6.169   3.407  0.3532 -0.3466  0.1319
 9762TIP3    H129243   1.953   6.122   3.490 -1.3145 -2.5430 -1.1577
 9762TIP3    H229244   2.052   6.160   3.382  0.5803 -0.7888  1.0824
 9763TIP3   OH229245   0.569   3.772   2.972 -0.0698 -0.2272  0.5449
 9763TIP3    H129246   0.576   3.787   3.066  0.3322 -0.0726  0.4906
 9763TIP3    H229247   0.640   3.823   2.934  0.3716 -1.0588  0.2321
 9764TIP3   OH229248   1.160   4.684   1.169 -0.5658 -0.3520 -0.0940
 9764TIP3    H129249   1.201   4.699   1.084  0.3541 -0.2345  0.3516
 9764TIP3    H229250   1.082   4.740   1.169  0.1830  0.7238 -0.3327
 9765TIP3   OH229251   6.826   6.923   1.377  0.2594 -0.2495  0.3236
 9765TIP3    H129252   6.822   6.835   1.415 -2.0199  0.8475  2.9376
 9765TIP3    H229253   6.908   6.960   1.411  0.0237 -0.5398  1.2236
 9766TIP3   OH229254   4.451   5.884   3.284  0.2802  0.2971 -0.1086
 9766TIP3    H129255   4.360   5.852   3.283  0.4083 -0.0644 -0.9073
 9766TIP3    H229256   4.471   5.902   3.192  1.3262 -0.5137 -0.0570
 9767TIP3   OH229257   3.497   6.791   0.214 -0.5419  0.2735 -1.3094
 9767TIP3    H129258   3.449   6.709   0.218 -0.0761 -0.1036 -2.7971
 9767TIP3    H229259   3.458   6.838   0.140 -1.2925  1.7384 -0.0398
 9768TIP3   OH229260   4.215   0.088   6.653  0.2801  0.5915 -0.6317
 9768TIP3    H129261   4.209  -0.004   6.628  0.4214  0.4028  0.0010
 9768TIP3    H229262   4.286   0.091   6.717 -0.4017  0.9705  0.1210
 9769TIP3   OH229263   5.294   6.923   0.674 -0.3254 -0.1493 -0.4961
 9769TIP3    H129264   5.369   6.977   0.700 -0.7693  1.8452 -3.0196
 9769TIP3    H229265   5.222   6.986   0.663 -1.3574 -1.4979 -1.7697
 9770TIP3   OH229266   7.471   4.063   6.303 -0.0580  0.3053  0.1143
 9770TIP3    H129267   7.522   3.995   6.347  1.1087  0.1655 -1.3679
 9770TIP3    H229268   7.446   4.124   6.372  1.8323  0.1883  0.9460
 9771TIP3   OH229269   3.699   2.528   5.545  0.1302  0.2459 -0.0871
 9771TIP3    H129270   3.793   2.543   5.538  0.1830  0.9050  1.7469
 9771TIP3    H229271   3.659   2.603   5.502  0.3896 -0.5781 -1.8826
 9772TIP3   OH229272  -0.016   4.396   2.917 -0.8680 -0.1134  0.1008
 9772TIP3    H129273   0.058   4.456   2.928 -0.4270 -0.7861  0.8977
 9772TIP3    H229274   0.016   4.330   2.856 -0.1604 -1.3965  1.7972
 9773TIP3   OH229275   2.480   4.398   3.678  0.1143  0.4836  0.1293
 9773TIP3    H129276   2.390   4.384   3.650  0.2624  3.1267 -2.0468
 9773TIP3    H229277   2.523   4.441   3.604  2.4318  1.7347  2.0221
 9774TIP3   OH229278   0.936   1.133   6.580 -0.2061  0.0139 -0.3056
 9774TIP3    H129279   1.007   1.073   6.604  0.0488 -1.4242 -3.9656
 9774TIP3    H229280   0.978   1.219   6.575  0.2544 -0.0607  1.5749
 9775TIP3   OH229281   0.686   6.715   0.201 -0.4564 -0.1956  0.4271
 9775TIP3    H129282   0.683   6.633   0.251  1.3637 -0.6749 -0.1642
 9775TIP3    H229283   0.760   6.704   0.141 -0.7432  1.5312 -0.3094
 9776TIP3   OH229284   3.797   0.817   5.375 -0.1942  0.5355 -0.5374
 9776TIP3    H129285   3.842   0.810   5.291  0.3304 -0.1026 -0.2154
 9776TIP3    H229286   3.709   0.848   5.353  0.2661  1.3897 -1.2116
 9777TIP3   OH229287   6.999   7.034   6.543 -0.4680  0.4033  0.0609
 9777TIP3    H129288   6.911   7.000   6.561 -0.8078 -0.0634 -2.1586
 9777TIP3    H229289   6.996   7.125   6.573 -0.7556 -0.3738  2.6110
 9778TIP3   OH229290   3.635   4.616   2.798  0.0485  0.5496  0.3847
 9778TIP3    H129291   3.580   4.582   2.728  1.3439 -1.5216  0.3230
 9778TIP3    H229292   3.627   4.711   2.790 -0.2040  0.3733 -2.2612
 9779TIP3   OH229293   7.921   7.392   3.099  0.0168 -0.2317  0.1829
 9779TIP3    H129294   7.853   7.415   3.161 -1.7569 -0.9171 -1.4084
 9779TIP3    H229295   7.882   7.323   3.045  1.8582 -0.4300 -0.9856
 9780TIP3   OH229296   3.410   0.587   5.269  0.0598 -0.2755  0.9084
 9780TIP3    H129297   3.492   0.542   5.247 -0.5880 -0.1374 -2.1544
 9780TIP3    H229298   3.342   0.522   5.252 -0.5715 -0.2251  2.9403
 9781TIP3   OH229299   3.818   2.643   1.398  0.1185 -0.0015 -0.3756
 9781TIP3    H129300   3.842   2.703   1.327 -2.0969  1.2726 -0.1244
 9781TIP3    H229301   3.762   2.578   1.356 -1.5600  1.0014  0.1828
 9782TIP3   OH229302   0.986   7.045   3.033 -0.0085  0.5366  0.0802
 9782TIP3    H129303   0.952   6.971   3.082  0.6846 -0.5319 -0.9771
 9782TIP3    H229304   0.911   7.102   3.019 -0.7793 -0.4546  0.0867
 9783TIP3   OH229305   1.819   2.275   4.382 -0.1547  0.1009 -0.2604
 9783TIP3    H129306   1.875   2.322   4.321 -0.3720  0.2577 -0.3415
 9783TIP3    H229307   1.806   2.189   4.341 -0.1457  0.1384 -0.3420
 9784TIP3   OH229308   7.743   4.244   4.103 -0.6272 -0.3642 -0.3872
 9784TIP3    H129309   7.789   4.321   4.070  0.3375 -1.6119 -2.0741
 9784TIP3    H229310   7.660   4.243   4.055  0.2913 -1.5390 -2.0509
 9785TIP3   OH229311   7.476   4.495   1.243 -0.0782 -0.1611 -0.0198
 9785TIP3    H129312   7.539   4.464   1.308  0.3888 -0.5178 -0.6298
 9785TIP3    H229313   7.510   4.462   1.160 -0.9536 -0.1644 -0.3821
 9786TIP3   OH229314   1.565   0.038   3.318 -0.0990 -0.3444 -0.1711
 9786TIP3    H129315   1.532  -0.042   3.358  0.1928 -0.9451 -1.1168
 9786TIP3    H229316   1.487   0.083   3.285 -0.3046 -0.0210  0.7324
 9787TIP3   OH229317   4.689   0.429   3.700 -0.7818 -0.0079 -0.6659
 9787TIP3    H129318   4.650   0.507   3.659 -0.0443  0.0837 -1.2093
 9787TIP3    H229319   4.616   0.367   3.707 -1.7016  1.1597  0.9552
 9788TIP3   OH229320   2.754   4.328   6.656 -0.1780 -0.8345  0.3298
 9788TIP3    H129321   2.736   4.272   6.732 -0.1288 -2.2565 -0.6745
 9788TIP3    H229322   2.731   4.275   6.581 -0.2350  0.5595 -0.6812
 9789TIP3   OH229323   2.872   7.480   4.792 -0.1623 -0.0187 -0.4923
 9789TIP3    H129324   2.937   7.457   4.859 -1.1730 -1.5174  0.0287
 9789TIP3    H229325   2.925   7.505   4.716  1.0673 -1.3555 -0.1423
 9790TIP3   OH229326   3.720   2.530   0.816 -0.2926 -0.3760 -0.0177
 9790TIP3    H129327   3.629   2.501   0.810  0.0737 -1.6699  0.2902
 9790TIP3    H229328   3.715   2.615   0.860 -1.4403  0.2090 -1.2162
 9791TIP3   OH229329   0.686   2.205   1.250 -0.1413  0.4965 -0.5150
 9791TIP3    H129330   0.730   2.250   1.322 -0.5670  0.6018 -0.3161
 9791TIP3    H229331   0.638   2.134   1.292 -0.5522  0.6810 -0.6710
 9792TIP3   OH229332   1.640   3.667   2.623 -0.2947  0.2015 -0.0958
 9792TIP3    H129333   1.587   3.606   2.674 -0.5437  1.1263  0.7776
 9792TIP3    H229334   1.682   3.723   2.688  1.0306  0.0833 -0.8206
 9793TIP3   OH229335   6.961   4.326   2.013 -0.2425 -0.4076  0.5231
 9793TIP3    H129336   6.992   4.416   2.008 -0.8508 -0.1877  0.6938
 9793TIP3    H229337   7.041   4.274   2.022  0.0349  0.2650  2.4172
 9794TIP3   OH229338   0.866   3.488   5.205 -0.2169  0.2160  0.3666
 9794TIP3    H129339   0.878   3.395   5.221  1.6857  0.3975  0.2072
 9794TIP3    H229340   0.795   3.514   5.264 -0.4093 -1.2198  0.7863
 9795TIP3   OH229341   6.757   3.234   4.896  0.3273 -0.1954 -0.2704
 9795TIP3    H129342   6.762   3.149   4.852  1.8784  0.2011 -0.9463
 9795TIP3    H229343   6.839   3.239   4.946  0.1213  0.7743 -0.0182
 9796TIP3   OH229344   2.083   6.652   5.367 -0.2716  0.0922  0.0297
 9796TIP3    H129345   2.117   6.719   5.308 -0.4557  0.5362  0.4313
 9796TIP3    H229346   2.048   6.585   5.308 -0.4744  0.5455 -0.3710
 9797TIP3   OH229347   0.057   2.996   0.466 -0.0653  0.0843 -0.2079
 9797TIP3    H129348   0.083   2.986   0.374  0.9249 -0.0226  0.0714
 9797TIP3    H229349   0.032   2.908   0.494  2.7231 -0.5812  0.5052
 9798TIP3   OH229350   1.174   6.658   1.825  0.3012  0.0109 -0.4011
 9798TIP3    H129351   1.260   6.690   1.797  0.4848 -0.6228 -0.5758
 9798TIP3    H229352   1.156   6.583   1.768  1.1776 -2.0129  1.7948
 9799TIP3   OH229353   1.286   1.604   6.099  0.6754 -0.5570 -0.2201
 9799TIP3    H129354   1.253   1.553   6.024  0.9396 -0.3196 -0.4997
 9799TIP3    H229355   1.341   1.672   6.059 -0.4243  0.5468  0.0620
 9800TIP3   OH229356   0.846   5.131   0.621 -0.0895 -0.0960 -0.1621
 9800TIP3    H129357   0.937   5.155   0.637  0.1815 -2.3507  2.5087
 9800TIP3    H229358   0.808   5.124   0.709 -2.8571  0.6748 -1.1927
 9801TIP3   OH229359   3.883   6.413   0.549  0.4246  0.3327  0.0949
 9801TIP3    H129360   3.859   6.411   0.456  2.3466 -0.8735 -0.4210
 9801TIP3    H229361   3.808   6.373   0.593  0.0545 -0.3512 -1.0917
 9802TIP3   OH229362   6.964   5.785   3.833 -0.2544 -0.3928  0.3153
 9802TIP3    H129363   6.914   5.845   3.777  3.9677  1.3434 -2.1470
 9802TIP3    H229364   6.965   5.828   3.919 -0.2936  1.3170 -0.4824
 9803TIP3   OH229365   7.630   2.250   0.145 -0.1213 -0.1072  0.4592
 9803TIP3    H129366   7.685   2.284   0.215  1.4988  0.7802 -1.1453
 9803TIP3    H229367   7.572   2.323   0.122 -1.4068 -0.7477  1.5468
 9804TIP3   OH229368   7.798   7.475   1.158  0.0031  0.7716  0.0830
 9804TIP3    H129369   7.804   7.499   1.250 -0.3550 -0.0729  0.3406
 9804TIP3    H229370   7.721   7.522   1.126 -0.1937  0.6401  0.3591
 9805TIP3   OH229371   5.798   2.684   3.125 -0.0290  0.0730  0.3705
 9805TIP3    H129372   5.709   2.668   3.093 -0.3209  1.3825  0.4812
 9805TIP3    H229373   5.786   2.729   3.209  0.6914  2.2454 -0.6224
 9806TIP3   OH229374   2.333   2.388   4.749  0.3085  0.2649  0.3589
 9806TIP3    H129375   2.324   2.369   4.656 -0.0243 -2.0086  0.8060
 9806TIP3    H229376   2.419   2.430   4.756  0.8748 -0.6269 -0.8369
 9807TIP3   OH229377   1.392   6.021   3.400  0.5776  0.2578 -0.4252
 9807TIP3    H129378   1.432   5.957   3.340 -1.1732 -0.0469 -1.3387
 9807TIP3    H229379   1.357   6.088   3.342 -2.3446 -0.6937  0.0612
 9808TIP3   OH229380   6.115   3.884   4.381  0.3015 -0.3824 -0.4708
 9808TIP3    H129381   6.197   3.859   4.424  1.3985  0.7557 -1.7752
 9808TIP3    H229382   6.107   3.823   4.308  1.5464  1.2060 -2.0302
 9809TIP3   OH229383   7.953   0.749   1.730  0.2837  0.0875  0.6617
 9809TIP3    H129384   7.954   0.667   1.681  1.5611 -0.9822  2.3616
 9809TIP3    H229385   7.870   0.748   1.777 -0.2979  0.4441 -0.3086
 9810TIP3   OH229386   5.402   1.530   5.264  0.4587  0.2909 -0.0858
 9810TIP3    H129387   5.422   1.550   5.173 -1.6474 -0.7631 -0.8562
 9810TIP3    H229388   5.432   1.441   5.277 -0.6372 -0.1282 -0.2698
 9811TIP3   OH229389   3.400   2.334   1.365 -0.4600 -0.6007  0.5301
 9811TIP3    H129390   3.402   2.283   1.445 -0.5020  1.4061  1.8764
 9811TIP3    H229391   3.382   2.270   1.296 -0.7733 -2.3293  2.1460
 9812TIP3   OH229392   7.011   2.992   6.479 -0.5795 -0.1916 -0.5590
 9812TIP3    H129393   7.053   3.078   6.488 -0.3564 -0.4008  0.5111
 9812TIP3    H229394   6.936   3.009   6.421 -0.3550  0.6611 -0.6225
 9813TIP3   OH229395   7.669   7.572   6.212 -0.1331 -0.7985 -0.1710
 9813TIP3    H129396   7.600   7.511   6.236 -0.2667 -0.7192 -0.3495
 9813TIP3    H229397   7.635   7.618   6.135  1.1393 -2.6052 -1.9333
 9814TIP3   OH229398   0.505   1.013   1.406  0.5654  0.0740  0.5546
 9814TIP3    H129399   0.478   1.030   1.316  2.5914  0.2909 -0.0749
 9814TIP3    H229400   0.431   1.042   1.460 -1.7890 -2.4610 -1.0755
 9815TIP3   OH229401   7.818   4.326   4.389 -0.2782 -0.6414  0.1511
 9815TIP3    H129402   7.802   4.294   4.301 -1.6137  0.7439 -0.1629
 9815TIP3    H229403   7.757   4.400   4.399  0.8186  0.1080  1.7292
 9816TIP3   OH229404   2.483   7.029   1.175  0.0546  0.7739 -0.2791
 9816TIP3    H129405   2.483   7.033   1.080 -0.9127  2.8982 -0.2577
 9816TIP3    H229406   2.393   7.006   1.198  0.4642 -0.5003  0.1476
 9817TIP3   OH229407   5.635   3.410   5.259 -0.4340  0.3922  0.3842
 9817TIP3    H129408   5.626   3.327   5.211 -0.4187  0.6316 -0.0324
 9817TIP3    H229409   5.631   3.384   5.352  0.3491 -0.1711  0.2773
 9818TIP3   OH229410   4.499   5.709   1.526 -0.0766 -0.5387  0.2129
 9818TIP3    H129411   4.442   5.728   1.600 -0.0658  0.1507  0.0607
 9818TIP3    H229412   4.529   5.796   1.497 -0.2075 -0.7872 -0.6950
 9819TIP3   OH229413   3.407   3.549   5.487 -0.1907  0.0964 -0.2015
 9819TIP3    H129414   3.436   3.465   5.524 -0.1360  0.4019  0.4613
 9819TIP3    H229415   3.331   3.573   5.540  0.7596  1.2527  0.7111
 9820TIP3   OH229416   5.699   7.499   1.973 -0.1722 -0.2172  0.4346
 9820TIP3    H129417   5.643   7.576   1.984 -0.3331 -0.5296  1.9886
 9820TIP3    H229418   5.640   7.429   1.945 -0.6498 -0.6070  2.2962
 9821TIP3   OH229419   3.520   4.057   0.262  0.1632  0.7022 -0.2937
 9821TIP3    H129420   3.468   4.051   0.342 -0.8000  2.8667 -0.6983
 9821TIP3    H229421   3.611   4.056   0.292 -0.1902  2.0314  0.9251
 9822TIP3   OH229422   2.574   1.749   0.992 -0.1960  0.2867  0.0818
 9822TIP3    H129423   2.561   1.658   1.017 -1.6480  0.3944 -0.2211
 9822TIP3    H229424   2.488   1.790   1.001  0.3782  1.5828 -0.0018
 9823TIP3   OH229425   3.584   2.707   2.686 -0.2939 -0.3040  0.2716
 9823TIP3    H129426   3.641   2.726   2.611  0.2720  0.3671  0.8521
 9823TIP3    H229427   3.525   2.638   2.655 -0.9963  0.9224 -1.2388
 9824TIP3   OH229428   3.102   6.939   3.556 -0.1746 -0.1925  0.1188
 9824TIP3    H129429   3.118   6.866   3.496  2.3221  0.8175 -0.5841
 9824TIP3    H229430   3.174   6.935   3.618  1.1524  2.6422 -1.0307
 9825TIP3   OH229431   3.297   1.767   4.466 -0.0390 -0.3096  0.0780
 9825TIP3    H129432   3.343   1.764   4.550  0.7279 -1.5003 -0.3545
 9825TIP3    H229433   3.275   1.859   4.453  2.5377  0.3684  0.1397
 9826TIP3   OH229434   2.082   4.757   1.402  0.3755 -0.0744 -0.1779
 9826TIP3    H129435   2.061   4.664   1.414 -1.8143  0.4046  0.2453
 9826TIP3    H229436   2.138   4.779   1.477  1.0290 -1.0670 -0.3553
 9827TIP3   OH229437   2.319   2.340   4.468  0.6496  0.1085 -0.0343
 9827TIP3    H129438   2.235   2.314   4.430  1.3010  1.4298 -2.6373
 9827TIP3    H229439   2.383   2.283   4.426  1.2812  0.6037  0.2384
 9828TIP3   OH229440   0.673   7.045   4.903 -0.7639  0.0825  0.0976
 9828TIP3    H129441   0.750   7.034   4.959 -0.6937 -0.9133 -0.1706
 9828TIP3    H229442   0.599   7.022   4.959 -0.8254  0.5210  0.2007
 9829TIP3   OH229443   3.284   6.782   1.467  0.0631 -0.3453 -0.2008
 9829TIP3    H129444   3.304   6.769   1.374  1.0840  1.2031 -0.2467
 9829TIP3    H229445   3.254   6.697   1.498  1.6680 -1.4387 -1.4845
 9830TIP3   OH229446   8.028   0.480   2.467 -0.4384  0.4119 -0.7021
 9830TIP3    H129447   8.121   0.458   2.463 -0.6283 -0.3101 -1.3074
 9830TIP3    H229448   7.983   0.396   2.454 -1.1754  0.6958 -0.0434
 9831TIP3   OH229449   3.852   3.696   6.108  0.0511  0.5733  0.5261
 9831TIP3    H129450   3.884   3.669   6.021 -0.0180  0.2417  0.5995
 9831TIP3    H229451   3.931   3.710   6.160  0.0882  0.4793  0.4952
 9832TIP3   OH229452   4.052   2.892   4.733 -0.0317  0.0370  0.4332
 9832TIP3    H129453   3.984   2.953   4.765 -1.1774 -0.0923 -1.5841
 9832TIP3    H229454   4.105   2.945   4.674  0.2536 -0.4340  0.2654
 9833TIP3   OH229455   5.455   1.199   4.023 -0.2703 -0.7741  0.2405
 9833TIP3    H129456   5.548   1.218   4.040 -0.4931  0.5466  0.1194
 9833TIP3    H229457   5.422   1.167   4.107  0.2456 -1.0610  0.3402
 9834TIP3   OH229458   3.180   6.707   0.958 -0.3207 -0.0397  0.3289
 9834TIP3    H129459   3.268   6.708   0.922  0.0368 -0.4437  1.1512
 9834TIP3    H229460   3.122   6.722   0.883  0.3954 -0.6734 -0.3640
 9835TIP3   OH229461   1.133   5.031   6.231 -0.0564  0.2871  0.3270
 9835TIP3    H129462   1.103   4.951   6.187 -1.0272 -0.6812  2.5530
 9835TIP3    H229463   1.062   5.094   6.219  0.9599  1.0787 -1.9312
 9836TIP3   OH229464   0.763   3.932   1.669  0.1671 -0.1966  0.3461
 9836TIP3    H129465   0.809   4.008   1.704  0.0032 -0.4731  1.1706
 9836TIP3    H229466   0.819   3.900   1.599 -0.5460  1.6834 -1.1732
 9837TIP3   OH229467   0.032   5.817   1.014 -0.7524  0.1444 -0.0296
 9837TIP3    H129468  -0.009   5.860   1.089  1.4248 -0.6203  1.6990
 9837TIP3    H229469   0.124   5.807   1.039  0.4980  1.3882 -3.5038
 9838TIP3   OH229470   7.165   3.872   3.251 -0.1917 -0.0768  0.0102
 9838TIP3    H129471   7.200   3.960   3.260  1.7454 -0.8520  0.7345
 9838TIP3    H229472   7.105   3.877   3.177 -0.7483  2.0081  0.5489
 9839TIP3   OH229473   1.543   7.476   3.843  0.2144  0.1478 -0.4994
 9839TIP3    H129474   1.471   7.511   3.791  0.0264  1.4138  0.5577
 9839TIP3    H229475   1.614   7.540   3.831 -0.0385  0.8309  1.2395
 9840TIP3   OH229476   0.417   5.051   6.612  0.1090  0.4308  0.0134
 9840TIP3    H129477   0.504   5.090   6.622  0.6935 -0.1738 -2.1785
 9840TIP3    H229478   0.434   4.964   6.575 -1.3755 -0.2924  0.9498
 9841TIP3   OH229479   3.606   7.234   5.507  0.1129  0.3396  0.1097
 9841TIP3    H129480   3.611   7.299   5.437  1.1243 -0.4745 -0.6019
 9841TIP3    H229481   3.512   7.225   5.525 -0.1884  0.3482 -1.3650
 9842TIP3   OH229482   4.421   3.883   0.207  0.2363  0.2734 -0.8123
 9842TIP3    H129483   4.419   3.867   0.301 -2.5410 -1.3189 -1.0184
 9842TIP3    H229484   4.358   3.954   0.193  0.3078  0.2098 -1.4993
 9843TIP3   OH229485   6.534   1.144   4.103  0.6082  0.0723 -0.4546
 9843TIP3    H129486   6.457   1.146   4.047  0.9937  0.0023 -0.9971
 9843TIP3    H229487   6.594   1.082   4.060 -0.1613 -2.1580  1.4923
 9844TIP3   OH229488   2.727   5.660   1.511  0.2458  0.6376 -0.6606
 9844TIP3    H129489   2.779   5.718   1.567 -0.3740  0.7972 -0.2515
 9844TIP3    H229490   2.640   5.699   1.508 -0.0714 -0.0476 -0.7037
 9845TIP3   OH229491   2.662   6.215   3.702  0.6705 -0.4047  0.4163
 9845TIP3    H129492   2.723   6.197   3.630  0.0845 -2.2006  0.3054
 9845TIP3    H229493   2.617   6.295   3.676  0.7126 -0.8326 -1.0779
 9846TIP3   OH229494   0.098   2.907   5.830  0.7014  0.0830 -0.2798
 9846TIP3    H129495   0.016   2.955   5.842  0.4151 -0.4196 -0.1773
 9846TIP3    H229496   0.160   2.973   5.798 -0.1746  0.1290 -2.0128
 9847TIP3   OH229497   2.275   2.342   6.219  0.1453 -0.4355 -0.5844
 9847TIP3    H129498   2.268   2.425   6.173 -0.0281 -0.0302  0.1508
 9847TIP3    H229499   2.356   2.349   6.269 -0.3961 -0.2703  0.2992
 9848TIP3   OH229500   2.384   0.656   6.417 -0.5434  0.3245 -0.2868
 9848TIP3    H129501   2.313   0.594   6.399 -0.0907  0.1660 -1.6771
 9848TIP3    H229502   2.434   0.616   6.488 -1.2574 -0.0524  0.0138
 9849TIP3   OH229503   2.922   1.903   4.372 -0.2345 -0.2155 -0.7057
 9849TIP3    H129504   2.946   1.811   4.383  5.4619  0.7974 -1.6447
 9849TIP3    H229505   2.918   1.915   4.277 -1.5866  0.4781 -0.5890
 9850TIP3   OH229506   6.140   3.708   1.291  0.1867 -0.5049  0.2994
 9850TIP3    H129507   6.169   3.741   1.206  1.5869  0.1047  0.9937
 9850TIP3    H229508   6.111   3.787   1.338 -1.6832 -0.9677  0.0144
 9851TIP3   OH229509   0.219   1.448   5.456 -0.0999 -0.1853 -0.2153
 9851TIP3    H129510   0.299   1.406   5.488 -1.0698 -2.5854 -0.6578
 9851TIP3    H229511   0.172   1.474   5.536  0.8610  0.7658  0.0580
 9852TIP3   OH229512   5.427   6.003   3.210  0.3769  0.0215 -0.2843
 9852TIP3    H129513   5.418   5.924   3.263 -1.7692 -0.1454 -0.8309
 9852TIP3    H229514   5.457   5.971   3.125 -1.2925 -0.3618 -0.7697
 9853TIP3   OH229515   2.678   2.397   3.493  0.5799  0.0241  0.0056
 9853TIP3    H129516   2.697   2.311   3.455  0.4131 -0.5466  1.1630
 9853TIP3    H229517   2.586   2.393   3.517  1.1949 -0.5281  2.5770
 9854TIP3   OH229518   2.400   6.216   4.855  0.4986 -0.7979 -0.1810
 9854TIP3    H129519   2.372   6.269   4.781  1.7839 -0.9909 -0.8296
 9854TIP3    H229520   2.362   6.260   4.931  0.1346  0.0711 -0.8459
 9855TIP3   OH229521   1.917   4.501   4.549 -0.0678  0.0788 -0.1689
 9855TIP3    H129522   1.837   4.553   4.560  0.9282  1.2681  2.3407
 9855TIP3    H229523   1.941   4.514   4.457 -2.2264  0.4527 -0.7356
 9856TIP3   OH229524   4.070   5.613   5.283 -0.6251  0.0616  0.4080
 9856TIP3    H129525   4.077   5.678   5.212 -1.0976 -0.9946 -0.6477
 9856TIP3    H229526   4.152   5.565   5.280 -0.9079 -0.4127  0.1327
 9857TIP3   OH229527   4.723   0.329   2.573 -0.0092  0.3938 -0.2462
 9857TIP3    H129528   4.792   0.356   2.633  2.5442 -1.0621 -2.2742
 9857TIP3    H229529   4.739   0.235   2.559 -0.5179  0.6143 -2.9644
 9858TIP3   OH229530   4.097   1.252   2.687  0.2431  0.2452  0.2720
 9858TIP3    H129531   4.148   1.195   2.629  1.8674  1.5828  0.3159
 9858TIP3    H229532   4.018   1.273   2.637  0.1720 -1.0479 -0.2136
 9859TIP3   OH229533   6.027   5.525   5.708  0.1272 -0.2040 -0.4372
 9859TIP3    H129534   6.061   5.463   5.774 -0.9288 -1.5537 -1.1019
 9859TIP3    H229535   5.990   5.596   5.759 -0.3296 -1.0459  0.4476
 9860TIP3   OH229536   6.833   1.977   0.224 -0.0975 -0.3883 -0.4423
 9860TIP3    H129537   6.868   2.016   0.144  1.9439  1.4468  1.2445
 9860TIP3    H229538   6.746   2.016   0.233 -0.6410 -1.1302 -2.0528
 9861TIP3   OH229539   3.063   4.708   5.601  0.0556  0.7510  0.2324
 9861TIP3    H129540   3.086   4.619   5.626  2.1462  0.8506 -1.0641
 9861TIP3    H229541   2.975   4.702   5.564 -0.5311 -0.4280  1.7267
 9862TIP3   OH229542   4.771   4.656   0.877  0.2206  0.0784 -0.0036
 9862TIP3    H129543   4.855   4.698   0.892  1.0813 -1.2463 -0.8625
 9862TIP3    H229544   4.740   4.694   0.794 -1.7027  3.0342  1.9015
 9863TIP3   OH229545   7.167   7.589   4.282  0.0857  0.0915 -0.1153
 9863TIP3    H129546   7.147   7.595   4.188 -0.4666  0.6178  0.0264
 9863TIP3    H229547   7.149   7.498   4.305 -1.0728  0.2758 -0.2476
 9864TIP3   OH229548   2.284   1.115   0.770 -0.3186  0.1603  0.4013
 9864TIP3    H129549   2.310   1.028   0.739 -0.9413 -0.3699  1.3335
 9864TIP3    H229550   2.269   1.165   0.689  0.5199 -0.4428 -0.1451
 9865TIP3   OH229551   8.008   3.969   3.338  0.1632 -0.4124  0.5499
 9865TIP3    H129552   8.079   3.915   3.372 -0.7115 -2.0492 -0.1328
 9865TIP3    H229553   7.929   3.922   3.362 -0.6079  0.2766 -0.5918
 9866TIP3   OH229554   3.261   2.081   2.957  0.1464 -0.3479 -0.1374
 9866TIP3    H129555   3.288   2.147   2.893 -1.9230 -1.0399 -1.8430
 9866TIP3    H229556   3.179   2.046   2.922 -0.5155 -1.5381  2.3854
 9867TIP3   OH229557   5.698   5.835   4.077 -0.0600  0.2208  0.4591
 9867TIP3    H129558   5.684   5.741   4.062 -1.2365  0.4749 -0.1167
 9867TIP3    H229559   5.710   5.872   3.990  1.4999  0.4623  0.7510
 9868TIP3   OH229560   7.063   2.984   2.928  0.0444  0.2185  0.7876
 9868TIP3    H129561   6.975   3.016   2.948  0.0175  1.7198 -1.3643
 9868TIP3    H229562   7.121   3.039   2.982 -0.1399  2.5907 -1.2506
 9869TIP3   OH229563   1.963   5.731   6.726 -0.3151  0.4419  0.4659
 9869TIP3    H129564   1.938   5.677   6.801  0.3564  1.5393  1.5092
 9869TIP3    H229565   1.880   5.749   6.681 -0.7863  0.1229  1.1799
 9870TIP3   OH229566   3.213   7.126   5.512 -0.1222 -0.0969  0.3375
 9870TIP3    H129567   3.140   7.093   5.460  0.1668 -1.0394  0.5055
 9870TIP3    H229568   3.233   7.212   5.474  1.3116 -1.5070 -2.4357
 9871TIP3   OH229569   8.003   6.860   4.396  0.4178  0.0568  0.2797
 9871TIP3    H129570   7.957   6.939   4.425  0.9472  0.8854 -1.0859
 9871TIP3    H229571   8.045   6.884   4.314  0.9970 -1.5114  0.0709
 9872TIP3   OH229572   5.199   6.628   3.582  0.4511  0.1977  0.3733
 9872TIP3    H129573   5.254   6.703   3.605 -0.3144  0.9005 -0.0125
 9872TIP3    H229574   5.145   6.660   3.510  0.7162 -1.0149 -0.3894
 9873TIP3   OH229575   3.607   7.369   5.256 -0.0211 -0.1340  0.0493
 9873TIP3    H129576   3.694   7.384   5.219 -0.0515 -0.0689  0.0035
 9873TIP3    H229577   3.558   7.449   5.236  0.3426  0.4326  1.3676
 9874TIP3   OH229578   3.750   4.133   4.011  0.2594 -0.4187 -0.2703
 9874TIP3    H129579   3.767   4.112   3.919  0.9942  0.6640 -0.4076
 9874TIP3    H229580   3.749   4.229   4.014 -0.3496 -0.4360  0.7551
 9875TIP3   OH229581   7.604   0.796   6.729  0.3113  0.0400  0.1393
 9875TIP3    H129582   7.681   0.771   6.678  1.5736 -0.4034  2.1472
 9875TIP3    H229583   7.626   0.881   6.766 -0.9904  0.8212 -0.7733
 9876TIP3   OH229584   7.104   4.097   3.063  0.4429  0.3508  0.5068
 9876TIP3    H129585   7.177   4.123   3.007 -0.8838  0.7575 -1.0927
 9876TIP3    H229586   7.043   4.171   3.061 -1.0876 -0.8654 -0.1161
 9877TIP3   OH229587   4.258   5.128   2.411  0.1624  0.1503  0.1534
 9877TIP3    H129588   4.230   5.060   2.472 -1.6575  0.3860 -0.3602
 9877TIP3    H229589   4.314   5.083   2.348 -2.6115 -1.3896 -1.3743
 9878TIP3   OH229590   0.526   7.530   4.068 -1.0836 -0.3624 -0.1131
 9878TIP3    H129591   0.530   7.512   4.162 -0.0525 -0.7453 -0.2214
 9878TIP3    H229592   0.584   7.465   4.028 -0.5175  0.5919 -0.9021
 9879TIP3   OH229593   8.240   1.575   0.051 -0.0434 -0.1403 -0.8237
 9879TIP3    H129594   8.335   1.581   0.060 -0.0972 -1.4777  1.2540
 9879TIP3    H229595   8.225   1.496   0.000 -0.0614 -0.1103 -0.8654
 9880TIP3   OH229596   0.637   4.787   0.340 -1.1825  0.5217  0.3969
 9880TIP3    H129597   0.698   4.835   0.284 -0.5402  0.4768  1.0455
 9880TIP3    H229598   0.668   4.804   0.429 -2.9409  1.6597  0.8552
 9881TIP3   OH229599   3.749   3.987   6.234 -0.0145 -0.6561  0.0663
 9881TIP3    H129600   3.766   4.071   6.276 -0.2977 -0.2223 -0.6542
 9881TIP3    H229601   3.835   3.948   6.222  0.3377  0.4768 -1.4674
 9882TIP3   OH229602   1.979   4.329   5.303  0.4210 -0.3034 -0.1946
 9882TIP3    H129603   1.983   4.416   5.262 -0.1717  0.4194  1.1942
 9882TIP3    H229604   2.070   4.301   5.309  0.7142  0.6970  0.2657
 9883TIP3   OH229605   0.822   1.082   2.146  0.2964 -0.2465 -0.6942
 9883TIP3    H129606   0.777   1.165   2.135  0.1525 -0.1885  0.1969
 9883TIP3    H229607   0.791   1.049   2.231  0.5962 -1.0478 -0.8831
 9884TIP3   OH229608   5.946   1.741   1.360 -0.2430  0.4831 -0.3897
 9884TIP3    H129609   6.029   1.787   1.351  0.4157 -0.8951 -1.6401
 9884TIP3    H229610   5.969   1.649   1.360 -1.5194  0.0678  2.2290
 9885TIP3   OH229611   6.947   1.104   3.984 -0.0408  0.1744 -0.0191
 9885TIP3    H129612   7.037   1.136   3.983 -0.2940  0.9863  0.9706
 9885TIP3    H229613   6.930   1.087   4.076 -0.4704 -1.2596 -0.3536
 9886TIP3   OH229614   2.597   0.405   3.493  0.1662  0.1730 -0.1261
 9886TIP3    H129615   2.625   0.430   3.404 -1.3250  2.0786 -0.1378
 9886TIP3    H229616   2.674   0.418   3.547  0.3277  1.8925 -0.7023
 9887TIP3   OH229617   5.516   2.122   3.889  0.3206  0.1830 -0.3542
 9887TIP3    H129618   5.584   2.189   3.900 -0.2606  0.5053  1.5244
 9887TIP3    H229619   5.435   2.172   3.876  0.0495 -0.1587  0.0059
 9888TIP3   OH229620   0.795   7.600   5.397 -0.4767  0.0524  0.1850
 9888TIP3    H129621   0.813   7.644   5.480 -3.1133  0.1628  0.8068
 9888TIP3    H229622   0.778   7.671   5.335  0.6329 -0.0475 -0.2593
 9889TIP3   OH229623   2.208   1.082   1.649  0.1125  0.4251 -0.2533
 9889TIP3    H129624   2.266   1.106   1.577  0.0238  1.2900 -0.0513
 9889TIP3    H229625   2.243   0.999   1.682  1.3610  1.0263 -0.0040
 9890TIP3   OH229626   2.963   4.044   4.577  0.2217 -0.2172 -0.0263
 9890TIP3    H129627   3.003   3.976   4.632 -2.1291  0.7281  3.1178
 9890TIP3    H229628   2.870   4.022   4.575  0.0832  0.1371 -3.3514
 9891TIP3   OH229629   2.860   3.678   0.594 -0.4212 -0.7925  0.6547
 9891TIP3    H129630   2.811   3.596   0.591 -1.5964 -0.0759 -0.5359
 9891TIP3    H229631   2.878   3.693   0.687  1.5628 -3.3707  0.8013
 9892TIP3   OH229632   7.957   2.065   2.888  0.8786 -0.4649  0.1714
 9892TIP3    H129633   7.934   2.049   2.979 -0.4156 -0.5662 -0.1504
 9892TIP3    H229634   7.903   2.004   2.838 -1.0852  1.9221 -0.8536
 9893TIP3   OH229635   5.793   1.940   3.830  0.2661 -0.2580  0.3755
 9893TIP3    H129636   5.719   1.952   3.771 -0.7417  0.1945  1.6899
 9893TIP3    H229637   5.842   2.022   3.826 -1.1034  0.7071  1.8640
 9894TIP3   OH229638   5.748   6.944   0.950 -0.0413  0.4706  0.2957
 9894TIP3    H129639   5.761   6.881   1.021  1.7939  2.1379  1.5382
 9894TIP3    H229640   5.656   6.970   0.957  0.1534  0.7854  2.2743
 9895TIP3   OH229641   6.358   1.336   5.291 -1.0636  0.0520  0.0849
 9895TIP3    H129642   6.316   1.252   5.306 -0.4303 -0.0112  1.7305
 9895TIP3    H229643   6.447   1.315   5.262 -0.5452  0.0984  1.5458
 9896TIP3   OH229644   6.829   3.412   3.676 -0.4297  0.2380 -0.3228
 9896TIP3    H129645   6.896   3.413   3.745 -0.2455 -2.1086 -0.3681
 9896TIP3    H229646   6.877   3.436   3.596 -0.0306  0.3013 -0.0690
 9897TIP3   OH229647   1.503   1.418   2.771  0.2028 -0.0835 -0.1833
 9897TIP3    H129648   1.426   1.472   2.754  0.4950  0.2056 -0.6234
 9897TIP3    H229649   1.577   1.479   2.765  0.5240 -0.4975 -0.5061
 9898TIP3   OH229650   6.725   7.046   6.192 -0.1344 -0.0798  0.3146
 9898TIP3    H129651   6.806   7.000   6.172  0.1750 -0.4843  2.2577
 9898TIP3    H229652   6.666   6.978   6.225 -1.0486  0.3177 -0.4386
 9899TIP3   OH229653   7.549   7.518   0.976 -0.0832 -0.1506  0.2127
 9899TIP3    H129654   7.525   7.505   0.884 -1.1045 -0.1755  0.4734
 9899TIP3    H229655   7.537   7.612   0.990  0.4024 -0.0917  0.2310
 9900TIP3   OH229656   5.258   1.075   4.601 -0.1931  0.4083  0.2989
 9900TIP3    H129657   5.201   1.028   4.662 -0.1091  0.1415  0.1782
 9900TIP3    H229658   5.331   1.106   4.655 -0.5019  0.8402  0.4714
 9901TIP3   OH229659   2.916   5.187   2.422  0.6949 -0.1105 -0.2671
 9901TIP3    H129660   2.838   5.133   2.433  0.1007  0.1854 -2.5651
 9901TIP3    H229661   2.969   5.168   2.499 -1.0751 -1.2682  0.7373
 9902TIP3   OH229662   4.341   7.811   2.956  0.4604  0.2214 -0.3815
 9902TIP3    H129663   4.253   7.830   2.924  0.5051  0.6999 -0.2300
 9902TIP3    H229664   4.376   7.747   2.894 -0.8701 -1.8649  0.8884
 9903TIP3   OH229665   6.730   5.298   5.677  0.1397 -0.3227 -0.3891
 9903TIP3    H129666   6.756   5.229   5.738  1.5122  1.3008  0.9598
 9903TIP3    H229667   6.733   5.378   5.728  0.8675  1.0746 -2.4675
 9904TIP3   OH229668   4.746   5.320   0.998 -0.1743 -0.2386 -0.1847
 9904TIP3    H129669   4.729   5.322   1.092  1.0745  1.1446  0.0466
 9904TIP3    H229670   4.664   5.288   0.960 -1.1568  0.3960  1.2783
 9905TIP3   OH229671   6.236   7.521   3.556 -0.3498  0.3135 -0.1209
 9905TIP3    H129672   6.260   7.428   3.556  2.7737  1.0149 -0.4314
 9905TIP3    H229673   6.227   7.544   3.464  1.9134  0.8932 -0.2758
 9906TIP3   OH229674   3.906   7.556   0.164  0.3599 -0.0253 -0.9185
 9906TIP3    H129675   3.915   7.460   0.169  2.4867  0.1879  2.0605
 9906TIP3    H229676   3.996   7.588   0.165 -0.3278  2.0218 -0.5841
 9907TIP3   OH229677   2.458   4.329   0.358 -0.7827 -0.2524 -0.0617
 9907TIP3    H129678   2.408   4.359   0.282  0.9336 -0.7847 -1.4800
 9907TIP3    H229679   2.523   4.269   0.321 -0.2145 -0.9282  1.9156
 9908TIP3   OH229680   5.911   2.898   6.206 -0.1609 -0.0273 -0.2727
 9908TIP3    H129681   5.962   2.931   6.132 -0.0102 -1.7961 -1.0119
 9908TIP3    H229682   5.967   2.911   6.282 -0.6184  2.5242 -0.2759
 9909TIP3   OH229683   6.613   5.277   5.425 -0.2154  0.1564  0.6036
 9909TIP3    H129684   6.643   5.188   5.410  0.8248  0.7725 -1.2784
 9909TIP3    H229685   6.652   5.302   5.509  0.2935 -0.8162  0.6666
 9910TIP3   OH229686   0.444   4.802   0.153  0.8352 -0.2707 -0.9343
 9910TIP3    H129687   0.512   4.807   0.221 -0.1552  3.1924  0.0337
 9910TIP3    H229688   0.481   4.850   0.079  0.9736 -1.9703 -2.0080
 9911TIP3   OH229689   5.451   0.112   6.523 -0.6784 -0.0427  0.0325
 9911TIP3    H129690   5.541   0.133   6.495 -0.4083  2.5874  2.4245
 9911TIP3    H229691   5.396   0.150   6.455  0.0168  1.1615  0.1074
 9912TIP3   OH229692   0.571   4.371   5.160 -0.3455 -0.0524  0.3297
 9912TIP3    H129693   0.532   4.284   5.166  0.5704 -0.6359 -1.5874
 9912TIP3    H229694   0.663   4.356   5.139 -0.1476  1.3600  0.0403
 9913TIP3   OH229695   7.085   2.430   3.737  0.1688  0.0140 -0.5214
 9913TIP3    H129696   7.022   2.494   3.771  0.6682 -0.3578  1.1736
 9913TIP3    H229697   7.031   2.356   3.709 -0.1536 -0.6635  1.7096
 9914TIP3   OH229698   2.279   3.513   3.997 -0.5185  0.9180  0.5354
 9914TIP3    H129699   2.352   3.574   4.011  0.5901  0.0345 -1.0534
 9914TIP3    H229700   2.229   3.551   3.925 -0.5612  0.6109  0.3997
 9915TIP3   OH229701   2.793   3.288   6.076 -0.4001 -0.7630 -0.2057
 9915TIP3    H129702   2.845   3.267   5.998  0.4737  0.6944 -0.0502
 9915TIP3    H229703   2.835   3.239   6.147 -0.5346 -1.2372 -0.4487
 9916TIP3   OH229704   1.548   7.340   4.287  1.0672  0.8618  0.0335
 9916TIP3    H129705   1.503   7.423   4.268  2.4494  1.2776 -1.6873
 9916TIP3    H229706   1.497   7.275   4.239  1.1421  1.0406 -0.2971
 9917TIP3   OH229707   3.467   1.875   6.701 -0.0745 -0.2876 -0.4266
 9917TIP3    H129708   3.432   1.805   6.646  1.3420 -0.2237 -1.4659
 9917TIP3    H229709   3.559   1.852   6.713  1.1087  2.5961 -2.8616
 9918TIP3   OH229710   5.855   3.526   0.301 -0.5737  0.1462 -0.5235
 9918TIP3    H129711   5.768   3.489   0.287 -0.6428  0.1049  0.0187
 9918TIP3    H229712   5.887   3.545   0.213 -1.9788  2.0933 -0.6843
 9919TIP3   OH229713   7.223   4.762   0.769  0.0832  0.3206 -0.4386
 9919TIP3    H129714   7.181   4.796   0.849  0.7431 -0.3157  0.1991
 9919TIP3    H229715   7.315   4.784   0.781  0.6787 -2.2790  0.3548
 9920TIP3   OH229716   6.587   2.608   6.494 -0.6292 -0.2693 -0.4909
 9920TIP3    H129717   6.550   2.666   6.427 -0.8669  0.9100  0.6173
 9920TIP3    H229718   6.625   2.668   6.559  0.1097 -1.3936  0.1484
 9921TIP3   OH229719   0.243   1.495   2.468 -0.0813 -0.0105 -0.1654
 9921TIP3    H129720   0.233   1.429   2.400 -0.1890 -1.0969  0.8773
 9921TIP3    H229721   0.163   1.546   2.463 -1.1220 -1.5119  0.6223
 9922TIP3   OH229722   7.891   1.916   0.122 -0.7832  0.0430 -0.6793
 9922TIP3    H129723   7.817   1.897   0.178 -0.7892  1.5756 -0.1319
 9922TIP3    H229724   7.942   1.834   0.120 -2.0815 -0.7980 -0.4979
 9923TIP3   OH229725   3.186   5.464   5.395  0.0050 -0.1247 -0.2471
 9923TIP3    H129726   3.229   5.383   5.424  0.8650  0.4369  0.1111
 9923TIP3    H229727   3.171   5.513   5.476 -1.4438 -0.3603 -0.3630
 9924TIP3   OH229728   2.124   4.622   1.047 -0.2542  0.1079  0.0446
 9924TIP3    H129729   2.090   4.659   1.129 -0.2479 -2.0515  1.1079
 9924TIP3    H229730   2.099   4.530   1.051 -0.7956  0.0634 -2.7230
 9925TIP3   OH229731   7.776   3.481   5.587  0.3436  0.1803 -0.0172
 9925TIP3    H129732   7.689   3.455   5.617  0.6659  0.6763  1.3832
 9925TIP3    H229733   7.785   3.440   5.501 -0.8826 -0.6759  0.2500
 9926TIP3   OH229734   2.450   2.673   2.742 -0.2769 -0.3588 -0.1233
 9926TIP3    H129735   2.443   2.749   2.798  1.4240 -0.1922 -0.0963
 9926TIP3    H229736   2.537   2.679   2.702 -0.0056 -2.3719  0.0297
 9927TIP3   OH229737   3.107   2.720   5.705  0.0488 -0.1508 -0.1050
 9927TIP3    H129738   3.017   2.728   5.736  0.3901 -0.6331  1.0736
 9927TIP3    H229739   3.148   2.804   5.725 -0.3343  0.3763 -1.4045
 9928TIP3   OH229740   4.117   7.589   2.951 -0.0706 -0.0580  0.2411
 9928TIP3    H129741   4.070   7.665   2.915 -0.9112 -1.0174 -0.7426
 9928TIP3    H229742   4.135   7.534   2.875  0.4235 -0.9085  0.9626
 9929TIP3   OH229743   7.186   3.636   1.453  0.2169  0.0008  0.1326
 9929TIP3    H129744   7.176   3.577   1.378  1.2474  0.8746 -0.7235
 9929TIP3    H229745   7.242   3.587   1.513 -1.2147 -1.0073  0.7057
 9930TIP3   OH229746   0.527   5.189   0.555  0.4217  0.3149  0.3343
 9930TIP3    H129747   0.568   5.267   0.592  0.5824  1.5044 -2.1310
 9930TIP3    H229748   0.596   5.148   0.502 -0.3642 -0.0559 -0.4332
 9931TIP3   OH229749   3.087   4.762   1.689  0.2400 -0.3662  0.4490
 9931TIP3    H129750   3.109   4.846   1.647 -1.0864 -0.3368 -0.2291
 9931TIP3    H229751   3.018   4.784   1.751 -0.6215 -1.0559 -0.2438
 9932TIP3   OH229752   0.881   5.674   3.703 -0.0467 -0.0625 -0.1987
 9932TIP3    H129753   0.850   5.625   3.628  1.5722 -0.5073 -0.6157
 9932TIP3    H229754   0.903   5.761   3.668  1.1181 -0.4032 -0.3679
 9933TIP3   OH229755   1.899   0.220   4.992  0.1742  0.7176  0.5943
 9933TIP3    H129756   1.847   0.300   4.999  0.0810  0.6178  1.0312
 9933TIP3    H229757   1.951   0.233   4.912  0.8296  1.5959  1.1452
 9934TIP3   OH229758   5.857   3.490   1.699  0.2346 -0.4460 -0.7664
 9934TIP3    H129759   5.930   3.447   1.744  0.1835  0.0076 -0.2451
 9934TIP3    H229760   5.783   3.480   1.758 -0.5230 -2.1778 -1.9258
 9935TIP3   OH229761   1.642   1.939   3.137 -0.0717  0.1447 -0.1597
 9935TIP3    H129762   1.598   1.855   3.120  0.4210 -0.3116  0.7908
 9935TIP3    H229763   1.733   1.924   3.115  0.0220  0.4351  0.0190
 9936TIP3   OH229764   2.436   4.401   5.259 -0.0884 -0.2182  0.0192
 9936TIP3    H129765   2.407   4.474   5.314  1.7076  0.2788  0.3797
 9936TIP3    H229766   2.390   4.414   5.176  0.0638  1.2548  0.1380
 9937TIP3   OH229767   4.449   2.124   0.801 -0.2675 -0.5333 -0.0077
 9937TIP3    H129768   4.422   2.119   0.709  0.3292  0.4681 -0.2465
 9937TIP3    H229769   4.466   2.217   0.816 -0.4114 -0.6774  1.1389
 9938TIP3   OH229770   0.829   5.501   5.380 -0.5438 -0.1593  0.2858
 9938TIP3    H129771   0.752   5.540   5.339  0.1008 -1.2651 -2.1809
 9938TIP3    H229772   0.877   5.575   5.416 -1.4409  0.8379 -0.5128
 9939TIP3   OH229773   5.650   1.016   6.422  0.1346  0.0840  0.4337
 9939TIP3    H129774   5.703   1.091   6.450 -0.6433  0.5717  0.6553
 9939TIP3    H229775   5.578   1.055   6.372 -0.4877 -0.4718  0.8667
 9940TIP3   OH229776   1.416   2.474   2.049 -0.1574 -0.3386 -0.0616
 9940TIP3    H129777   1.496   2.510   2.010  0.5183 -1.5933  0.0982
 9940TIP3    H229778   1.435   2.470   2.143 -0.9604  0.6773  0.1548
 9941TIP3   OH229779   8.221   0.577   1.418  0.2874 -1.2821  0.2209
 9941TIP3    H129780   8.255   0.559   1.330  0.6365 -0.5779  0.2066
 9941TIP3    H229781   8.287   0.634   1.458  0.0318 -1.4362  0.8673
 9942TIP3   OH229782   4.019   1.601   5.532  0.7850  0.1251 -0.1087
 9942TIP3    H129783   4.048   1.675   5.586 -1.6998 -0.4225  2.2201
 9942TIP3    H229784   4.093   1.540   5.532  1.3567  0.7683  1.5726
 9943TIP3   OH229785   5.428   0.403   4.251  0.0980 -0.0674  0.0348
 9943TIP3    H129786   5.410   0.344   4.324  0.9554  1.4457  1.5518
 9943TIP3    H229787   5.433   0.490   4.291  0.2449  0.8634 -1.8948
 9944TIP3   OH229788   3.032   4.214   2.380  0.2565  0.1775 -0.0611
 9944TIP3    H129789   3.090   4.143   2.350 -0.3870 -0.3977  0.0314
 9944TIP3    H229790   2.998   4.253   2.300  1.3017  0.9865 -0.1394
 9945TIP3   OH229791   2.141   3.388   3.094  0.1458 -0.4775  0.3887
 9945TIP3    H129792   2.228   3.406   3.131  0.0218  0.0750  0.4109
 9945TIP3    H229793   2.087   3.365   3.169  0.3606 -1.2133  0.3352
 9946TIP3   OH229794   1.668   3.953   3.119 -0.4978 -0.5926  0.1150
 9946TIP3    H129795   1.710   3.879   3.164  2.4222  0.0201 -1.3544
 9946TIP3    H229796   1.672   4.024   3.183 -0.5062 -0.8955  0.4596
 9947TIP3   OH229797   0.113   6.264   3.439  0.2632 -0.1547 -0.6368
 9947TIP3    H129798   0.152   6.314   3.367 -0.8728 -0.7212 -1.6941
 9947TIP3    H229799   0.079   6.184   3.397 -1.3540 -0.0164  0.3233
 9948TIP3   OH229800   0.287   4.533   4.386 -0.1553 -0.4256  0.5438
 9948TIP3    H129801   0.220   4.590   4.349  1.1277  0.6714 -0.1830
 9948TIP3    H229802   0.247   4.497   4.465 -1.1934  1.0612  0.7410
 9949TIP3   OH229803   6.257   4.848   0.109  0.5722  0.4583  0.0983
 9949TIP3    H129804   6.334   4.810   0.067  0.3958  0.6579 -0.4082
 9949TIP3    H229805   6.263   4.941   0.090  1.3965  0.8317  1.9502
 9950TIP3   OH229806   6.735   5.829   2.899 -1.0478  0.3129  0.0921
 9950TIP3    H129807   6.650   5.826   2.855 -0.5043 -2.1047 -0.9924
 9950TIP3    H229808   6.769   5.917   2.882 -1.2353 -0.1997 -3.7667
 9951TIP3   OH229809   0.133   5.653   5.593  0.4397  0.2272  0.1162
 9951TIP3    H129810   0.142   5.576   5.537  0.5902 -0.8268  1.5265
 9951TIP3    H229811   0.117   5.725   5.532 -2.5359 -1.3103 -1.1360
 9952TIP3   OH229812   5.922   0.221   5.692 -0.2487  0.0160  0.1679
 9952TIP3    H129813   6.015   0.231   5.672 -0.7524  0.9746 -2.0177
 9952TIP3    H229814   5.898   0.304   5.733 -0.6845  0.9624 -1.8717
 9953TIP3   OH229815   2.124   1.213   3.260  0.4337 -0.6320  0.1420
 9953TIP3    H129816   2.079   1.296   3.243 -1.8539 -2.1519 -2.0743
 9953TIP3    H229817   2.119   1.202   3.355 -0.3780  1.1468  0.3570
 9954TIP3   OH229818   6.139   6.285   3.656 -0.0652 -0.0779  0.1526
 9954TIP3    H129819   6.072   6.248   3.714 -1.3987  1.1143 -0.5603
 9954TIP3    H229820   6.105   6.270   3.568  0.9364 -0.0265 -0.2567
 9955TIP3   OH229821   0.924   4.607   1.416  0.2327  0.5456  0.4506
 9955TIP3    H129822   0.931   4.679   1.353 -2.4804  0.3748 -0.1529
 9955TIP3    H229823   0.841   4.623   1.461 -0.5004 -2.2417  0.2424
 9956TIP3   OH229824   1.733   2.961   5.283 -0.0972 -0.3306 -0.0724
 9956TIP3    H129825   1.704   2.983   5.371  0.6118 -0.8463  0.3012
 9956TIP3    H229826   1.815   2.913   5.296 -0.9507 -2.1218 -0.8961
 9957TIP3   OH229827   4.923   3.573   2.494  0.1471 -0.2337 -0.3921
 9957TIP3    H129828   4.857   3.640   2.511  1.9942  1.3543  0.9594
 9957TIP3    H229829   4.966   3.560   2.579  0.6029 -2.3281 -0.8856
 9958TIP3   OH229830   3.855   4.334   1.947 -0.1033 -0.0225 -0.2168
 9958TIP3    H129831   3.934   4.291   1.912  0.3590  1.4551 -1.0887
 9958TIP3    H229832   3.887   4.418   1.980 -1.4576  1.0723 -1.5795
 9959TIP3   OH229833   6.368   3.666   2.113 -0.4610  0.3957  0.3067
 9959TIP3    H129834   6.426   3.607   2.161 -0.1292 -0.4998 -1.1528
 9959TIP3    H229835   6.389   3.753   2.147  2.2831  0.2096 -0.6708
 9960TIP3   OH229836   1.475   6.404   1.136 -0.4852  0.5651  0.4281
 9960TIP3    H129837   1.420   6.402   1.058 -0.1619  0.4653  0.1984
 9960TIP3    H229838   1.443   6.478   1.187 -1.8131 -0.3774  1.0165
 9961TIP3   OH229839   1.504   0.253   5.012  0.6104  0.3296 -0.2256
 9961TIP3    H129840   1.555   0.174   4.997 -1.2142 -1.0890  0.5962
 9961TIP3    H229841   1.568   0.319   5.040  1.9694 -1.3594  0.8544
 9962TIP3   OH229842   3.345   5.084   4.025  0.0228 -0.2914 -0.2282
 9962TIP3    H129843   3.358   5.022   4.097 -1.5048 -0.9947 -0.5086
 9962TIP3    H229844   3.394   5.047   3.952 -0.0120 -0.6218 -0.0865
 9963TIP3   OH229845   0.444   2.205   3.998 -0.5021  0.2033  0.4947
 9963TIP3    H129846   0.518   2.167   3.950 -0.9055 -1.2995  0.9994
 9963TIP3    H229847   0.414   2.277   3.943 -0.7128 -1.2220 -1.3442
 9964TIP3   OH229848   1.113   2.959   1.980 -0.3110 -0.3822 -0.0868
 9964TIP3    H129849   1.051   2.999   1.919 -1.8231  0.3420  1.8043
 9964TIP3    H229850   1.107   2.865   1.963  0.4677 -0.1180 -2.0471
 9965TIP3   OH229851   0.142   0.663   1.988  0.8842  0.7592  0.3103
 9965TIP3    H129852   0.119   0.671   2.080  1.2847  1.2881  0.3681
 9965TIP3    H229853   0.135   0.569   1.969  1.4454  0.5606  1.0493
 9966TIP3   OH229854   7.689   4.728   1.538  0.6747 -0.2344  0.2395
 9966TIP3    H129855   7.625   4.679   1.590  0.7551 -2.1561 -1.3644
 9966TIP3    H229856   7.764   4.669   1.530  1.4801  0.8277 -0.3986
 9967TIP3   OH229857   1.850   7.353   5.472 -0.4354  0.0509  0.3062
 9967TIP3    H129858   1.776   7.379   5.527 -1.9665 -1.4010 -0.9618
 9967TIP3    H229859   1.881   7.435   5.433 -1.8901  0.5926  0.2478
 9968TIP3   OH229860   6.352   5.304   0.423  0.4681  0.3419  0.1686
 9968TIP3    H129861   6.384   5.265   0.504 -2.1042 -1.8249  0.2793
 9968TIP3    H229862   6.259   5.320   0.439 -0.8201 -2.6301 -3.0780
 9969TIP3   OH229863   4.214   0.568   0.849 -0.2729 -0.8728 -0.5232
 9969TIP3    H129864   4.275   0.495   0.861  1.9152  0.8907 -0.2086
 9969TIP3    H229865   4.215   0.614   0.932 -2.3327 -0.9242 -0.4113
 9970TIP3   OH229866   3.050   3.856   6.220 -0.7418  0.3520 -0.3023
 9970TIP3    H129867   3.056   3.780   6.162 -0.0289  1.1652 -1.3321
 9970TIP3    H229868   3.094   3.828   6.301 -0.1731 -0.2214 -0.8012
 9971TIP3   OH229869   6.839   5.131   5.309  0.6004  0.3243 -0.2329
 9971TIP3    H129870   6.934   5.130   5.320  0.8544  4.1494 -0.8295
 9971TIP3    H229871   6.826   5.158   5.218 -0.9857  1.8117  0.3743
 9972TIP3   OH229872   7.353   3.849   6.546 -0.1042 -0.2560 -0.2414
 9972TIP3    H129873   7.437   3.894   6.540  0.1352 -0.7896 -1.1040
 9972TIP3    H229874   7.287   3.918   6.537  0.2459  0.1263  0.1535
 9973TIP3   OH229875   7.666   0.810   6.309 -0.7877  0.4935  0.7745
 9973TIP3    H129876   7.728   0.787   6.378  0.2189 -0.7985 -0.5078
 9973TIP3    H229877   7.664   0.906   6.309  1.3753  0.5699  0.7248
 9974TIP3   OH229878   5.284   2.601   0.384  0.0685  0.0998 -0.9503
 9974TIP3    H129879   5.331   2.601   0.468 -0.9908 -0.7214 -0.3289
 9974TIP3    H229880   5.255   2.511   0.372 -1.6543  0.6261 -1.1123
 9975TIP3   OH229881   2.048   1.138   6.306 -0.1574 -0.3342 -0.0142
 9975TIP3    H129882   2.086   1.221   6.336  1.2916 -0.6814 -0.8141
 9975TIP3    H229883   1.954   1.146   6.326  0.0399  1.2730  0.3990
 9976TIP3   OH229884   5.712   1.367   2.094  0.4433 -0.3016 -0.1775
 9976TIP3    H129885   5.763   1.287   2.084  0.3781 -0.8907  3.1370
 9976TIP3    H229886   5.621   1.338   2.099  0.0453  0.3909 -2.4209
 9977TIP3   OH229887   3.718   4.492   3.848  0.3843 -0.3761 -0.1034
 9977TIP3    H129888   3.754   4.466   3.933 -0.9823 -1.1680  0.2742
 9977TIP3    H229889   3.693   4.584   3.860  1.3940 -0.1012 -0.0752
 9978TIP3   OH229890   1.686   6.800   0.087  0.3088  0.0205  0.4265
 9978TIP3    H129891   1.598   6.830   0.062 -0.6785 -1.4533  1.9345
 9978TIP3    H229892   1.704   6.846   0.169 -0.5392 -2.1551  1.9096
 9979TIP3   OH229893   1.192   3.209   3.107 -0.1072  0.3926 -0.3403
 9979TIP3    H129894   1.221   3.300   3.118  0.2597  0.1708  0.6904
 9979TIP3    H229895   1.260   3.169   3.053 -0.1352  0.6660 -0.5830
 9980TIP3   OH229896   2.680   4.761   6.305  0.5522 -0.0591 -0.1291
 9980TIP3    H129897   2.677   4.737   6.212  1.6763 -0.6903 -0.0167
 9980TIP3    H229898   2.589   4.754   6.334 -0.0817  1.6376 -1.5190
 9981TIP3   OH229899   4.312   5.221   6.210 -0.3028 -0.6157  0.3545
 9981TIP3    H129900   4.239   5.231   6.149 -1.6377 -1.0354  1.8180
 9981TIP3    H229901   4.273   5.183   6.288  1.3956 -0.3071  1.4026
 9982TIP3   OH229902   7.881   4.998   0.992 -0.5252 -0.0719  0.1293
 9982TIP3    H129903   7.825   4.965   1.063  0.3185  1.9705  1.8758
 9982TIP3    H229904   7.938   5.062   1.035  0.7135  0.5291 -2.2502
 9983TIP3   OH229905   1.654   0.952   3.486  0.0986  0.0663 -0.2856
 9983TIP3    H129906   1.577   0.962   3.541  1.5338 -1.0568  2.0715
 9983TIP3    H229907   1.631   0.883   3.424 -0.2662 -1.4812  1.4927
 9984TIP3   OH229908   4.747   3.160   2.827  0.5727 -0.0023 -0.3259
 9984TIP3    H129909   4.664   3.208   2.829 -0.7161 -2.1516  0.1234
 9984TIP3    H229910   4.744   3.103   2.903  0.6784 -2.8981 -2.3317
 9985TIP3   OH229911   1.287   7.751   1.007 -0.0878 -0.5157  0.1941
 9985TIP3    H129912   1.295   7.776   0.915  1.5194 -0.9583  0.1951
 9985TIP3    H229913   1.196   7.723   1.016 -0.0545 -1.2425 -1.4528
 9986TIP3   OH229914   5.921   6.659   1.575  0.1849  0.4565  0.6983
 9986TIP3    H129915   5.832   6.624   1.569  0.1147  0.5837  0.9797
 9986TIP3    H229916   5.973   6.586   1.607  0.1858  0.3791  0.5249
 9987TIP3   OH229917   7.070   4.020   4.929 -0.0159  0.1490  0.1945
 9987TIP3    H129918   7.055   4.114   4.918 -1.7253  0.0044  1.0552
 9987TIP3    H229919   7.158   4.006   4.892 -0.3579  1.7888 -1.4309
 9988TIP3   OH229920   6.195   2.397   2.908 -0.2639 -0.5598  0.1010
 9988TIP3    H129921   6.125   2.388   2.843 -0.0290 -1.2693 -0.0646
 9988TIP3    H229922   6.236   2.310   2.910  0.0033 -0.4208  0.8850
 9989TIP3   OH229923   6.386   6.151   3.781 -0.3250  0.0347 -0.7142
 9989TIP3    H129924   6.353   6.086   3.720 -1.4516  1.0723 -1.2382
 9989TIP3    H229925   6.313   6.210   3.796  0.6583  1.1774 -0.2414
 9990TIP3   OH229926   0.750   5.386   1.344  0.0783 -0.5665  0.1756
 9990TIP3    H129927   0.827   5.381   1.288 -0.3339  1.4604 -0.6743
 9990TIP3    H229928   0.676   5.379   1.284 -0.3878 -0.3280  0.7131
 9991TIP3   OH229929   2.372   2.410   3.863  0.0747 -0.5690 -0.2990
 9991TIP3    H129930   2.412   2.367   3.939 -1.2301  0.6432  1.1270
 9991TIP3    H229931   2.281   2.382   3.865 -0.1561  0.1207 -0.9582
 9992TIP3   OH229932   4.593   3.446   3.643 -0.0514 -0.1597  1.0635
 9992TIP3    H129933   4.681   3.438   3.679  0.1297  0.8240  0.8593
 9992TIP3    H229934   4.550   3.510   3.699  0.4778  1.9988 -0.8597
 9993TIP3   OH229935   2.224   0.198   3.413 -0.1009  0.0206 -0.1388
 9993TIP3    H129936   2.138   0.156   3.418  0.2343 -0.5259  1.3699
 9993TIP3    H229937   2.209   0.277   3.361 -1.0473 -1.1645 -1.7751
 9994TIP3   OH229938   1.081   2.328   3.732  0.0097 -0.4454 -0.2927
 9994TIP3    H129939   1.167   2.369   3.738 -0.1915 -0.2542  2.0792
 9994TIP3    H229940   1.086   2.251   3.788 -1.7109  0.3011  0.9870
 9995TIP3   OH229941   4.571   2.288   3.436  0.2646 -0.5286 -0.3721
 9995TIP3    H129942   4.607   2.376   3.451  0.0262 -0.4954  0.0458
 9995TIP3    H229943   4.495   2.284   3.494 -1.1121 -0.1729 -2.0557
 9996TIP3   OH229944   6.826   2.379   3.318  0.3473 -0.0118 -0.2613
 9996TIP3    H129945   6.758   2.359   3.254  0.6720 -1.1635 -0.2525
 9996TIP3    H229946   6.908   2.373   3.269  0.4648  1.7236 -0.3632
 9997TIP3   OH229947   6.675   0.957   4.324  0.0429 -0.2681  0.1336
 9997TIP3    H129948   6.642   0.872   4.295  0.9986 -0.2692 -1.0426
 9997TIP3    H229949   6.605   1.018   4.304  1.2750  0.0745 -4.2586
 9998TIP3   OH229950   2.405   6.124   2.401  0.0261  0.4246  0.2953
 9998TIP3    H129951   2.395   6.150   2.309 -0.2461 -1.3477 -0.2182
 9998TIP3    H229952   2.317   6.132   2.438 -1.0360 -3.3741 -0.9404
 9999TIP3   OH229953   7.461   4.350   4.372  0.0099 -0.2501  0.7573
 9999TIP3    H129954   7.414   4.399   4.305 -2.0164 -1.0022  1.5412
 9999TIP3    H229955   7.531   4.409   4.401  1.2145 -0.0593 -2.2240
10000TIP3   OH229956   0.753   2.025   1.024 -0.3945  0.1887  0.4869
10000TIP3    H129957   0.699   1.949   1.047  0.6471 -0.8614 -0.3315
10000TIP3    H229958   0.755   2.078   1.103 -2.4532  0.1915  0.5988
10001TIP3   OH229959   0.230   0.004   2.839 -0.1040 -0.1692 -0.1606
10001TIP3    H129960   0.164   0.041   2.898  0.6413  0.5881  0.2146
10001TIP3    H229961   0.183  -0.011   2.757 -0.8745 -0.1431  0.2639
10002TIP3   OH229962   1.798   1.624   5.613 -0.4649 -0.0683  0.1300
10002TIP3    H129963   1.883   1.585   5.593  0.1552 -0.1392  2.5281
10002TIP3    H229964   1.793   1.701   5.557  1.3048  0.0807  0.1123
10003TIP3   OH229965   6.732   2.337   3.824 -0.2182 -0.9421 -0.4168
10003TIP3    H129966   6.658   2.387   3.788 -0.5015 -0.2787  1.0249
10003TIP3    H229967   6.806   2.397   3.818 -0.8524  0.3311  2.6621
10004TIP3   OH229968   8.287   2.935   3.689  0.2313  0.4133  0.0036
10004TIP3    H129969   8.237   2.908   3.613  0.3531  0.9517 -0.2718
10004TIP3    H229970   8.297   2.855   3.741  0.0219  0.0785 -0.4677
10005TIP3   OH229971   7.523   4.418   5.178 -0.1373  0.7973 -0.2220
10005TIP3    H129972   7.437   4.385   5.152 -0.2525  0.3554  0.6676
10005TIP3    H229973   7.562   4.347   5.229  0.8397  0.9219 -0.7678
10006TIP3   OH229974   6.764   5.065   5.796 -0.8368 -0.3614  0.4324
10006TIP3    H129975   6.836   5.003   5.807  0.0778  0.9050  1.9910
10006TIP3    H229976   6.690   5.011   5.770  0.5870 -1.7435 -0.9606
10007TIP3   OH229977   3.260   0.818   5.258 -0.4915  0.3153  0.1690
10007TIP3    H129978   3.235   0.801   5.349  1.0098  1.6162  0.8750
10007TIP3    H229979   3.329   0.754   5.239 -1.2522 -0.3868 -0.3016
10008TIP3   OH229980   1.503   1.099   1.758  0.2196 -0.0553 -0.1322
10008TIP3    H129981   1.527   1.092   1.665 -0.0624 -0.5850 -0.1677
10008TIP3    H229982   1.583   1.073   1.805  1.2875  2.8117 -0.1497
10009TIP3   OH229983   4.557   4.139   2.808  0.2343  0.3666  0.0843
10009TIP3    H129984   4.496   4.209   2.831 -0.4428  0.1138 -0.8798
10009TIP3    H229985   4.605   4.173   2.732 -0.4239 -0.3645 -0.6896
10010TIP3   OH229986   6.942   0.741   0.696  0.0199  0.1964 -0.4465
10010TIP3    H129987   6.876   0.796   0.739 -0.2673 -0.7045  0.2973
10010TIP3    H229988   7.022   0.758   0.745  0.1799  0.7412 -0.8886
10011TIP3   OH229989   6.504   5.970   4.611 -0.2666  0.7089 -0.4944
10011TIP3    H129990   6.524   6.044   4.553  0.4059  2.2977  1.6338
10011TIP3    H229991   6.522   6.003   4.699 -0.3148 -1.8977  0.5832
10012TIP3   OH229992   6.859   7.789   3.669  0.1468 -0.3505 -0.0550
10012TIP3    H129993   6.813   7.717   3.712 -0.7216 -1.0083 -1.9695
10012TIP3    H229994   6.894   7.751   3.588  0.5786  1.1195 -0.6001
10013TIP3   OH229995   2.404   3.333   6.511 -0.0459 -0.0629 -0.3933
10013TIP3    H129996   2.467   3.381   6.565  0.1271  0.1742 -0.7950
10013TIP3    H229997   2.456   3.303   6.435  0.1126 -1.8241  0.3555
10014TIP3   OH229998   3.799   2.743   3.113 -0.1117 -0.2986  0.0077
10014TIP3    H129999   3.819   2.763   3.204 -0.7344 -3.3297  0.9052
10014TIP3    H230000   3.704   2.750   3.107 -0.0299  0.4874 -0.6136
10015TIP3   OH230001   6.017   1.128   6.727 -0.1975  0.1264 -0.1402
10015TIP3    H130002   6.012   1.166   6.815  0.0537  1.4510 -0.6792
10015TIP3    H230003   5.926   1.125   6.697 -0.3033 -0.4963  0.2145
10016TIP3   OH230004   6.804   1.390   4.501 -0.1280  0.3844 -0.5834
10016TIP3    H130005   6.850   1.314   4.536  0.9827  1.3814  0.2134
10016TIP3    H230006   6.849   1.410   4.419  0.3034  0.8373 -0.2397
10017TIP3   OH230007   1.870   3.493   6.063  0.2854 -0.0664 -0.0504
10017TIP3    H130008   1.850   3.446   5.982  0.8412 -2.2057  0.9797
10017TIP3    H230009   1.790   3.540   6.084 -0.1215 -0.0997 -1.4352
10018TIP3   OH230010   2.717   3.943   3.733  0.1817 -0.5510 -0.3056
10018TIP3    H130011   2.731   3.955   3.827  0.7664  0.1981 -0.4774
10018TIP3    H230012   2.748   3.854   3.716  1.6715 -0.0920 -0.0811
10019TIP3   OH230013   5.827   6.255   5.069  0.4246  0.2969  0.3555
10019TIP3    H130014   5.782   6.208   4.998  1.9496 -0.7236 -0.0052
10019TIP3    H230015   5.830   6.192   5.141  0.0688  0.8528  0.8657
10020TIP3   OH230016   6.972   4.902   5.845 -0.1979 -0.6705 -0.1433
10020TIP3    H130017   7.061   4.868   5.836 -0.4410 -1.7707  1.2221
10020TIP3    H230018   6.917   4.823   5.855 -1.3719 -0.0263 -1.2468
10021TIP3   OH230019   6.734   4.130   2.025 -0.1442 -0.0900 -0.2694
10021TIP3    H130020   6.789   4.055   2.001 -1.3292 -0.8878 -0.5961
10021TIP3    H230021   6.779   4.206   1.989  1.9920 -0.3867  1.5365
10022TIP3   OH230022   2.770   5.313   1.141 -0.2781 -0.0965  0.0530
10022TIP3    H130023   2.824   5.250   1.188 -0.2088  0.1082  0.2454
10022TIP3    H230024   2.680   5.284   1.157 -0.2130 -1.6211 -1.8709
10023TIP3   OH230025   2.979   5.258   4.165  0.2338  0.1951 -0.1075
10023TIP3    H130026   3.034   5.180   4.156 -0.6123 -0.3604 -0.5554
10023TIP3    H230027   2.997   5.310   4.087 -0.5738 -0.4421 -0.7309
10024TIP3   OH230028   6.278   6.539   2.835 -0.0394 -0.0112  0.0219
10024TIP3    H130029   6.303   6.467   2.777 -1.1022 -0.9442  0.6920
10024TIP3    H230030   6.208   6.503   2.890  0.7293  0.9270  1.7008
10025TIP3   OH230031   2.208   3.428   0.179 -0.0286  0.2601  0.4243
10025TIP3    H130032   2.181   3.455   0.091  1.3062  0.3289  0.0058
10025TIP3    H230033   2.301   3.453   0.184 -0.0893  0.2874  1.8677
10026TIP3   OH230034   1.237   2.593   2.646 -0.0164  0.0858 -0.4634
10026TIP3    H130035   1.328   2.564   2.636 -0.0693 -1.4837  2.4227
10026TIP3    H230036   1.238   2.684   2.618  2.3164 -0.0454 -1.0538
10027TIP3   OH230037   1.824   7.403   0.856 -0.0588  0.4237  0.5003
10027TIP3    H130038   1.734   7.388   0.887 -0.5872  0.1795 -1.0957
10027TIP3    H230039   1.875   7.413   0.937 -1.6927  1.6748  1.4429
10028TIP3   OH230040   5.938   7.174   3.182 -0.2693  0.0119  0.1827
10028TIP3    H130041   5.972   7.158   3.094 -1.6196  0.6862 -0.4888
10028TIP3    H230042   5.978   7.257   3.208 -1.0739  0.6238 -0.4632
10029TIP3   OH230043   0.735   0.583   3.644 -0.1368  0.1408  0.1408
10029TIP3    H130044   0.752   0.651   3.709  2.5263 -0.6739  0.3993
10029TIP3    H230045   0.746   0.627   3.560 -0.4838  0.4857  0.2724
10030TIP3   OH230046   4.048   6.204   1.670 -0.1473  0.4696 -0.0052
10030TIP3    H130047   4.012   6.184   1.584  0.5752  0.6838 -0.3612
10030TIP3    H230048   4.127   6.152   1.677 -1.2754 -1.1692  1.3936
10031TIP3   OH230049   1.729   1.107   2.455 -0.4990  0.6549 -0.0749
10031TIP3    H130050   1.809   1.114   2.507 -0.7706  1.3243  0.2580
10031TIP3    H230051   1.664   1.072   2.516 -0.1590 -1.1304 -0.6754
10032TIP3   OH230052   0.194   0.886   0.706 -0.1023 -0.5715 -0.1450
10032TIP3    H130053   0.171   0.926   0.622  1.7093  1.9648  0.4478
10032TIP3    H230054   0.216   0.796   0.684 -2.4351 -0.8134 -1.8880
10033TIP3   OH230055   0.571   0.413   1.142  0.0371  0.1980  0.0392
10033TIP3    H130056   0.544   0.340   1.086 -1.5664  1.2690 -0.6454
10033TIP3    H230057   0.507   0.413   1.214  0.6266  0.3407  0.5759
10034TIP3   OH230058   2.375   6.692   6.305 -0.5156  0.1700  0.2767
10034TIP3    H130059   2.349   6.780   6.331 -1.7075 -0.1419  0.1890
10034TIP3    H230060   2.452   6.673   6.359  0.0745  1.4585 -0.0962
10035TIP3   OH230061   2.074   0.279   1.909 -0.5939 -0.7185  0.7106
10035TIP3    H130062   2.100   0.359   1.955 -3.5744  0.8149 -0.0282
10035TIP3    H230063   2.065   0.213   1.978  1.1084 -0.2385  1.4358
10036TIP3   OH230064   2.851   6.423   6.397  0.3013 -0.4327 -0.3592
10036TIP3    H130065   2.862   6.335   6.361  0.9406 -0.3239 -0.4394
10036TIP3    H230066   2.939   6.460   6.400  0.1124  0.0054  0.1955
10037TIP3   OH230067   2.340   4.106   3.610  0.4360 -0.4418  0.6617
10037TIP3    H130068   2.310   4.139   3.525  2.5476 -0.1562 -0.0439
10037TIP3    H230069   2.354   4.013   3.596 -3.0168 -1.2879  1.9154
10038TIP3   OH230070   4.983   4.924   3.559 -0.0781  0.3687  0.7062
10038TIP3    H130071   5.012   4.862   3.491 -2.1815  1.2051 -1.0804
10038TIP3    H230072   5.015   4.886   3.641 -0.3440 -2.5240 -0.3998
10039TIP3   OH230073   6.021   2.121   2.312  0.6730  0.0132 -0.4656
10039TIP3    H130074   6.104   2.103   2.356  0.5347  2.6696  1.1068
10039TIP3    H230075   6.028   2.212   2.283 -1.0612 -0.2316 -1.8155
10040TIP3   OH230076   3.463   2.188   0.345 -0.2857 -0.4988 -0.7163
10040TIP3    H130077   3.399   2.204   0.415  0.5602  0.2937 -0.0982
10040TIP3    H230078   3.442   2.251   0.277  0.4403  0.4712 -0.0751
10041TIP3   OH230079   6.668   2.780   5.633  0.4790  0.4018 -0.5820
10041TIP3    H130080   6.746   2.734   5.662  1.6193  2.2406 -0.5688
10041TIP3    H230081   6.684   2.800   5.541  1.2351  2.9699  0.0199
10042TIP3   OH230082   7.037   5.213   2.313 -0.2458  0.8617 -0.3627
10042TIP3    H130083   7.093   5.183   2.384  0.9092  1.5431 -0.9608
10042TIP3    H230084   6.948   5.198   2.345  0.2133 -2.2516 -0.2351
10043TIP3   OH230085   7.803   7.490   0.044 -0.0805 -0.1389 -0.5221
10043TIP3    H130086   7.848   7.416   0.002 -0.0936 -1.0259  0.9584
10043TIP3    H230087   7.810   7.472   0.137 -0.1161  1.7381 -0.1212
10044TIP3   OH230088   5.247   1.684   2.172 -0.2932 -0.2117  0.3856
10044TIP3    H130089   5.155   1.670   2.149 -0.5236  0.3806  0.8919
10044TIP3    H230090   5.291   1.699   2.089  0.1376 -4.3334 -0.3359
10045TIP3   OH230091   3.914   1.325   5.662 -0.4090  0.0006  0.3296
10045TIP3    H130092   3.902   1.243   5.709 -0.3114  0.3310  0.9399
10045TIP3    H230093   4.004   1.322   5.630  0.0012  0.3759  1.3799
10046TIP3   OH230094   5.118   7.288   0.406  0.4061 -0.2729 -0.4771
10046TIP3    H130095   5.201   7.335   0.408  0.7003 -0.7852 -0.2853
10046TIP3    H230096   5.074   7.320   0.327  0.3979  0.6415 -0.1131
10047TIP3   OH230097   1.703   4.357   5.649 -0.2439 -0.5246 -0.1230
10047TIP3    H130098   1.784   4.354   5.598 -1.3876 -1.0789 -1.9977
10047TIP3    H230099   1.679   4.266   5.663 -0.7797 -0.3640  0.0439
10048TIP3   OH230100   6.060   1.104   4.966  0.2174 -0.5344 -0.3551
10048TIP3    H130101   6.134   1.094   4.906  0.6111  0.3045 -0.0401
10048TIP3    H230102   6.034   1.196   4.956  0.3329 -0.3599  0.7763
10049TIP3   OH230103   1.384   5.794   4.117  0.3065  0.0596 -0.2177
10049TIP3    H130104   1.439   5.871   4.129  1.5600 -0.2355 -3.0973
10049TIP3    H230105   1.296   5.830   4.104  0.6769  0.9269 -0.4177
10050TIP3   OH230106   3.907   3.966   0.796 -0.5219 -0.5252  0.3351
10050TIP3    H130107   3.981   4.002   0.748  0.3279 -3.1265 -0.4939
10050TIP3    H230108   3.897   4.024   0.872  1.7928  0.4280  0.0035
10051TIP3   OH230109   7.981   7.513   1.463  0.0471  0.2715  0.0051
10051TIP3    H130110   8.043   7.581   1.437 -0.1878 -0.0610 -1.5540
10051TIP3    H230111   7.990   7.445   1.396 -0.2674 -0.9020  1.1064
10052TIP3   OH230112   7.937   2.657   1.854  0.5271  0.0884  0.3117
10052TIP3    H130113   7.871   2.658   1.785  0.2924 -0.3652  0.5265
10052TIP3    H230114   7.995   2.731   1.834  0.1565  0.2728 -0.0714
10053TIP3   OH230115   0.857   3.370   2.632 -0.0169 -0.2193  0.8471
10053TIP3    H130116   0.898   3.316   2.564 -2.6263 -2.7476  1.0881
10053TIP3    H230117   0.851   3.458   2.593  0.7210 -1.0380 -1.2275
10054TIP3   OH230118   0.894   3.347   4.232  0.1625 -0.5794 -0.1013
10054TIP3    H130119   0.871   3.259   4.263  0.8313 -0.5797  0.4158
10054TIP3    H230120   0.971   3.371   4.283  0.5507 -0.0693 -0.9180
10055TIP3   OH230121   6.723   3.287   2.579 -0.1787  0.1304 -0.5549
10055TIP3    H130122   6.660   3.231   2.535  0.4489 -0.2003 -1.0486
10055TIP3    H230123   6.807   3.266   2.538  0.0955  1.3088 -0.6315
10056TIP3   OH230124   1.191   0.415   2.685 -0.6272 -0.4823  0.1763
10056TIP3    H130125   1.130   0.404   2.758 -0.3559 -0.7838  0.3608
10056TIP3    H230126   1.165   0.349   2.622 -0.1507 -0.9797  0.4923
10057TIP3   OH230127   7.638   6.478   5.239 -0.4665 -0.8056  0.2102
10057TIP3    H130128   7.615   6.570   5.223  2.6438  0.3111  1.2879
10057TIP3    H230129   7.591   6.429   5.172 -1.6845  1.6420 -0.8518
10058TIP3   OH230130   5.261   6.826   4.302  0.1280  0.9540 -0.5845
10058TIP3    H130131   5.348   6.851   4.273 -0.3634  1.9050 -1.2844
10058TIP3    H230132   5.256   6.857   4.393  0.2237  1.6456 -0.8144
10059TIP3   OH230133   4.157   5.402   1.418  0.0256  0.0356  0.1057
10059TIP3    H130134   4.167   5.438   1.506  0.0783 -1.6515  0.8205
10059TIP3    H230135   4.145   5.479   1.362  0.5117  1.1666  1.4988
10060TIP3   OH230136   2.681   0.363   6.083  0.1167 -0.4482  0.0986
10060TIP3    H130137   2.733   0.417   6.023  0.0736 -0.1403  0.3309
10060TIP3    H230138   2.691   0.274   6.051  0.1269 -0.2920 -0.3412
10061TIP3   OH230139   0.512   5.466   6.595  0.0310  0.4189 -0.4793
10061TIP3    H130140   0.460   5.392   6.565 -1.1534  1.5378 -1.2865
10061TIP3    H230141   0.596   5.457   6.550 -0.3762 -0.0193 -1.1628
10062TIP3   OH230142   4.935   4.007   1.960  0.4901  0.6333 -0.4619
10062TIP3    H130143   5.004   4.056   2.003  1.2378  0.7376 -1.7195
10062TIP3    H230144   4.874   3.984   2.030  1.8340  0.4553  0.6852
10063TIP3   OH230145   6.637   3.096   0.379  0.0770 -0.6457  0.0479
10063TIP3    H130146   6.551   3.055   0.379 -0.9550  1.4160  0.3305
10063TIP3    H230147   6.621   3.186   0.352  1.5888  0.8542  3.6465
10064TIP3   OH230148   1.850   1.670   1.321 -0.2785  0.8126  0.4112
10064TIP3    H130149   1.825   1.739   1.260 -0.6149  0.8000  0.5328
10064TIP3    H230150   1.861   1.592   1.265 -0.2570  0.8777  0.3243
10065TIP3   OH230151   8.159   3.692   5.856  0.4507 -0.0588  0.0938
10065TIP3    H130152   8.222   3.750   5.899 -0.0332 -0.1663  0.9694
10065TIP3    H230153   8.081   3.746   5.846 -0.5162 -0.9489  2.2729
10066TIP3   OH230154   2.621   7.136   0.313 -0.9532 -0.2007 -0.6354
10066TIP3    H130155   2.624   7.168   0.403  1.5779  1.4976 -1.2427
10066TIP3    H230156   2.562   7.197   0.268 -2.4747 -1.2377 -0.1279
10067TIP3   OH230157   1.112   6.362   5.507  0.1119 -0.3705  0.4645
10067TIP3    H130158   1.041   6.312   5.547 -0.2265  0.2580  0.6622
10067TIP3    H230159   1.180   6.366   5.574  0.5391 -1.3818  0.1055
10068TIP3   OH230160   3.367   4.035   0.475  0.1426  0.2758 -0.2201
10068TIP3    H130161   3.275   4.056   0.495  0.1313  0.7322 -0.7245
10068TIP3    H230162   3.413   4.049   0.558 -0.1251  0.7948 -0.1526
10069TIP3   OH230163   6.378   5.861   6.612  0.2739  0.2252 -0.0321
10069TIP3    H130164   6.365   5.889   6.521 -1.3872  0.0537  0.1309
10069TIP3    H230165   6.388   5.942   6.662  0.3516  0.3448 -0.2405
10070TIP3   OH230166   6.784   1.506   1.748 -0.2184 -0.1272  0.4698
10070TIP3    H130167   6.838   1.586   1.750 -1.4664  0.7559  2.8361
10070TIP3    H230168   6.764   1.494   1.656  0.6715  1.8437 -0.0493
10071TIP3   OH230169   2.145   6.834   3.659  0.1143 -0.1960 -0.6744
10071TIP3    H130170   2.099   6.752   3.644  0.2983 -0.3601 -0.3361
10071TIP3    H230171   2.151   6.874   3.572 -0.0919 -0.4758 -0.8181
10072TIP3   OH230172   1.669   6.812   2.624  0.2540  1.0967  0.1088
10072TIP3    H130173   1.656   6.719   2.640  1.4081  0.7037 -1.0393
10072TIP3    H230174   1.681   6.850   2.711 -2.5457  0.6087  0.7886
10073TIP3   OH230175   5.837   0.168   3.709 -0.1377  1.0239  0.0887
10073TIP3    H130176   5.881   0.111   3.646  1.7352  1.0349  1.2813
10073TIP3    H230177   5.766   0.115   3.744  0.1459  0.2453 -0.4838
10074TIP3   OH230178   0.302   3.383   2.549 -0.0771 -0.4730  0.4938
10074TIP3    H130179   0.397   3.393   2.543 -0.2633  2.9199  1.1040
10074TIP3    H230180   0.288   3.337   2.632  1.0409 -0.2174  0.8472
10075TIP3   OH230181   6.850   2.110   5.050  0.7009 -0.2383  0.2906
10075TIP3    H130182   6.929   2.079   5.093  0.4544 -1.1206  0.1273
10075TIP3    H230183   6.789   2.128   5.122  1.5768  2.0799  0.5357
10076TIP3   OH230184   1.066   4.771   0.120 -0.3695 -0.0672  0.3026
10076TIP3    H130185   1.114   4.688   0.122  0.6854  0.5238  0.6314
10076TIP3    H230186   0.996   4.757   0.057  2.6585  0.2908 -3.5092
10077TIP3   OH230187   4.691   0.142   3.482 -0.3914 -0.0606 -0.9588
10077TIP3    H130188   4.657   0.231   3.495  1.7732  0.5139  1.7683
10077TIP3    H230189   4.781   0.154   3.452  0.0270 -1.2738 -0.2792
10078TIP3   OH230190   6.674   6.695   2.158  0.4338 -0.3674  0.0559
10078TIP3    H130191   6.722   6.675   2.238 -1.4122 -1.6478  0.9243
10078TIP3    H230192   6.741   6.723   2.095  1.9268  0.8076  2.0520
10079TIP3   OH230193   1.044   0.374   5.329  0.1124 -0.4373 -0.4943
10079TIP3    H130194   1.117   0.410   5.278 -0.6054  1.9786  0.0539
10079TIP3    H230195   1.014   0.298   5.279  1.1603  0.2403 -2.2252
10080TIP3   OH230196   3.032   5.421   5.161  0.5524 -0.0730 -0.1834
10080TIP3    H130197   3.080   5.432   5.243  3.4540  0.5668 -1.8433
10080TIP3    H230198   3.061   5.336   5.128  0.3558  0.2277 -1.1390
10081TIP3   OH230199   6.013   2.387   2.718  0.0480 -0.0309  0.3987
10081TIP3    H130200   6.026   2.475   2.682  0.7689 -0.6610 -0.9882
10081TIP3    H230201   5.983   2.336   2.643  2.7882 -1.6878  0.3142
10082TIP3   OH230202   2.122   5.709   5.151  0.1168  0.9457 -0.1037
10082TIP3    H130203   2.045   5.672   5.108 -0.1337 -0.2491  1.3001
10082TIP3    H230204   2.092   5.793   5.186 -1.2403 -0.3818  2.2028
10083TIP3   OH230205   5.939   0.919   3.521 -0.1678 -0.3403 -0.1197
10083TIP3    H130206   5.923   0.983   3.590 -0.7248 -0.7194  0.1048
10083TIP3    H230207   6.034   0.903   3.525 -0.0011  0.5604 -0.2685
10084TIP3   OH230208   7.395   1.519   5.241 -0.2287 -0.3545 -0.4688
10084TIP3    H130209   7.395   1.482   5.330  1.3695 -1.1307 -0.7494
10084TIP3    H230210   7.402   1.442   5.184 -0.7682  0.1682 -1.2472
10085TIP3   OH230211   6.205   2.524   5.617 -0.0759 -0.5353 -0.4502
10085TIP3    H130212   6.132   2.488   5.668 -0.3863  0.3566 -0.2448
10085TIP3    H230213   6.283   2.497   5.665 -0.3355 -0.3698  0.0750
10086TIP3   OH230214   4.855   6.159   2.535 -0.1140 -0.4090 -0.2533
10086TIP3    H130215   4.807   6.233   2.499 -0.8865 -0.5327  0.4915
10086TIP3    H230216   4.946   6.188   2.540 -0.3649  0.3763 -0.2549
10087TIP3   OH230217   7.593   0.317   3.677 -0.1144  0.1243 -0.2260
10087TIP3    H130218   7.603   0.365   3.759 -0.3961  1.2816 -0.8354
10087TIP3    H230219   7.642   0.236   3.690  1.0726  0.9314  0.5729
10088TIP3   OH230220   4.097   0.986   3.538 -0.2136  0.2035 -0.1070
10088TIP3    H130221   4.113   0.939   3.620  1.2690  1.2607  0.2527
10088TIP3    H230222   4.042   0.927   3.487 -2.4843  0.0947  2.1991
10089TIP3   OH230223   1.863   6.361   0.817 -0.2523 -0.1930  0.5399
10089TIP3    H130224   1.796   6.313   0.866  0.8787 -1.3875  0.9722
10089TIP3    H230225   1.904   6.419   0.882  0.7399 -1.2283  0.8618
10090TIP3   OH230226   7.403   1.313   5.077 -0.1369  0.1137  0.4297
10090TIP3    H130227   7.479   1.328   5.021 -0.2450 -0.3021  0.1637
10090TIP3    H230228   7.376   1.223   5.057 -1.0460  0.4480  0.0982
10091TIP3   OH230229   2.467   5.472   6.258 -0.2208  0.6321 -0.2637
10091TIP3    H130230   2.471   5.378   6.273 -2.5681 -0.1031 -3.3274
10091TIP3    H230231   2.396   5.502   6.315  1.7669  1.0727  2.2002
10092TIP3   OH230232   1.231   5.413   3.028  0.0366  0.6979  0.0645
10092TIP3    H130233   1.273   5.494   3.002  1.8392 -0.0557  0.5108
10092TIP3    H230234   1.275   5.345   2.977  0.0558 -0.2220  1.2655
10093TIP3   OH230235   5.633   0.911   3.893  0.1546  0.0839  0.4895
10093TIP3    H130236   5.598   0.938   3.978 -0.6445  0.3466  0.0896
10093TIP3    H230237   5.728   0.916   3.904  0.0562  1.6823  0.8772
10094TIP3   OH230238   2.639   3.614   1.236  0.8431 -0.4986  0.4337
10094TIP3    H130239   2.677   3.663   1.164 -0.8436  0.4435  0.1286
10094TIP3    H230240   2.550   3.594   1.208  0.3810 -0.7417  1.9414
10095TIP3   OH230241   2.049   4.138   1.993  0.1794  0.1609  0.4230
10095TIP3    H130242   2.080   4.051   2.017  0.3311  0.5827  1.8685
10095TIP3    H230243   1.968   4.150   2.043 -0.1772  0.6200 -0.2350
10096TIP3   OH230244   3.579   4.302   1.679 -0.8140 -0.2117 -0.4433
10096TIP3    H130245   3.562   4.379   1.625  3.1748  0.8117 -0.5782
10096TIP3    H230246   3.597   4.337   1.766 -1.2480 -1.2544  0.0836
10097TIP3   OH230247   5.057   1.586   2.966 -0.2647  0.4129 -0.0750
10097TIP3    H130248   5.142   1.550   2.939 -1.4830 -0.8340 -2.6776
10097TIP3    H230249   5.004   1.508   2.985 -1.1744  1.1096  0.2833
10098TIP3   OH230250   4.273   3.035   4.608 -0.0884  0.0805 -0.7998
10098TIP3    H130251   4.290   3.046   4.515  1.2504  1.9394 -0.4160
10098TIP3    H230252   4.307   3.116   4.648  0.6796 -1.2360  1.4354
10099TIP3   OH230253   2.262   2.215   4.958 -0.1767 -0.3953 -0.3179
10099TIP3    H130254   2.276   2.268   4.879 -0.0617 -2.1362 -1.5172
10099TIP3    H230255   2.286   2.126   4.932 -2.5394 -1.4949  0.9221
10100TIP3   OH230256   5.796   7.236   1.734  1.0356  0.1443 -0.3742
10100TIP3    H130257   5.891   7.234   1.726  1.3551  3.0533  1.0998
10100TIP3    H230258   5.771   7.147   1.758  3.1936 -0.9675 -1.9408
10101TIP3   OH230259   2.851   4.964   3.326  0.4334 -0.6037  0.1275
10101TIP3    H130260   2.769   4.979   3.280 -0.5525 -2.6504  1.0551
10101TIP3    H230261   2.837   5.001   3.413  0.5025 -0.8892  0.2630
10102TIP3   OH230262   3.744   6.233   5.680 -0.1537  0.2032  0.2394
10102TIP3    H130263   3.661   6.269   5.652 -0.8856 -1.5810 -0.0349
10102TIP3    H230264   3.756   6.264   5.770 -0.8757  0.8345  0.1198
10103TIP3   OH230265   4.685   2.224   6.251 -0.2609  0.7139 -0.5013
10103TIP3    H130266   4.677   2.199   6.343 -2.6884  1.2163 -0.5277
10103TIP3    H230267   4.772   2.265   6.246  0.6260 -0.7965  1.1624
10104TIP3   OH230268   4.189   0.439   2.466  0.2182  0.1211 -0.2575
10104TIP3    H130269   4.113   0.397   2.506 -0.8984  1.0493 -1.3506
10104TIP3    H230270   4.233   0.368   2.418  1.6705 -1.0635  2.5706
10105TIP3   OH230271   8.254   7.150   0.617 -0.1201  0.0569  0.0249
10105TIP3    H130272   8.193   7.218   0.645 -0.2871  0.0804 -0.3822
10105TIP3    H230273   8.207   7.068   0.633  0.0853  0.0382  0.5252
10106TIP3   OH230274   1.367   1.930   4.540  0.0842 -0.5099  0.1691
10106TIP3    H130275   1.440   1.992   4.543 -0.3127 -0.0565  0.7586
10106TIP3    H230276   1.292   1.980   4.572 -0.7626 -0.6069 -1.5276
10107TIP3   OH230277   7.856   5.280   5.809  0.3287  0.0310  0.0332
10107TIP3    H130278   7.843   5.190   5.780 -1.7385  0.4115 -0.3248
10107TIP3    H230279   7.940   5.306   5.770  0.2105 -1.2339 -1.1110
10108TIP3   OH230280   7.290   3.481   2.857 -0.4864 -0.6994  0.5324
10108TIP3    H130281   7.289   3.407   2.796  1.4910  0.0561 -0.5151
10108TIP3    H230282   7.378   3.482   2.893 -0.0609  1.7829 -0.3703
10109TIP3   OH230283   7.228   7.216   5.360 -0.1305 -0.0415 -0.4272
10109TIP3    H130284   7.298   7.151   5.354  0.9717  0.9450  1.1003
10109TIP3    H230285   7.165   7.179   5.421  0.0854 -0.0314 -0.1997
10110TIP3   OH230286   4.174   4.102   5.686 -0.2163  0.0238  0.0663
10110TIP3    H130287   4.117   4.042   5.735  1.4619 -1.1693  0.6346
10110TIP3    H230288   4.178   4.064   5.598  1.8177 -1.4910  0.7391
10111TIP3   OH230289   5.940   3.812   0.957  0.4972 -0.3332 -0.2468
10111TIP3    H130290   5.948   3.891   1.010 -0.2712  0.7616 -1.6774
10111TIP3    H230291   5.896   3.749   1.014 -0.3262  0.8061  0.4083
10112TIP3   OH230292   7.275   2.560   0.085 -0.3372  0.2389  0.0451
10112TIP3    H130293   7.198   2.533   0.135 -0.9641  2.7642  0.5627
10112TIP3    H230294   7.241   2.617   0.017  0.8148 -1.0019 -1.6645
10113TIP3   OH230295   6.661   0.353   2.163 -0.0861 -0.4352 -0.1452
10113TIP3    H130296   6.657   0.318   2.252 -0.3285 -0.0971 -0.0224
10113TIP3    H230297   6.579   0.324   2.122 -0.7161  0.7443  0.2410
10114TIP3   OH230298   2.279   0.219   6.446 -0.0038  0.2910 -0.3332
10114TIP3    H130299   2.372   0.219   6.423 -0.2143 -0.3712 -1.2231
10114TIP3    H230300   2.254   0.126   6.444 -1.3251  0.6213 -2.7906
10115TIP3   OH230301   1.456   0.050   2.749 -0.4976  0.1623  0.1490
10115TIP3    H130302   1.389   0.066   2.683  0.8139  0.0356 -1.2743
10115TIP3    H230303   1.489  -0.038   2.728  0.1015  0.2132  0.8371
10116TIP3   OH230304   4.150   7.648   0.209 -0.0992  0.7428  0.3404
10116TIP3    H130305   4.209   7.724   0.209  0.0634  0.6296 -0.6015
10116TIP3    H230306   4.205   7.574   0.232 -0.0499  0.7642  0.2902
10117TIP3   OH230307   6.450   0.945   0.048 -0.1425  0.1396 -0.1816
10117TIP3    H130308   6.435   0.955  -0.046  0.2652  0.3172 -0.2282
10117TIP3    H230309   6.409   0.862   0.070  1.4906 -0.9205 -0.9153
10118TIP3   OH230310   2.639   4.184   4.441  0.1895 -0.1429  0.0893
10118TIP3    H130311   2.685   4.128   4.503  0.9116  0.0380 -0.2723
10118TIP3    H230312   2.646   4.272   4.478 -0.1953 -0.1669  0.2222
10119TIP3   OH230313   7.961  -0.011   0.573 -0.3854  0.1830  0.4144
10119TIP3    H130314   7.983   0.070   0.618  0.2175  0.9389 -1.1396
10119TIP3    H230315   8.038  -0.030   0.519 -1.1336 -0.5358 -0.4449
10120TIP3   OH230316   5.633   3.553   1.867 -0.3126 -0.3458 -0.5512
10120TIP3    H130317   5.614   3.493   1.939 -1.5031  0.0337 -0.5173
10120TIP3    H230318   5.691   3.619   1.905  1.3530 -1.6669 -0.7002
10121TIP3   OH230319   5.944   2.681   5.111 -0.4649 -0.1518  0.4380
10121TIP3    H130320   5.879   2.730   5.161 -0.7113 -0.7699  0.7318
10121TIP3    H230321   6.027   2.726   5.128 -0.7953  0.5951  0.1229
10122TIP3   OH230322   5.267   0.085   3.094 -0.0597  0.7107  0.0272
10122TIP3    H130323   5.352   0.105   3.055  0.0875  0.6124  0.2941
10122TIP3    H230324   5.228   0.170   3.111  0.6166  0.7880  1.2787
10123TIP3   OH230325   6.486   0.013   5.406  0.5830 -0.1435 -0.7594
10123TIP3    H130326   6.525   0.071   5.341  2.2429  0.2564  0.5218
10123TIP3    H230327   6.546   0.017   5.480 -2.1504  0.9582  1.6060
10124TIP3   OH230328   4.897   1.504   0.495 -0.0684  0.1475  0.3300
10124TIP3    H130329   4.819   1.557   0.476 -0.2715 -0.5337 -0.7645
10124TIP3    H230330   4.965   1.569   0.512 -0.6872  0.7577  0.5722
10125TIP3   OH230331   2.533   2.421   5.452  0.2355  0.4724  0.4224
10125TIP3    H130332   2.463   2.418   5.517 -1.6158 -0.5017 -1.5179
10125TIP3    H230333   2.580   2.338   5.464 -1.4137 -0.6873 -0.8077
10126TIP3   OH230334   5.842   1.656   2.680 -0.8358  0.0632 -0.2236
10126TIP3    H130335   5.766   1.603   2.660 -0.6366 -0.2625 -0.1243
10126TIP3    H230336   5.807   1.745   2.693 -1.1924 -0.0821 -0.1890
10127TIP3   OH230337   2.797   1.977   1.406 -0.2201  0.2546  0.2637
10127TIP3    H130338   2.867   1.924   1.367  0.8555  0.0975  2.2660
10127TIP3    H230339   2.781   1.937   1.492 -0.9631  1.8381  0.9191
10128TIP3   OH230340   2.237   5.913   4.575  0.2969  0.1572  0.1885
10128TIP3    H130341   2.308   5.871   4.624  0.7663  0.7357  0.0266
10128TIP3    H230342   2.176   5.942   4.642  0.7978  0.6983  0.4248
10129TIP3   OH230343   6.097   6.549   2.042  0.0427  0.1193 -0.5505
10129TIP3    H130344   6.162   6.485   2.013  0.2788  1.0996 -2.2967
10129TIP3    H230345   6.013   6.511   2.016  0.1096  0.0859 -0.7185
10130TIP3   OH230346   2.335   1.028   1.919  0.0335  0.1597 -0.1011
10130TIP3    H130347   2.282   1.107   1.908  1.1256  0.7072 -1.7708
10130TIP3    H230348   2.287   0.977   1.985 -1.8984  1.1779 -0.6191
10131TIP3   OH230349   7.184   5.244   5.186 -0.7813 -0.2037 -0.0689
10131TIP3    H130350   7.237   5.207   5.115 -2.9012  0.1243 -1.9078
10131TIP3    H230351   7.197   5.338   5.179 -1.5811 -0.1236 -0.5147
10132TIP3   OH230352   8.272   6.445   6.129 -0.2102 -0.0834 -0.1081
10132TIP3    H130353   8.234   6.397   6.202 -0.0352 -1.1638 -0.7158
10132TIP3    H230354   8.335   6.385   6.090 -0.1830  0.5333 -1.0546
10133TIP3   OH230355   8.141   2.110   2.115 -0.3538  0.1892  0.2899
10133TIP3    H130356   8.165   2.058   2.191 -2.1889  0.3869  1.0601
10133TIP3    H230357   8.092   2.184   2.151 -1.9621 -0.1382 -1.1174
10134TIP3   OH230358   1.649   1.618   2.091  0.1100 -0.3025  0.5441
10134TIP3    H130359   1.619   1.603   2.002 -1.4865 -1.2685  1.2086
10134TIP3    H230360   1.686   1.534   2.119  0.9935  0.1136  0.6602
10135TIP3   OH230361   6.528   3.769   3.577  0.2315 -0.6702  0.0815
10135TIP3    H130362   6.532   3.787   3.483 -0.5851 -1.7852 -0.1802
10135TIP3    H230363   6.578   3.689   3.589  2.5611  0.8211  1.0157
10136TIP3   OH230364   5.580   2.114   0.422 -0.8210  0.4492  0.3040
10136TIP3    H130365   5.546   2.071   0.343 -1.5330  0.0619  0.8120
10136TIP3    H230366   5.656   2.163   0.391  0.9075 -2.2713 -0.1044
10137TIP3   OH230367   5.545   5.184   4.961  0.4175  0.2587 -0.3656
10137TIP3    H130368   5.467   5.225   4.922  0.3055  1.6210  1.1568
10137TIP3    H230369   5.552   5.099   4.918 -0.6273  1.0091 -2.1200
10138TIP3   OH230370   5.196   1.576   2.423  0.2069 -0.1254  0.0849
10138TIP3    H130371   5.102   1.579   2.403  0.0975 -1.8284  0.2234
10138TIP3    H230372   5.237   1.624   2.351 -0.7154  0.0100 -0.3683
10139TIP3   OH230373   1.080   2.730   0.876  0.4491 -0.1446  0.9456
10139TIP3    H130374   1.031   2.651   0.901  0.2386  0.5730  2.9678
10139TIP3    H230375   1.064   2.791   0.947  0.4944  1.8101 -0.6337
10140TIP3   OH230376   4.212   2.421   5.352  0.4490  0.1032  0.4899
10140TIP3    H130377   4.273   2.407   5.425 -0.0192 -0.3594  0.7989
10140TIP3    H230378   4.268   2.447   5.279  1.0044 -0.1820  0.8090
10141TIP3   OH230379   3.384   2.715   4.567  0.2958 -0.2547  0.1981
10141TIP3    H130380   3.377   2.620   4.557  0.5828 -0.2394 -0.1889
10141TIP3    H230381   3.466   2.729   4.614  0.2018 -0.2032  0.3479
10142TIP3   OH230382   5.744   7.501   4.977  0.7135  0.2952 -0.7660
10142TIP3    H130383   5.786   7.466   5.056  1.1213 -2.0894 -1.9392
10142TIP3    H230384   5.651   7.504   4.999  0.7590 -0.8497 -0.3412
10143TIP3   OH230385   4.735   6.544   1.379 -0.0927  0.2657  0.1350
10143TIP3    H130386   4.675   6.499   1.439 -0.7359 -0.7154 -1.2055
10143TIP3    H230387   4.819   6.500   1.393 -0.4028 -0.4420 -0.1785
10144TIP3   OH230388   7.522   7.043   3.546 -0.2387  0.1764 -0.0624
10144TIP3    H130389   7.472   7.006   3.474 -0.1867  0.8619 -0.4560
10144TIP3    H230390   7.565   6.967   3.586  2.5456  0.0812 -2.8748
10145TIP3   OH230391   4.186   3.213   2.925  0.1197 -0.0396  0.4368
10145TIP3    H130392   4.113   3.156   2.948  0.0543  0.0351  0.4148
10145TIP3    H230393   4.200   3.197   2.832 -0.4916  0.6450  0.2129
10146TIP3   OH230394   6.094   4.314   4.599 -0.0484  0.2282 -0.3046
10146TIP3    H130395   6.159   4.347   4.537  0.7172  0.3839  0.5390
10146TIP3    H230396   6.064   4.232   4.561 -0.2190  0.7275 -1.2790
10147TIP3   OH230397   2.408   3.214   0.997  0.3414  0.2673  0.1041
10147TIP3    H130398   2.465   3.138   0.986 -0.8431 -0.5580 -0.5637
10147TIP3    H230399   2.386   3.215   1.090  1.5026  0.6671  0.3973
10148TIP3   OH230400   7.960   2.005   5.705 -0.0481  0.2654 -0.1629
10148TIP3    H130401   8.025   1.934   5.703 -0.0469  0.2289  0.7529
10148TIP3    H230402   8.009   2.080   5.739 -0.6471  0.0510  1.2231
10149TIP3   OH230403   1.959   4.818   1.842  0.3665  0.1387 -0.2708
10149TIP3    H130404   1.879   4.782   1.802  0.6662  1.2374 -1.9560
10149TIP3    H230405   1.941   4.912   1.851  0.4106 -0.0185  2.0537
10150TIP3   OH230406   7.445   3.783   5.791  0.0577  0.3442  0.0257
10150TIP3    H130407   7.453   3.868   5.832 -0.8679  0.2787  0.3667
10150TIP3    H230408   7.470   3.720   5.859 -2.5905  0.1643  0.9554
10151TIP3   OH230409   2.427   3.926   3.053 -0.0103 -0.3474 -0.0023
10151TIP3    H130410   2.401   3.841   3.018 -1.2438  0.5457 -1.3393
10151TIP3    H230411   2.370   3.940   3.129  0.4375 -0.8559  0.4319
10152TIP3   OH230412   0.440   6.483   1.763 -0.2386  0.1167 -0.2756
10152TIP3    H130413   0.484   6.438   1.835 -1.9221  0.8957  1.3315
10152TIP3    H230414   0.377   6.419   1.730 -1.8728  0.8224  1.2944
10153TIP3   OH230415   1.442   6.133   5.797 -0.4931  0.7790  0.7103
10153TIP3    H130416   1.349   6.144   5.776 -0.4568  1.4475  0.8720
10153TIP3    H230417   1.485   6.125   5.712 -0.8092 -0.5739  0.6567
10154TIP3   OH230418   5.727   6.343   2.631 -0.0586  0.1148 -0.3518
10154TIP3    H130419   5.644   6.307   2.601  0.6180  0.3317 -2.6839
10154TIP3    H230420   5.704   6.427   2.672 -0.9916  0.1094 -0.8482
10155TIP3   OH230421   6.110   4.309   6.754 -0.2122  0.0298  0.0374
10155TIP3    H130422   6.142   4.219   6.747  1.8363  0.7272 -0.3162
10155TIP3    H230423   6.123   4.346   6.666  0.3634  1.0856  0.5484
10156TIP3   OH230424   4.174   7.776   3.730 -0.2893  0.4926 -0.2365
10156TIP3    H130425   4.233   7.846   3.704  0.3873  0.0396  0.0372
10156TIP3    H230426   4.232   7.710   3.769 -1.0972  0.5537  1.1339
10157TIP3   OH230427   4.370   1.821   5.733  0.2605 -0.2195 -0.2592
10157TIP3    H130428   4.412   1.906   5.739  0.5540 -0.3622 -0.2766
10157TIP3    H230429   4.330   1.808   5.819  0.1664 -0.0418 -0.2747
10158TIP3   OH230430   2.942   3.525   1.701 -0.2608 -0.7813  0.2748
10158TIP3    H130431   2.862   3.530   1.649 -0.7888 -0.5934  1.0853
10158TIP3    H230432   3.012   3.516   1.636 -0.9503 -1.2029 -0.4395
10159TIP3   OH230433   6.787   7.363   2.604  0.5657 -1.0389  0.0210
10159TIP3    H130434   6.714   7.376   2.544  1.1819 -1.0753 -0.7695
10159TIP3    H230435   6.765   7.416   2.681 -0.0100 -0.5722 -0.4499
10160TIP3   OH230436   3.878   1.456   4.185  0.1317  0.1519  0.6113
10160TIP3    H130437   3.910   1.377   4.142  0.1395 -0.8055  2.2743
10160TIP3    H230438   3.933   1.526   4.152 -0.7584 -0.2623 -1.9502
10161TIP3   OH230439   6.750   6.609   3.900 -0.6137  0.5682 -0.3316
10161TIP3    H130440   6.796   6.570   3.826 -1.0083  0.1888 -0.3758
10161TIP3    H230441   6.662   6.627   3.867 -1.2229 -0.8727  0.4357
10162TIP3   OH230442   4.256   0.111   1.018  0.1189 -0.2723 -0.3091
10162TIP3    H130443   4.220   0.192   1.055  0.4425 -0.5343  0.5863
10162TIP3    H230444   4.191   0.044   1.039  0.5663 -0.5264  0.2813
10163TIP3   OH230445   0.143   5.644   0.017  0.4516 -0.0983  0.1930
10163TIP3    H130446   0.089   5.565   0.024 -0.1490  0.3589  0.9430
10163TIP3    H230447   0.233   5.612   0.011  0.2038 -0.8478  0.3691
10164TIP3   OH230448   3.355   3.255   2.789 -0.0581  0.2219  0.4563
10164TIP3    H130449   3.265   3.226   2.773 -0.2289 -0.1984  2.0130
10164TIP3    H230450   3.409   3.191   2.741 -0.5697  0.9513 -1.1657
10165TIP3   OH230451   1.122   3.109   2.204 -0.1883 -0.1404 -0.0575
10165TIP3    H130452   1.202   3.078   2.246 -0.5231  0.6282  1.2304
10165TIP3    H230453   1.097   3.040   2.143  2.4936  0.4324 -1.9423
10166TIP3   OH230454   1.194   2.966   4.218 -0.2319  0.0824  1.1800
10166TIP3    H130455   1.214   2.889   4.164  0.0908  0.3431  0.9210
10166TIP3    H230456   1.216   2.940   4.307  0.8804  0.2234  0.9580
10167TIP3   OH230457   6.622   6.279   3.920 -0.0624  0.1471  0.4180
10167TIP3    H130458   6.590   6.238   3.839  0.0729 -0.1531  0.5157
10167TIP3    H230459   6.715   6.256   3.924  0.1039  0.7924  0.2765
10168TIP3   OH230460   4.406   3.142   5.319  0.2490  0.1325 -0.4701
10168TIP3    H130461   4.414   3.195   5.398  0.6840 -2.4198  1.3485
10168TIP3    H230462   4.315   3.111   5.321  0.8755 -1.8342  0.4427
10169TIP3   OH230463   5.356   4.909   3.059 -0.5214 -0.6631  0.2144
10169TIP3    H130464   5.417   4.980   3.038 -0.2981 -0.8728  0.1591
10169TIP3    H230465   5.410   4.831   3.064 -1.1699 -1.4941 -3.1960
10170TIP3   OH230466   0.472   1.625   3.426 -0.1115  0.8204  0.0810
10170TIP3    H130467   0.397   1.612   3.368 -0.2952  0.1051  0.4706
10170TIP3    H230468   0.542   1.573   3.386  0.9749  3.4477 -1.6872
10171TIP3   OH230469   3.140   1.756   1.787 -0.1415 -0.0847 -0.3415
10171TIP3    H130470   3.071   1.819   1.808  0.2876  0.9160 -1.6964
10171TIP3    H230471   3.220   1.809   1.781  0.8040 -1.2314  1.3112
10172TIP3   OH230472   6.342   5.897   3.036  0.4215 -0.1047 -0.1017
10172TIP3    H130473   6.322   5.826   2.975  2.2985 -0.1481 -0.7362
10172TIP3    H230474   6.412   5.862   3.091  1.4156  1.2563 -0.4568
10173TIP3   OH230475   2.534   5.901   3.966 -0.0327 -0.1051  0.3501
10173TIP3    H130476   2.575   5.814   3.965  1.7540  0.6605 -1.1207
10173TIP3    H230477   2.443   5.885   3.942  0.6911 -1.4537 -1.8236
10174TIP3   OH230478   5.302   2.593   1.602 -0.1022  0.3061  0.6527
10174TIP3    H130479   5.324   2.684   1.620  1.7400  0.0577 -0.1635
10174TIP3    H230480   5.288   2.590   1.508  1.5615 -0.5487  0.3980
10175TIP3   OH230481   7.299   3.180   5.980 -0.1151  0.3143 -0.4366
10175TIP3    H130482   7.230   3.132   6.026  0.9695 -0.8231  0.0577
10175TIP3    H230483   7.252   3.240   5.922 -1.5106  0.1998  0.5272
10176TIP3   OH230484   5.762   4.000   1.968  1.0478 -0.0496  0.3670
10176TIP3    H130485   5.802   3.986   1.882 -2.4772  0.4502 -1.5225
10176TIP3    H230486   5.704   3.924   1.980 -1.0646  1.5310  0.6405
10177TIP3   OH230487   4.971   1.991   6.527 -0.2288  0.1729  0.4331
10177TIP3    H130488   4.877   1.978   6.519 -0.5585  2.1244  0.5794
10177TIP3    H230489   5.000   2.012   6.438 -0.3203  1.5844  0.7120
10178TIP3   OH230490   5.359   6.966   2.289  0.0027  0.0777 -0.4228
10178TIP3    H130491   5.431   6.983   2.228  1.8886  0.6764  1.8350
10178TIP3    H230492   5.336   7.053   2.322  0.6267 -0.4231  1.4049
10179TIP3   OH230493   5.614   0.162   0.574  0.5792 -0.0115 -0.0802
10179TIP3    H130494   5.684   0.130   0.517  0.8858 -1.3844  1.0166
10179TIP3    H230495   5.544   0.097   0.565  0.9902 -0.7986  1.7427
10180TIP3   OH230496   3.676   3.806   1.897 -0.5687  0.0832  0.0476
10180TIP3    H130497   3.742   3.805   1.966 -1.2948  1.2479  0.7825
10180TIP3    H230498   3.601   3.760   1.935  0.5611 -3.6119 -1.6651
10181TIP3   OH230499   4.488   3.307   5.909 -0.4313  0.7410  0.4428
10181TIP3    H130500   4.572   3.331   5.871 -0.5098  0.8561  0.3421
10181TIP3    H230501   4.431   3.294   5.834 -0.7699  1.6328  0.5381
10182TIP3   OH230502   2.780   3.512   3.068 -0.0113  0.1965  0.2970
10182TIP3    H130503   2.687   3.512   3.046 -0.1764 -1.0819  0.8939
10182TIP3    H230504   2.796   3.597   3.108 -1.3584 -0.2471  1.8804
10183TIP3   OH230505   1.461   2.434   2.382 -0.4192 -0.5643  0.6333
10183TIP3    H130506   1.468   2.447   2.477  2.5372 -0.2921  0.4864
10183TIP3    H230507   1.542   2.471   2.348 -0.4129 -2.5890 -1.7968
10184TIP3   OH230508   5.413   3.281   0.014 -0.4397  0.0089 -0.6709
10184TIP3    H130509   5.351   3.212  -0.010  0.4450 -1.4491  1.0346
10184TIP3    H230510   5.382   3.314   0.098  0.0354  0.6094 -0.7225
10185TIP3   OH230511   5.089   2.386   1.681 -0.1265  0.4751  0.2297
10185TIP3    H130512   5.036   2.465   1.676 -1.1702 -0.0947  1.6460
10185TIP3    H230513   5.168   2.413   1.728  1.0175  1.3643 -2.0283
10186TIP3   OH230514   2.917   7.773   6.188 -0.1357  0.2361  0.0470
10186TIP3    H130515   2.903   7.715   6.113 -1.1160  0.7541 -0.1917
10186TIP3    H230516   2.834   7.771   6.235 -0.0930  1.2297  0.1766
10187TIP3   OH230517   3.989   6.566   5.351 -0.0934  0.2869 -0.5758
10187TIP3    H130518   3.920   6.515   5.308  0.6779 -2.5173  1.2092
10187TIP3    H230519   3.942   6.632   5.402 -1.2670  0.3351 -1.6782
10188TIP3   OH230520   4.073   2.584   3.651 -0.1676  0.5829  0.6668
10188TIP3    H130521   4.125   2.655   3.690  0.4230 -0.1866  1.3302
10188TIP3    H230522   3.982   2.609   3.667  0.0342  1.1934  0.8829
10189TIP3   OH230523   5.907   2.453   0.504  0.2747 -0.0943 -0.4481
10189TIP3    H130524   5.997   2.432   0.527  0.3667  0.9538  0.2431
10189TIP3    H230525   5.905   2.549   0.497 -0.9808 -0.0119  0.5332
10190TIP3   OH230526   2.072   6.042   2.773 -0.2026 -0.3159  0.4722
10190TIP3    H130527   2.152   6.006   2.811  0.6892 -0.2755 -1.2797
10190TIP3    H230528   2.056   6.122   2.823  1.3945  0.1804  0.2501
10191TIP3   OH230529   2.584   2.216   3.784 -0.4377 -0.0735 -0.0181
10191TIP3    H130530   2.533   2.173   3.852  0.3014 -1.5266 -0.3461
10191TIP3    H230531   2.567   2.166   3.705 -2.1967  2.2789 -1.2420
10192TIP3   OH230532   4.367   7.519   3.118 -0.0154 -0.4582  0.6646
10192TIP3    H130533   4.302   7.467   3.070 -0.5403  0.4129  0.4243
10192TIP3    H230534   4.315   7.575   3.175  0.5474 -0.1307  0.8603
10193TIP3   OH230535   4.723   5.111   6.421  0.8966  0.1489 -0.1526
10193TIP3    H130536   4.774   5.058   6.360 -0.6253 -1.0600 -0.4258
10193TIP3    H230537   4.635   5.074   6.418 -0.5614  3.3901 -1.1749
10194TIP3   OH230538   2.042   4.496   4.044  0.8701  0.0462 -0.2448
10194TIP3    H130539   2.060   4.451   4.126  2.5505  0.0958 -0.5493
10194TIP3    H230540   2.129   4.521   4.011  0.2615 -0.1909 -2.1469
10195TIP3   OH230541   7.472   0.743   0.172  0.7170 -0.4174 -0.2306
10195TIP3    H130542   7.465   0.693   0.253 -1.2617 -0.4412 -0.3797
10195TIP3    H230543   7.413   0.699   0.111  1.0820  0.4489 -1.2528
10196TIP3   OH230544   8.014   3.977   4.012  0.1477 -0.1063  0.3862
10196TIP3    H130545   8.046   3.888   4.001 -1.0350 -0.5737  0.5918
10196TIP3    H230546   7.935   3.982   3.959 -0.7524  0.2795  1.7186
10197TIP3   OH230547   4.768   5.664   6.524  0.3121  0.8907 -0.2544
10197TIP3    H130548   4.830   5.593   6.508 -0.8245 -0.5554  1.3452
10197TIP3    H230549   4.695   5.647   6.465  0.5247  1.4024 -0.6733
10198TIP3   OH230550   2.503   0.035   0.206 -0.2242 -0.0271 -0.1937
10198TIP3    H130551   2.516  -0.045   0.257 -0.9456 -1.1067 -1.6169
10198TIP3    H230552   2.580   0.089   0.225 -0.0102 -0.7814  1.2535
10199TIP3   OH230553   2.231   4.489   3.797  0.4296 -0.2791 -0.1938
10199TIP3    H130554   2.284   4.515   3.872 -1.7367  0.5678  1.1228
10199TIP3    H230555   2.223   4.568   3.744  0.7912 -0.5179 -0.6177
10200TIP3   OH230556   5.282   1.560   0.233  0.3051 -0.2493  0.2223
10200TIP3    H130557   5.262   1.617   0.307  0.8910 -0.3404  0.4594
10200TIP3    H230558   5.248   1.474   0.259  0.4544 -0.2664  0.3661
10201TIP3   OH230559   2.995   6.244   2.453  0.2007  0.6852  0.4839
10201TIP3    H130560   3.047   6.319   2.422  0.0634  0.9048  0.7871
10201TIP3    H230561   2.973   6.197   2.373  0.8642  0.5907  0.3482
10202TIP3   OH230562   3.219   5.634   0.909  0.7487  0.3863  0.3300
10202TIP3    H130563   3.126   5.641   0.932  0.4306 -2.0282  0.0042
10202TIP3    H230564   3.238   5.716   0.863 -1.4649  0.5618 -0.4153
10203TIP3   OH230565   4.934   7.245   6.101 -0.3950  0.0716  0.0603
10203TIP3    H130566   4.879   7.310   6.057 -1.4403 -1.0318 -0.3438
10203TIP3    H230567   4.886   7.163   6.090  1.0897 -0.8439  0.1838
10204TIP3   OH230568   2.455   1.016   2.967  0.0641  0.2516 -0.1525
10204TIP3    H130569   2.469   1.104   2.932 -0.6664  1.5622  2.6033
10204TIP3    H230570   2.534   0.967   2.944  2.2707  2.7789  1.5182
10205TIP3   OH230571   1.042   3.858   1.860 -0.6489 -0.9358 -0.2945
10205TIP3    H130572   0.987   3.787   1.826 -2.7584  1.6457 -2.7882
10205TIP3    H230573   1.122   3.853   1.808 -2.5373  0.9510 -3.7493
10206TIP3   OH230574   7.380   0.889   3.861  0.3969  0.1534 -0.6189
10206TIP3    H130575   7.393   0.798   3.835  0.9277 -0.6660  2.2479
10206TIP3    H230576   7.289   0.908   3.837  0.3716 -1.0099 -1.5140
10207TIP3   OH230577   3.456   1.303   4.092 -0.5605  0.0064 -0.0926
10207TIP3    H130578   3.366   1.328   4.112  0.1373  2.7480  0.0462
10207TIP3    H230579   3.484   1.365   4.025  0.8824 -1.5583 -1.0228
10208TIP3   OH230580   5.511   4.096   1.121  0.2651 -0.4025  0.2320
10208TIP3    H130581   5.444   4.042   1.165  0.7968 -1.5578 -0.3374
10208TIP3    H230582   5.493   4.085   1.028  0.3616  0.4546  0.1065
10209TIP3   OH230583  -0.013   6.696   2.466  0.2947  0.3101 -0.3616
10209TIP3    H130584  -0.036   6.704   2.559 -1.6423 -0.7824 -0.6932
10209TIP3    H230585   0.055   6.629   2.464 -0.4172 -0.4544  0.1982
10210TIP3   OH230586   0.725   1.591   5.955  0.1036  0.7561  0.0019
10210TIP3    H130587   0.735   1.669   6.010  1.5554  1.5400 -1.2786
10210TIP3    H230588   0.732   1.624   5.866 -0.0233 -0.7574 -0.5939
10211TIP3   OH230589   5.019   3.262   2.527  0.1113 -0.2468 -0.1366
10211TIP3    H130590   5.035   3.304   2.612 -0.5493  0.7807 -0.4976
10211TIP3    H230591   4.941   3.306   2.493  0.9156  0.0345 -1.7122
10212TIP3   OH230592   3.229   1.928   5.121  0.0009  0.2577  0.3834
10212TIP3    H130593   3.186   2.014   5.120 -0.2549  0.1520  1.1979
10212TIP3    H230594   3.322   1.947   5.134 -0.0735  0.4090  0.6985
10213TIP3   OH230595   2.014   6.780   6.753 -0.1892 -0.3042  0.0287
10213TIP3    H130596   2.092   6.820   6.716 -1.2577 -0.0652 -2.1796
10213TIP3    H230597   2.040   6.748   6.839  2.2712 -0.1194 -0.5965
10214TIP3   OH230598   2.530   4.363   6.136 -0.3464  0.5449 -0.0639
10214TIP3    H130599   2.504   4.313   6.058  0.4751  1.3863 -0.8956
10214TIP3    H230600   2.457   4.423   6.152 -0.3955  0.5660 -0.3605
10215TIP3   OH230601   7.631   6.807   1.379  0.2116  0.0944  0.0463
10215TIP3    H130602   7.622   6.877   1.444  0.4722  0.2896 -0.1274
10215TIP3    H230603   7.658   6.731   1.430 -0.0617  0.1245  0.2352
10216TIP3   OH230604   7.436   4.450   6.242  0.5360 -0.1240 -0.0066
10216TIP3    H130605   7.441   4.445   6.146 -2.3349 -1.3221 -0.1793
10216TIP3    H230606   7.525   4.431   6.271  1.2551 -0.8084 -2.4030
10217TIP3   OH230607   6.999   3.567   6.175 -0.6503  0.3895 -0.0077
10217TIP3    H130608   6.994   3.599   6.265 -0.5502  0.2857  0.0355
10217TIP3    H230609   7.084   3.596   6.144  1.1840 -3.0154  1.2813
10218TIP3   OH230610   7.603   4.902   3.037 -0.2841  0.5983  0.0270
10218TIP3    H130611   7.608   4.978   3.095  1.5749  0.0154  0.7177
10218TIP3    H230612   7.687   4.902   2.992 -0.6003 -0.5711 -0.5807
10219TIP3   OH230613   5.812   0.109   0.793  0.1507 -0.4197  0.5657
10219TIP3    H130614   5.787   0.025   0.833 -0.2138 -0.2516  0.6914
10219TIP3    H230615   5.736   0.133   0.739 -0.7106  0.9422  2.2692
10220TIP3   OH230616   6.733   4.955   2.137  0.2247 -0.7163  0.2088
10220TIP3    H130617   6.660   4.975   2.079  0.6648  0.5624  0.0594
10220TIP3    H230618   6.807   5.004   2.101  1.2035 -2.0400  0.3070
10221TIP3   OH230619   7.872   5.869   2.347 -0.3787 -0.6515 -0.5317
10221TIP3    H130620   7.910   5.906   2.427 -0.9739 -0.1785 -0.4543
10221TIP3    H230621   7.778   5.880   2.358 -0.4829 -0.8381 -1.1767
10222TIP3   OH230622   0.358   7.222   3.895  0.5557  0.2293 -0.0358
10222TIP3    H130623   0.350   7.306   3.941 -0.8411  1.1676 -1.8428
10222TIP3    H230624   0.379   7.159   3.964  0.8018  1.9142  1.5202
10223TIP3   OH230625   1.914   1.826   2.315  0.4301  0.0573 -0.1325
10223TIP3    H130626   1.999   1.796   2.348  0.0456 -1.6948 -0.6426
10223TIP3    H230627   1.907   1.787   2.228 -0.5558  0.8636 -0.4310
10224TIP3   OH230628   4.552   6.005   1.116  0.7188 -0.4303  0.0120
10224TIP3    H130629   4.598   6.088   1.128  1.3509 -0.4807 -1.7792
10224TIP3    H230630   4.615   5.949   1.070  0.2314 -1.8596  1.0059
10225TIP3   OH230631   7.727   3.008   0.779  0.0309 -0.4343  0.7913
10225TIP3    H130632   7.735   3.103   0.764 -0.1682 -0.1516  2.3080
10225TIP3    H230633   7.722   2.971   0.691 -0.5761  1.0318  0.1561
10226TIP3   OH230634   1.142   5.763   5.550  0.4292  0.0182 -0.3333
10226TIP3    H130635   1.162   5.682   5.502  0.7582 -0.8308  1.1873
10226TIP3    H230636   1.227   5.804   5.565  0.5015 -0.6030  1.0145
10227TIP3   OH230637   5.933   0.329   5.043 -0.1574  0.4184 -0.5754
10227TIP3    H130638   5.937   0.417   5.079  1.5997  0.0755  0.1645
10227TIP3    H230639   5.911   0.342   4.951 -3.2418  1.3937  0.1682
10228TIP3   OH230640   6.052   4.110   2.052  0.1230 -0.1734 -0.9353
10228TIP3    H130641   6.032   4.174   1.984 -0.7360 -0.9909 -1.4845
10228TIP3    H230642   5.968   4.066   2.069  0.4997 -0.5339  0.0710
10229TIP3   OH230643   6.186   4.265   0.995  0.2307 -0.1988  0.0213
10229TIP3    H130644   6.124   4.337   0.981 -0.2131 -0.8699 -1.8145
10229TIP3    H230645   6.249   4.299   1.058 -0.9043  1.1985  0.4640
10230TIP3   OH230646   0.383   2.972   6.742  0.0899  0.1764  0.0764
10230TIP3    H130647   0.473   2.995   6.767  0.5353  0.0061 -1.3143
10230TIP3    H230648   0.394   2.904   6.675 -1.0517  0.9142 -0.8730
10231TIP3   OH230649   5.447   6.032   1.837  0.2645  0.9980 -0.2759
10231TIP3    H130650   5.513   6.038   1.905  2.4010  2.1611 -2.3303
10231TIP3    H230651   5.382   5.970   1.872  0.1131  3.0529  3.6285
10232TIP3   OH230652   4.029   7.189   5.544  0.0557 -0.0219  0.6382
10232TIP3    H130653   3.997   7.159   5.458 -1.2846  1.2035  0.6687
10232TIP3    H230654   3.954   7.180   5.602 -0.2648  2.7001  0.7836
10233TIP3   OH230655   2.840   4.214   3.052 -0.5327  0.1395  0.6829
10233TIP3    H130656   2.932   4.242   3.054 -0.5013  0.1111 -0.0757
10233TIP3    H230657   2.840   4.138   2.995 -1.3543  1.4507 -1.1779
10234TIP3   OH230658   1.584   7.232   1.567 -0.0806 -0.2765 -0.2741
10234TIP3    H130659   1.491   7.209   1.559 -0.8883  1.4529  2.6314
10234TIP3    H230660   1.603   7.282   1.488 -1.8311 -0.0321 -0.5807
10235TIP3   OH230661   4.862   7.242   0.684  0.4176  0.0753 -0.2860
10235TIP3    H130662   4.945   7.198   0.671 -0.4150 -1.5914 -0.1750
10235TIP3    H230663   4.822   7.245   0.597  0.8996  1.5911 -0.4883
10236TIP3   OH230664   4.126   7.495   4.073  0.1018 -0.4524 -0.2935
10236TIP3    H130665   4.124   7.588   4.095  0.1501 -0.1382 -1.5367
10236TIP3    H230666   4.219   7.472   4.078  0.0971 -0.4216 -0.0406
10237TIP3   OH230667   5.772   4.879   5.905 -0.5842  0.0477 -0.5349
10237TIP3    H130668   5.701   4.896   5.843  0.4868 -1.4809 -2.2772
10237TIP3    H230669   5.852   4.897   5.855  0.3212  1.8860  1.4330
10238TIP3   OH230670   0.466   0.475   2.453 -0.0891 -0.0694  0.0701
10238TIP3    H130671   0.404   0.488   2.381 -1.6557 -2.3057  0.9178
10238TIP3    H230672   0.549   0.454   2.410  0.0407  2.4236 -1.0792
10239TIP3   OH230673   7.361   1.276   0.774  0.0106 -0.3837  1.0720
10239TIP3    H130674   7.268   1.266   0.792 -0.2747 -2.8409 -1.2165
10239TIP3    H230675   7.368   1.274   0.679  2.4964 -1.4550  1.1961
10240TIP3   OH230676   3.096   1.137   1.182 -0.3958 -0.6590 -0.5641
10240TIP3    H130677   3.158   1.065   1.171  1.1164  0.4798  0.1750
10240TIP3    H230678   3.117   1.198   1.111  0.2150  0.3061  0.4027
10241TIP3   OH230679   8.113   1.919   6.792 -0.1093 -0.0462  0.0917
10241TIP3    H130680   8.145   1.830   6.778 -1.3667 -0.2907 -1.6339
10241TIP3    H230681   8.157   1.971   6.724 -1.7119 -0.0099 -0.9851
10242TIP3   OH230682   6.819   0.035   0.956 -0.3172  0.0439  0.3781
10242TIP3    H130683   6.840   0.067   0.868 -0.1570  1.4027  0.8954
10242TIP3    H230684   6.841  -0.058   0.953 -1.9274 -0.3558 -1.5318
10243TIP3   OH230685   3.386   5.956   4.160  0.2010 -0.0127  0.1221
10243TIP3    H130686   3.441   5.938   4.083 -1.8729  2.9387 -2.2970
10243TIP3    H230687   3.432   6.026   4.206  1.5651 -1.9398  1.9071
10244TIP3   OH230688   5.894   4.392   2.140  0.2570 -0.2928 -0.2207
10244TIP3    H130689   5.984   4.410   2.167 -0.0585  0.8189  0.1545
10244TIP3    H230690   5.886   4.435   2.054  0.3541 -1.2004 -0.6930
10245TIP3   OH230691   6.920   2.379   4.674  0.3224 -0.3982 -0.5219
10245TIP3    H130692   6.866   2.305   4.646  0.3393 -0.6967  0.1964
10245TIP3    H230693   6.954   2.352   4.760 -1.2369  1.2156  0.6772
10246TIP3   OH230694   1.871   4.913   1.517  0.1773  1.0362  0.0865
10246TIP3    H130695   1.918   4.843   1.472 -0.3850 -0.1946  1.3333
10246TIP3    H230696   1.789   4.921   1.468 -0.7395 -0.7856  1.2228
10247TIP3   OH230697   2.024   4.381   6.631  0.0679  1.0399 -0.1061
10247TIP3    H130698   1.977   4.298   6.622 -0.4643  1.2369  0.7637
10247TIP3    H230699   2.116   4.359   6.615  0.0931  0.0602  1.2475
10248TIP3   OH230700   7.893   6.756   0.251  0.1897  0.1011 -0.9344
10248TIP3    H130701   7.881   6.697   0.326 -2.0378  0.6850 -0.7389
10248TIP3    H230702   7.985   6.780   0.254  0.2614 -0.1784  1.4443
10249TIP3   OH230703   5.551   4.974   3.562  0.0185 -0.0789  0.0392
10249TIP3    H130704   5.545   4.899   3.503 -0.8462  0.7717 -0.9873
10249TIP3    H230705   5.512   5.046   3.514  0.9225  1.0739  0.9781
10250TIP3   OH230706   1.175   6.347   2.276 -0.0976 -0.1529 -0.5136
10250TIP3    H130707   1.194   6.418   2.216 -1.0186 -0.7040 -1.4918
10250TIP3    H230708   1.260   6.308   2.295  0.1531 -0.3810 -1.9929
10251TIP3   OH230709   5.861   1.124   3.684 -0.8760  0.1620 -0.1028
10251TIP3    H130710   5.874   1.218   3.691  0.5796 -0.1166  1.3547
10251TIP3    H230711   5.841   1.095   3.773  1.1406 -1.2085 -0.0187
10252TIP3   OH230712   2.692   1.350   2.928  0.4239 -0.4192  0.3238
10252TIP3    H130713   2.722   1.267   2.891 -0.0495  0.1434 -1.4216
10252TIP3    H230714   2.770   1.406   2.930  0.2216 -0.0657 -0.9954
10253TIP3   OH230715   3.373   6.648   4.910  0.2340 -0.5030  0.0422
10253TIP3    H130716   3.436   6.718   4.924  0.2311  0.2888 -3.1002
10253TIP3    H230717   3.289   6.693   4.901  0.2407 -0.8093 -2.0754
10254TIP3   OH230718   2.960   7.242   5.972  0.1727 -0.0947 -0.1267
10254TIP3    H130719   2.975   7.328   6.013  0.8333 -0.8662  1.2992
10254TIP3    H230720   3.047   7.215   5.941  0.6688 -1.7100  2.4243
10255TIP3   OH230721   6.233   0.288   5.989  0.0143 -0.0543 -0.2159
10255TIP3    H130722   6.223   0.341   6.068 -0.0637 -0.1173 -0.1822
10255TIP3    H230723   6.269   0.347   5.924 -0.4265  0.1396 -0.2870
10256TIP3   OH230724   5.666   6.352   6.681 -0.0069  0.5763 -0.2237
10256TIP3    H130725   5.632   6.316   6.600 -0.1717  0.1423  0.0347
10256TIP3    H230726   5.745   6.399   6.656 -1.0894  2.1005 -0.9298
10257TIP3   OH230727   5.406   5.286   6.237  0.7341  0.2764 -0.1708
10257TIP3    H130728   5.461   5.211   6.212  0.8983 -0.1090  1.2864
10257TIP3    H230729   5.318   5.261   6.209  1.0693  0.3649 -1.3864
10258TIP3   OH230730   2.329   4.761   6.004  0.4377 -0.2400 -0.2089
10258TIP3    H130731   2.320   4.672   6.040  1.5842 -0.5265 -0.6100
10258TIP3    H230732   2.252   4.771   5.948  0.5223 -1.1598 -0.5112
10259TIP3   OH230733   7.088   5.291   4.379 -0.3433  0.3084 -0.3626
10259TIP3    H130734   7.132   5.287   4.295 -1.0269  2.7533 -0.9231
10259TIP3    H230735   7.075   5.385   4.395 -0.7140 -0.1043  2.2183
10260TIP3   OH230736   1.879   3.379   6.658  0.0904 -0.4293 -0.3289
10260TIP3    H130737   1.890   3.295   6.704  2.0160 -0.4719 -0.7747
10260TIP3    H230738   1.961   3.390   6.609 -0.6559  1.1032 -1.3007
10261TIP3   OH230739   3.193   5.197   4.569 -0.2204 -0.3595 -0.1203
10261TIP3    H130740   3.132   5.227   4.501  0.6123 -1.3445 -1.3403
10261TIP3    H230741   3.138   5.144   4.628 -0.2781 -3.1076 -2.4016
10262TIP3   OH230742   2.267   7.507   0.786  0.0648  0.3328  0.2938
10262TIP3    H130743   2.236   7.583   0.834 -0.2580 -0.1971  0.9437
10262TIP3    H230744   2.195   7.444   0.790  0.6461 -0.3389  0.5237
10263TIP3   OH230745   4.679   0.171   5.009 -0.1359 -0.1693 -0.4402
10263TIP3    H130746   4.649   0.251   5.053  0.4782  0.8149 -1.7360
10263TIP3    H230747   4.619   0.103   5.039 -0.5726  0.7397  0.8233
10264TIP3   OH230748   7.780   4.342   3.802 -0.0093 -0.4591 -0.4199
10264TIP3    H130749   7.758   4.398   3.728  2.0459 -0.8030 -1.3448
10264TIP3    H230750   7.828   4.399   3.862 -3.2214  0.3252  1.6509
10265TIP3   OH230751   5.949   0.920   4.201 -0.2094  0.3866 -0.4754
10265TIP3    H130752   5.924   0.875   4.282  0.7422  1.7974  0.6592
10265TIP3    H230753   5.894   0.998   4.200  1.8006  1.9266  0.4431
10266TIP3   OH230754   4.890   7.373   3.646  0.0246 -0.3873  0.3760
10266TIP3    H130755   4.852   7.324   3.718  0.8202 -1.9111 -0.1902
10266TIP3    H230756   4.969   7.413   3.682 -0.0799 -0.3641  0.5774
10267TIP3   OH230757   0.643   0.993   3.010  0.3088 -0.0989  0.0127
10267TIP3    H130758   0.706   1.043   2.958 -1.3422  0.8885 -1.1701
10267TIP3    H230759   0.642   1.037   3.095  2.5052 -1.2725  0.7046
10268TIP3   OH230760   4.319   0.853   0.950  0.3263  0.0374  0.0779
10268TIP3    H130761   4.297   0.852   1.044 -0.0607  1.0232  0.0086
10268TIP3    H230762   4.381   0.781   0.939 -1.4107 -1.6370  0.6555
10269TIP3   OH230763   4.216   2.318   0.310 -0.2744  0.0215  0.2374
10269TIP3    H130764   4.176   2.275   0.233  0.0422 -1.2129  0.7456
10269TIP3    H230765   4.175   2.405   0.312  1.5375  1.0845 -2.7962
10270TIP3   OH230766   8.237   1.252   2.491 -0.0460  0.1387  0.1037
10270TIP3    H130767   8.178   1.302   2.546  1.0994  2.9451 -1.0308
10270TIP3    H230768   8.194   1.248   2.406  0.6668  0.8534 -0.3073
10271TIP3   OH230769   5.803   4.380   3.934 -0.1163 -0.2773 -0.1797
10271TIP3    H130770   5.867   4.445   3.903 -1.8424  0.7990 -1.6248
10271TIP3    H230771   5.742   4.431   3.988  0.9045 -1.5346  2.3525
10272TIP3   OH230772   0.809   5.382   5.084 -0.1686  0.3890 -0.2384
10272TIP3    H130773   0.714   5.379   5.098 -0.0675  2.4985  1.3395
10272TIP3    H230774   0.845   5.335   5.158  0.0498  0.1411 -0.5012
10273TIP3   OH230775   1.516   5.455   1.720  0.2350  0.5850 -0.1610
10273TIP3    H130776   1.433   5.418   1.752  1.0131 -0.5727  0.5971
10273TIP3    H230777   1.540   5.398   1.646  1.5266 -0.6105  1.1185
10274TIP3   OH230778   4.590   5.611   5.218  0.5685  0.2437 -0.1643
10274TIP3    H130779   4.618   5.695   5.254 -0.7810 -0.0423  1.7383
10274TIP3    H230780   4.652   5.547   5.253 -0.5835  0.0031  1.5738
10275TIP3   OH230781   0.895   5.925   0.577 -0.3949  0.8545 -0.3347
10275TIP3    H130782   0.981   5.890   0.558 -0.4133 -0.9274  2.3688
10275TIP3    H230783   0.909   6.019   0.588  1.4425  0.4707  1.0570
10276TIP3   OH230784   6.567   4.597   2.451  0.4133  0.2160 -0.4999
10276TIP3    H130785   6.598   4.649   2.377  0.5107 -0.4286 -0.9138
10276TIP3    H230786   6.517   4.525   2.412 -0.2303  0.3187  0.0913
10277TIP3   OH230787   7.196   7.458   1.799 -0.4774  0.1583 -0.2807
10277TIP3    H130788   7.247   7.489   1.874  0.8237 -0.4854 -0.8588
10277TIP3    H230789   7.116   7.510   1.800 -0.0019  0.8862  0.9348
10278TIP3   OH230790   1.354   6.158   5.425  0.0771 -0.5196  0.1283
10278TIP3    H130791   1.272   6.155   5.475  0.0464 -0.3567  0.0877
10278TIP3    H230792   1.340   6.226   5.359 -0.4429 -1.7877 -1.1152
10279TIP3   OH230793   1.855   6.838   5.399 -0.1088  0.4529  0.5634
10279TIP3    H130794   1.866   6.889   5.479 -0.7462 -0.8447  1.5094
10279TIP3    H230795   1.911   6.761   5.412 -0.7302 -0.0916  0.0485
10280TIP3   OH230796   4.066   0.376   5.302  0.1354  0.1341  0.1874
10280TIP3    H130797   4.151   0.405   5.336  0.3520 -1.2899  0.9395
10280TIP3    H230798   4.010   0.367   5.379 -0.5091  0.4261 -0.2343
10281TIP3   OH230799   3.365   1.626   1.141  0.0482 -0.5024 -0.0109
10281TIP3    H130800   3.350   1.654   1.050 -2.7387 -1.5218  0.0097
10281TIP3    H230801   3.389   1.706   1.187 -0.0632  0.3538 -1.3626
10282TIP3   OH230802   3.130   1.321   2.983  0.1566  0.0684 -0.3940
10282TIP3    H130803   3.073   1.368   2.922 -1.0872 -0.7780  0.0754
10282TIP3    H230804   3.070   1.271   3.038  1.2443  0.6706  1.4264
10283TIP3   OH230805   5.956   3.277   5.052  0.1685 -0.2433 -0.2991
10283TIP3    H130806   5.860   3.275   5.047 -0.0846  1.9963  1.7140
10283TIP3    H230807   5.976   3.235   5.136  0.8191  0.6767  0.0172
10284TIP3   OH230808   4.416   6.050   0.094 -0.6395 -0.3636 -0.0652
10284TIP3    H130809   4.395   6.036   0.186  0.0292 -0.4121  0.0830
10284TIP3    H230810   4.475   6.124   0.093  1.7322 -2.1357 -0.1464
10285TIP3   OH230811   7.619   5.679   2.223  0.7242  0.4464  0.0402
10285TIP3    H130812   7.668   5.612   2.175 -1.2740 -0.1856 -1.2438
10285TIP3    H230813   7.592   5.742   2.155  0.2591  1.0796  0.7945
10286TIP3   OH230814   3.086   0.433   3.142 -0.3565 -0.1568 -0.4708
10286TIP3    H130815   3.009   0.405   3.092 -0.9595 -0.9712  0.8477
10286TIP3    H230816   3.159   0.423   3.082 -1.1110 -0.6858 -1.3257
10287TIP3   OH230817   5.825   6.014   2.054 -0.1162 -0.1139 -0.1452
10287TIP3    H130818   5.891   6.009   1.985  1.9779 -0.2645  1.7624
10287TIP3    H230819   5.843   5.940   2.111 -1.1112  0.5988  1.1533
10288TIP3   OH230820   5.656   4.344   4.229  0.3176 -0.2297 -0.3331
10288TIP3    H130821   5.591   4.319   4.163  1.5519 -0.0929 -1.6456
10288TIP3    H230822   5.684   4.431   4.204 -0.9512  0.8960  1.8377
10289TIP3   OH230823   8.090   6.699   5.648  0.2470 -0.3711 -0.2538
10289TIP3    H130824   8.094   6.795   5.652  1.6637 -0.4510  1.5569
10289TIP3    H230825   8.015   6.676   5.702  0.4414 -0.3022  0.0490
10290TIP3   OH230826   4.082   6.058   1.189 -0.1237 -0.5546  0.1552
10290TIP3    H130827   4.111   6.108   1.113  0.4413 -0.2480  0.5668
10290TIP3    H230828   4.099   5.967   1.165  0.4281 -0.4322  0.0698
10291TIP3   OH230829   4.340   5.289   3.275 -0.2537 -0.1234 -0.0097
10291TIP3    H130830   4.390   5.251   3.347  0.3161 -1.1191 -0.8990
10291TIP3    H230831   4.407   5.319   3.213 -0.7396 -0.6867 -0.8219
10292TIP3   OH230832   0.608   0.008   0.183 -0.5642 -0.4935 -0.1169
10292TIP3    H130833   0.598  -0.059   0.114  2.4336 -1.3445  0.1394
10292TIP3    H230834   0.645   0.083   0.137 -0.3369 -0.3837  0.2467
10293TIP3   OH230835   1.176   3.471   5.775  0.2670  0.3926 -0.2833
10293TIP3    H130836   1.141   3.433   5.694  0.1066  0.6331 -0.3267
10293TIP3    H230837   1.100   3.510   5.818 -0.0910 -1.6390  1.0567
10294TIP3   OH230838   7.786   2.279   1.084 -0.3470 -0.1338  0.1871
10294TIP3    H130839   7.695   2.260   1.059  0.3120 -0.9989 -1.7274
10294TIP3    H230840   7.805   2.364   1.043 -0.7452  0.8384  1.9229
10295TIP3   OH230841   0.888   2.566   4.558 -0.3153 -0.2143 -0.4263
10295TIP3    H130842   0.873   2.471   4.556 -2.2497  0.0174  0.5977
10295TIP3    H230843   0.810   2.603   4.517 -0.4265  0.9834  0.7980
10296TIP3   OH230844   7.334   7.252   1.336 -0.1877  0.3548 -0.3789
10296TIP3    H130845   7.369   7.309   1.405 -0.5988 -0.8115  0.8123
10296TIP3    H230846   7.391   7.269   1.261  0.4127  1.4790  0.2993
10297TIP3   OH230847   5.024   1.977   2.038  0.0678 -0.4298 -0.1588
10297TIP3    H130848   5.023   1.964   2.133  0.0107  1.0787  0.0618
10297TIP3    H230849   4.939   2.017   2.019 -0.3907 -1.7396 -1.0241
10298TIP3   OH230850   1.110   3.060   3.579  0.1938 -0.0668  0.3849
10298TIP3    H130851   1.087   3.114   3.654  0.9142 -1.5579  1.7518
10298TIP3    H230852   1.047   3.084   3.511 -1.4267  0.2664  1.9439
10299TIP3   OH230853   4.269   7.222   3.334  0.6614 -0.3609 -0.3496
10299TIP3    H130854   4.199   7.256   3.278  1.2291  1.4742 -0.0157
10299TIP3    H230855   4.263   7.273   3.415  0.2593 -2.5387  1.0809
10300TIP3   OH230856   6.679   7.025   5.322  0.4441  0.3707  0.4179
10300TIP3    H130857   6.689   6.947   5.267  1.8895 -0.2394  1.4705
10300TIP3    H230858   6.627   7.086   5.269  0.4675 -0.7729 -0.9760
10301TIP3   OH230859   4.162   1.235   4.762 -0.1757 -0.5126  0.7612
10301TIP3    H130860   4.207   1.151   4.776  0.8555 -0.4376 -1.6130
10301TIP3    H230861   4.115   1.223   4.680 -0.1644  1.1917  0.4797
10302TIP3   OH230862   0.065   4.269   2.454  0.2169  0.3270 -0.0071
10302TIP3    H130863   0.080   4.175   2.446  1.1866  0.5602 -1.4975
10302TIP3    H230864  -0.005   4.288   2.391 -0.3435  0.5378  0.6661
10303TIP3   OH230865   1.139   2.004   2.835  0.6488  0.0129 -1.0857
10303TIP3    H130866   1.213   1.954   2.868  0.8746  0.0049 -1.5915
10303TIP3    H230867   1.178   2.069   2.777  0.3790  0.9400 -0.2526
10304TIP3   OH230868   3.177   4.381   3.897  0.4556 -0.0276  0.2956
10304TIP3    H130869   3.094   4.369   3.850  0.6369  0.4955 -0.1647
10304TIP3    H230870   3.158   4.350   3.986  0.2904 -1.6451 -0.2604
10305TIP3   OH230871   1.481   1.234   5.618  0.3980  0.1267  0.0197
10305TIP3    H130872   1.489   1.275   5.704 -1.3296  0.0349  0.2467
10305TIP3    H230873   1.553   1.272   5.567  1.9574 -0.3949  1.7003
10306TIP3   OH230874   5.285   1.104   2.255  0.1564  0.4818 -0.7220
10306TIP3    H130875   5.216   1.041   2.233  2.0468 -2.0985  0.2671
10306TIP3    H230876   5.248   1.156   2.327 -1.0317 -0.2984 -0.7488
10307TIP3   OH230877   3.378   2.135   4.664 -0.0559 -0.6871 -0.5213
10307TIP3    H130878   3.316   2.091   4.606  2.3962 -0.7731 -3.2939
10307TIP3    H230879   3.338   2.221   4.679 -0.5649 -0.4424 -2.8621
10308TIP3   OH230880   5.415   3.359   2.404  0.8602  0.1618  0.2519
10308TIP3    H130881   5.466   3.381   2.481  1.2100  0.1300  0.0340
10308TIP3    H230882   5.335   3.410   2.413 -0.2197 -1.7070  1.8793
10309TIP3   OH230883   1.660   4.091   0.197 -0.0882  0.5097 -0.3442
10309TIP3    H130884   1.612   4.029   0.252 -0.5714  1.2068  0.0217
10309TIP3    H230885   1.697   4.155   0.257  1.1171  0.1286 -0.6420
10310TIP3   OH230886   1.866   3.085   6.560  0.9854  0.8912  0.0895
10310TIP3    H130887   1.884   3.092   6.653  0.3351  0.3277  0.2629
10310TIP3    H230888   1.887   2.994   6.538 -0.2738  0.6059  0.0101
10311TIP3   OH230889   3.216   4.529   3.615  0.1269  0.5355  0.2345
10311TIP3    H130890   3.196   4.480   3.534 -1.5158  1.3300  0.1194
10311TIP3    H230891   3.242   4.461   3.677  0.2069 -0.2316 -0.6074
10312TIP3   OH230892   6.604   0.148   4.472 -0.5665 -0.3118  0.3024
10312TIP3    H130893   6.681   0.108   4.432  0.3556  0.7975  0.9001
10312TIP3    H230894   6.565   0.079   4.525  1.3940 -0.3124  1.8824
10313TIP3   OH230895   1.751   7.569   5.627 -0.5040  0.5881 -0.4103
10313TIP3    H130896   1.806   7.647   5.627  1.7541 -0.8993 -0.6535
10313TIP3    H230897   1.777   7.522   5.707 -1.1610 -0.3555 -0.7341
10314TIP3   OH230898   3.756   0.516   5.944 -0.1195  0.0965  0.6832
10314TIP3    H130899   3.761   0.450   5.875  0.6395  1.7666 -0.9385
10314TIP3    H230900   3.663   0.536   5.953 -0.4513 -1.6175  1.7098
10315TIP3   OH230901   5.106   0.402   5.338  0.0214  0.2141  0.3710
10315TIP3    H130902   5.165   0.406   5.263 -1.1460  1.4326 -0.5366
10315TIP3    H230903   5.149   0.454   5.406  1.0909 -0.9031  0.5794
10316TIP3   OH230904   4.689   4.895   3.589  0.0932 -0.3986 -1.3018
10316TIP3    H130905   4.627   4.852   3.648 -0.5585  1.3352 -0.6598
10316TIP3    H230906   4.774   4.858   3.612 -0.1282  0.3009  0.8593
10317TIP3   OH230907   0.878   5.548   2.993 -0.0678  0.2215 -0.3506
10317TIP3    H130908   0.865   5.453   2.998  0.3000  0.1736 -0.2866
10317TIP3    H230909   0.822   5.576   2.920 -1.3579  0.1782  0.5803
10318TIP3   OH230910   1.762   5.865   0.308 -0.2465 -0.3640 -0.1962
10318TIP3    H130911   1.690   5.811   0.275 -0.8389 -0.3343  0.9797
10318TIP3    H230912   1.831   5.857   0.242 -0.7127 -1.7071 -0.5436
10319TIP3   OH230913   5.080   5.772   6.394 -0.5032  0.0737 -0.3737
10319TIP3    H130914   5.148   5.729   6.446  1.1113  0.0796 -2.3604
10319TIP3    H230915   5.031   5.701   6.354 -1.2855  0.0771  0.5515
10320TIP3   OH230916   6.477   0.123   3.363 -0.3514  0.2178  0.3537
10320TIP3    H130917   6.568   0.149   3.350 -0.3833  0.3779  0.4393
10320TIP3    H230918   6.460   0.058   3.296  0.5004 -1.4885  1.7079
10321TIP3   OH230919   5.110   5.973   3.411 -0.3902 -0.3754  0.7930
10321TIP3    H130920   5.117   6.017   3.496 -0.8550  1.8076 -0.2375
10321TIP3    H230921   5.048   6.026   3.361 -0.2844 -1.7189 -0.8613
10322TIP3   OH230922   0.685   3.234   3.453  0.4894 -0.0176  0.2664
10322TIP3    H130923   0.761   3.273   3.410 -0.7740  3.3072  0.7026
10322TIP3    H230924   0.615   3.239   3.387  0.2294 -1.6173  0.3755
10323TIP3   OH230925   2.558   5.951   2.960 -0.1114 -0.4245  0.4304
10323TIP3    H130926   2.554   6.020   2.894 -0.5750  0.6713  1.5688
10323TIP3    H230927   2.652   5.941   2.978  0.0282 -0.8120 -0.4402
10324TIP3   OH230928   0.256   2.931   3.371 -0.1033 -0.2904  0.0366
10324TIP3    H130929   0.195   2.919   3.298  0.0711 -0.5245 -0.0717
10324TIP3    H230930   0.237   3.019   3.403 -0.2098 -0.1994 -0.2652
10325TIP3   OH230931   3.568   4.438   2.240 -0.1966  0.3510 -0.0865
10325TIP3    H130932   3.588   4.407   2.151  2.2409  0.6500  0.3045
10325TIP3    H230933   3.505   4.509   2.226  0.2465  0.4921 -1.5805
10326TIP3   OH230934   2.512   6.346   6.170  0.0752  0.2523  0.3348
10326TIP3    H130935   2.565   6.309   6.241  0.9556  0.9643  0.0556
10326TIP3    H230936   2.450   6.276   6.148  0.9564 -0.6325  0.5942
10327TIP3   OH230937   6.338   0.204   4.440  0.0149  0.2157 -0.4487
10327TIP3    H130938   6.312   0.165   4.357 -0.3080 -1.9524  0.6045
10327TIP3    H230939   6.434   0.211   4.435  0.2059 -1.8170 -0.2596
10328TIP3   OH230940   2.605   5.652   5.224 -0.0111 -0.4441 -0.0813
10328TIP3    H130941   2.539   5.713   5.257 -0.9773 -1.1671 -0.6671
10328TIP3    H230942   2.670   5.709   5.181 -0.2244  0.2673  0.5139
10329TIP3   OH230943   2.677   7.699   6.313 -0.5435 -0.3678  0.1535
10329TIP3    H130944   2.680   7.604   6.327  0.7030 -0.2410  1.0027
10329TIP3    H230945   2.627   7.732   6.387 -1.4280 -0.3978 -0.4248
10330TIP3   OH230946   2.429   2.580   0.409 -0.3236  0.1970  0.5577
10330TIP3    H130947   2.515   2.593   0.369 -0.9163  2.7250 -0.0832
10330TIP3    H230948   2.373   2.550   0.337  0.0038 -1.5110  0.9887
10331TIP3   OH230949   7.294   5.803   6.512  0.5763 -0.4302 -0.4603
10331TIP3    H130950   7.338   5.744   6.573  0.6503  0.5369  0.4606
10331TIP3    H230951   7.363   5.835   6.455  1.2441  1.3964  1.2353
10332TIP3   OH230952   2.996   3.428   3.232 -0.2294  0.0367  0.6207
10332TIP3    H130953   3.055   3.357   3.206  0.9582  1.1973  0.0922
10332TIP3    H230954   2.943   3.445   3.154  0.9972  1.2039  0.0188
10333TIP3   OH230955   4.261   0.920   2.162  0.1314 -0.6358  0.5955
10333TIP3    H130956   4.175   0.885   2.187 -0.1506  0.3427  1.0289
10333TIP3    H230957   4.305   0.939   2.245  0.5815 -0.6783  0.3698
10334TIP3   OH230958   4.749   6.568   5.316  0.3577 -0.8230  0.1540
10334TIP3    H130959   4.658   6.540   5.316  0.2075 -0.4647 -1.5218
10334TIP3    H230960   4.788   6.527   5.393 -0.7652 -2.5174 -0.1493
10335TIP3   OH230961   1.979   0.814   2.366  0.2730 -0.3920 -0.4445
10335TIP3    H130962   1.926   0.747   2.410  0.1244 -1.6433 -2.4109
10335TIP3    H230963   1.938   0.897   2.390 -0.1501 -1.0421  1.2441
10336TIP3   OH230964   4.637   6.158   6.507 -0.0422 -0.2970 -0.2233
10336TIP3    H130965   4.715   6.203   6.540  0.0561 -1.3269  1.0314
10336TIP3    H230966   4.668   6.113   6.428  0.4631 -0.1622 -0.1077
10337TIP3   OH230967   2.691   7.314   5.605  0.3662 -0.3365  0.4400
10337TIP3    H130968   2.654   7.241   5.556  2.6280 -1.4705  0.2845
10337TIP3    H230969   2.650   7.391   5.567 -2.4551 -1.4599  0.9119
10338TIP3   OH230970   0.498   0.507   0.570 -0.3770 -0.3253  0.0587
10338TIP3    H130971   0.517   0.512   0.664 -1.3571 -1.5083  0.3517
10338TIP3    H230972   0.469   0.417   0.556  0.2708 -0.3272 -1.4960
10339TIP3   OH230973   0.916   0.127   0.690  0.6473 -0.3411 -0.0798
10339TIP3    H130974   0.830   0.132   0.649  0.9542 -1.3664 -0.8846
10339TIP3    H230975   0.899   0.140   0.784 -0.4404 -0.9819 -0.1805
10340TIP3   OH230976   6.495   6.977   5.003 -0.3724  0.0930 -0.1513
10340TIP3    H130977   6.430   6.908   5.020  0.3843 -0.3268  1.1925
10340TIP3    H230978   6.465   7.051   5.056  0.3639 -0.1966  0.7017
10341TIP3   OH230979   3.769   2.436   4.597 -0.4937  0.5953 -0.6873
10341TIP3    H130980   3.856   2.440   4.557  0.0620  0.9004  0.5062
10341TIP3    H230981   3.711   2.475   4.532  0.4040  1.1844 -1.1590
10342TIP3   OH230982   3.484   3.249   3.915 -0.2519  0.2940  0.1223
10342TIP3    H130983   3.541   3.288   3.982 -1.1202  0.1843  0.9433
10342TIP3    H230984   3.445   3.325   3.870  1.5348  0.4097 -1.3851
10343TIP3   OH230985   4.208   5.981   2.266  0.0137  0.4702  0.9742
10343TIP3    H130986   4.165   5.911   2.315  0.9374 -0.5261  0.3998
10343TIP3    H230987   4.147   6.002   2.195  0.1116 -0.3667  0.6364
10344TIP3   OH230988   1.801   6.347   0.285 -0.1399  0.4486  0.1489
10344TIP3    H130989   1.778   6.278   0.347 -1.5937 -0.5149 -1.3509
10344TIP3    H230990   1.788   6.307   0.199 -0.4538  2.4111 -0.7746
10345TIP3   OH230991   4.913   5.939   4.537  0.6927 -0.5427 -0.4330
10345TIP3    H130992   4.899   5.881   4.611 -0.0537  0.4950  0.2628
10345TIP3    H230993   4.830   5.938   4.489  0.6606 -0.0472 -0.3973
10346TIP3   OH230994   0.484   0.869   5.861 -0.5769  0.1415 -0.1584
10346TIP3    H130995   0.506   0.832   5.946  0.4783 -0.8829 -0.8459
10346TIP3    H230996   0.523   0.956   5.861 -0.1635 -0.0427  0.2343
10347TIP3   OH230997   6.618   4.606   2.720  0.1200  0.5655  0.6723
10347TIP3    H130998   6.611   4.599   2.625 -1.7435 -3.7688  0.8884
10347TIP3    H230999   6.533   4.638   2.749 -0.2659 -0.6577  0.9465
10348TIP3   OH231000   4.717   0.366   4.084 -0.1640 -0.2328  0.8527
10348TIP3    H131001   4.735   0.274   4.105  0.2705  0.2138  2.6686
10348TIP3    H231002   4.627   0.380   4.114 -0.9628 -0.5346 -1.2575
10349TIP3   OH231003   2.348   3.172   5.002 -0.2234 -0.1854  0.5265
10349TIP3    H131004   2.321   3.090   4.959  0.6580  0.4682 -1.3627
10349TIP3    H231005   2.269   3.202   5.047 -1.8892  0.1150 -2.3458
10350TIP3   OH231006   4.536   4.523   2.838  0.0730 -1.0407 -0.4011
10350TIP3    H131007   4.456   4.521   2.891 -0.0537 -4.0777 -0.5200
10350TIP3    H231008   4.599   4.472   2.890  1.1355 -0.7921 -1.4279
10351TIP3   OH231009   6.994   3.688   0.524 -0.0637  0.0516  0.1359
10351TIP3    H131010   7.033   3.736   0.597 -0.6052  1.4801 -0.4770
10351TIP3    H231011   7.053   3.702   0.450  0.8202 -1.9125  0.3898
10352TIP3   OH231012   3.026   4.168   6.457  0.1081 -0.1798 -0.4703
10352TIP3    H131013   3.028   4.254   6.414  0.1640  0.3958  0.6412
10352TIP3    H231014   2.958   4.120   6.410 -0.6406  0.8334 -0.4656
10353TIP3   OH231015   7.134   4.920   4.506 -0.3350  0.4664 -0.1001
10353TIP3    H131016   7.045   4.896   4.481  0.2910 -2.6902  0.2940
10353TIP3    H231017   7.132   4.919   4.602  0.1980  0.0310 -0.0923
10354TIP3   OH231018   3.550   1.818   5.913  0.2982  0.2629 -0.1182
10354TIP3    H131019   3.599   1.852   5.988 -1.0925  2.2341 -0.0139
10354TIP3    H231020   3.517   1.733   5.943  0.8053  0.4409  1.0238
10355TIP3   OH231021   3.866   6.354   4.387  0.2435 -0.0748 -0.0815
10355TIP3    H131022   3.902   6.360   4.476  0.4828 -1.9160 -0.0226
10355TIP3    H231023   3.942   6.332   4.332 -0.2018 -0.6866 -0.4656
10356TIP3   OH231024   1.985   0.230   2.730 -0.2254  0.1131  0.2015
10356TIP3    H131025   2.076   0.208   2.749  0.0310 -0.4777 -1.4828
10356TIP3    H231026   1.934   0.165   2.778  0.3907 -1.5493 -1.2396
10357TIP3   OH231027   6.659   1.861   1.193  0.1309 -0.1844  0.2264
10357TIP3    H131028   6.571   1.854   1.232  0.0456 -0.0471  0.0575
10357TIP3    H231029   6.645   1.849   1.099  0.4319 -1.2860  0.3055
10358TIP3   OH231030   3.029   1.546   1.619 -0.1997 -0.4177 -0.8845
10358TIP3    H131031   3.073   1.609   1.675 -1.7734 -0.2409  0.2238
10358TIP3    H231032   3.071   1.556   1.533  1.8024 -0.2216  0.0609
10359TIP3   OH231033   4.817   7.487   4.692 -0.4124  0.5018  0.2125
10359TIP3    H131034   4.883   7.537   4.645 -0.7851  1.1327  0.3443
10359TIP3    H231035   4.845   7.396   4.684 -0.1974  0.6413 -0.8004
10360TIP3   OH231036   7.790   7.622   2.222 -0.6492 -0.0049 -0.3796
10360TIP3    H131037   7.822   7.692   2.279 -1.4450  0.2107 -0.1848
10360TIP3    H231038   7.833   7.638   2.138 -0.3088  0.3210 -0.1454
10361TIP3   OH231039   7.123   4.444   0.638 -0.2939 -0.2347  0.2581
10361TIP3    H131040   7.162   4.391   0.708  0.6428  0.1081  0.0022
10361TIP3    H231041   7.059   4.499   0.683  1.2806  0.9988  1.1053
10362TIP3   OH231042   1.633   7.788   3.392 -0.4398 -0.4316 -0.3548
10362TIP3    H131043   1.560   7.725   3.391  0.2562 -1.5371  3.3082
10362TIP3    H231044   1.702   7.746   3.342 -0.7287 -1.6184  0.2141
10363TIP3   OH231045   2.735   5.727   0.610 -0.1153 -0.3288  0.0301
10363TIP3    H131046   2.814   5.708   0.560 -0.5488 -3.4122  0.3127
10363TIP3    H231047   2.683   5.785   0.554  1.8838  1.0152 -0.5281
10364TIP3   OH231048   0.423   6.256   5.884  0.4599 -0.3648 -0.0945
10364TIP3    H131049   0.351   6.238   5.824  0.2272  1.0809 -0.2947
10364TIP3    H231050   0.431   6.177   5.937 -0.1537 -1.1915 -1.1919
10365TIP3   OH231051   6.807   0.758   6.455  0.2012 -0.1620  0.2938
10365TIP3    H131052   6.760   0.690   6.503 -0.3338 -0.3421 -0.4731
10365TIP3    H231053   6.831   0.717   6.372  0.3080  0.4342  0.0248
10366TIP3   OH231054   1.787   7.550   2.595  0.2353 -0.5115  0.1204
10366TIP3    H131055   1.710   7.505   2.630  0.9656 -0.2323  2.2682
10366TIP3    H231056   1.760   7.582   2.509 -1.4486 -1.9208  0.0756
10367TIP3   OH231057   4.051   5.667   5.560 -0.0942 -0.2017 -0.2862
10367TIP3    H131058   4.033   5.659   5.466 -0.0588  0.5740 -0.3602
10367TIP3    H231059   4.125   5.608   5.575  1.5256  1.4915 -1.2147
10368TIP3   OH231060   2.570   3.987   1.795  0.2639  0.0419 -0.3161
10368TIP3    H131061   2.522   4.055   1.842  0.1186 -0.7092  0.6613
10368TIP3    H231062   2.575   3.914   1.857  0.0299 -1.0080 -1.4890
10369TIP3   OH231063   4.557   1.999   2.979 -0.0635 -0.0351 -0.7296
10369TIP3    H131064   4.524   2.014   3.068 -0.7226 -2.6514 -0.4382
10369TIP3    H231065   4.528   1.910   2.958  1.5062 -0.1008 -2.9418
10370TIP3   OH231066   5.731   1.345   3.995 -0.0855  0.4104 -0.3174
10370TIP3    H131067   5.795   1.292   4.043 -1.1795 -0.6996 -0.0372
10370TIP3    H231068   5.716   1.421   4.051  1.3311  0.9410 -0.6132
10371TIP3   OH231069   1.008   1.238   2.413  0.4418 -0.1339  0.3474
10371TIP3    H131070   0.960   1.156   2.423  0.3994  0.0015  1.3448
10371TIP3    H231071   0.943   1.307   2.426  0.1132  0.1198 -2.1496
10372TIP3   OH231072   4.610   0.461   5.513  0.2263 -0.5553 -0.5394
10372TIP3    H131073   4.652   0.487   5.595 -0.8061  0.5101 -0.3331
10372TIP3    H231074   4.531   0.513   5.508  0.9633  0.4902 -2.9320
10373TIP3   OH231075   1.989   0.455   5.834  0.0898  0.2417 -0.2650
10373TIP3    H131076   2.023   0.369   5.810 -0.7837 -0.1807 -0.0386
10373TIP3    H231077   2.043   0.517   5.787  0.6829 -0.4393 -0.4912
10374TIP3   OH231078   4.075   1.646   4.236 -0.1330 -0.1446  0.0256
10374TIP3    H131079   4.024   1.721   4.264 -1.0182 -0.7007 -0.0685
10374TIP3    H231080   4.163   1.663   4.270 -0.3282  0.9100  0.0255
10375TIP3   OH231081   7.289   2.385   5.387 -0.1598  0.3183  0.2350
10375TIP3    H131082   7.308   2.473   5.420  1.1378  1.0280 -2.1737
10375TIP3    H231083   7.325   2.384   5.299  0.5575 -2.9161  0.4307
10376TIP3   OH231084   5.753   0.622   4.776  0.5716  0.2925  0.3726
10376TIP3    H131085   5.692   0.695   4.779  0.0807 -0.0733 -0.3716
10376TIP3    H231086   5.701   0.549   4.742  0.9902 -0.4620  1.3280
10377TIP3   OH231087   2.873   2.999   3.742  0.1229  0.0913  0.2793
10377TIP3    H131088   2.916   3.085   3.742 -0.2370  0.3855 -2.9573
10377TIP3    H231089   2.781   3.019   3.722  0.4155 -1.0708 -2.7302
10378TIP3   OH231090   2.958   1.211   4.661 -0.5346  0.8774 -0.2687
10378TIP3    H131091   3.034   1.268   4.673 -0.3457  0.6913 -0.5874
10378TIP3    H231092   2.983   1.129   4.704 -0.2860  0.5823 -0.9734
10379TIP3   OH231093   1.438   1.672   0.174 -0.4209  0.1585 -0.3112
10379TIP3    H131094   1.349   1.668   0.140 -0.6982 -0.7437  0.4849
10379TIP3    H231095   1.429   1.664   0.269  0.4991  0.1075 -0.2162
10380TIP3   OH231096   5.972   1.414   0.829 -0.7556 -0.6798 -0.0024
10380TIP3    H131097   6.040   1.358   0.792  0.1144 -0.5459  1.3226
10380TIP3    H231098   6.006   1.503   0.820 -2.3145 -0.2302 -2.4873
10381TIP3   OH231099   1.871   0.546   3.851  0.1157 -0.4610  0.3774
10381TIP3    H131100   1.865   0.637   3.881 -0.4356 -0.3949  0.0837
10381TIP3    H231101   1.908   0.499   3.926 -0.1327 -0.0930  0.7397
10382TIP3   OH231102   7.368   4.599   4.568 -0.0099  0.2284 -0.5619
10382TIP3    H131103   7.290   4.593   4.513  0.3352 -1.9262 -0.9025
10382TIP3    H231104   7.378   4.692   4.585 -0.7292  0.8956 -3.3032
10383TIP3   OH231105   3.151   6.292   3.502 -0.0081  0.0317  0.1871
10383TIP3    H131106   3.190   6.357   3.443  0.7518  1.1677  1.8544
10383TIP3    H231107   3.224   6.236   3.529 -0.2543 -0.1802  0.4182
10384TIP3   OH231108   7.487   1.759   1.610  0.1702  0.2400  0.4028
10384TIP3    H131109   7.521   1.674   1.583 -1.1357 -0.5797  1.2022
10384TIP3    H231110   7.401   1.766   1.568  0.6559  1.6050 -0.4161
10385TIP3   OH231111   6.911   5.784   1.038  0.0519 -0.1619 -0.0812
10385TIP3    H131112   6.883   5.696   1.010 -0.0102 -0.0199 -0.4774
10385TIP3    H231113   6.846   5.843   1.000  0.4238  0.1040 -0.3148
10386TIP3   OH231114   5.875   3.053   3.639  0.3023 -0.5866 -1.0788
10386TIP3    H131115   5.913   2.967   3.653 -0.8427 -1.0047 -0.3978
10386TIP3    H231116   5.949   3.110   3.620  1.0306 -1.8197 -2.0692
10387TIP3   OH231117   2.881   5.811   2.496 -0.1456 -0.5207 -0.3291
10387TIP3    H131118   2.836   5.755   2.433 -0.1522 -0.6670 -0.1949
10387TIP3    H231119   2.968   5.826   2.457 -0.2650 -0.3381 -0.5294
10388TIP3   OH231120   1.819   4.169   1.329  0.2541  0.0637 -0.2358
10388TIP3    H131121   1.736   4.140   1.367  0.1403 -0.7987 -1.1153
10388TIP3    H231122   1.809   4.264   1.319  0.0414  0.2252  1.2435
10389TIP3   OH231123   0.891   1.874   2.907  0.8724 -0.6190  0.8023
10389TIP3    H131124   0.814   1.925   2.884  0.3277 -0.9199  1.8928
10389TIP3    H231125   0.965   1.932   2.890  0.2985  0.3142  1.4276
10390TIP3   OH231126   1.997   3.010   1.716  0.0005 -0.1830  0.0789
10390TIP3    H131127   2.023   2.963   1.637  0.1689 -0.6960  0.4287
10390TIP3    H231128   1.948   3.086   1.685  1.5294  0.5647 -0.5838
10391TIP3   OH231129   4.748   5.183   1.682 -0.5471 -0.0009 -0.1509
10391TIP3    H131130   4.690   5.124   1.730 -0.4270  0.1613  0.1966
10391TIP3    H231131   4.714   5.182   1.593  0.1869 -1.5535 -0.4550
10392TIP3   OH231132   4.361   0.657   3.900  0.0037 -0.0358 -0.0614
10392TIP3    H131133   4.276   0.650   3.942 -0.2280 -0.5323 -0.6030
10392TIP3    H231134   4.371   0.750   3.880 -0.1178  0.1220  0.5907
10393TIP3   OH231135   4.194   4.621   3.848  0.1412  0.4360 -0.1542
10393TIP3    H131136   4.286   4.622   3.824  0.0524 -0.7324 -0.6571
10393TIP3    H231137   4.191   4.653   3.938  0.8460  1.9672 -0.6587
10394TIP3   OH231138   7.563   2.782   2.229  0.4958 -0.0365 -0.7706
10394TIP3    H131139   7.469   2.772   2.215  0.3466 -0.2963  0.2912
10394TIP3    H231140   7.600   2.695   2.213  0.3795 -0.2370  0.0247
10395TIP3   OH231141   0.897   0.328   3.422  0.4430  0.0443  0.0726
10395TIP3    H131142   0.958   0.396   3.450  0.5454  0.2984 -0.7519
10395TIP3    H231143   0.942   0.283   3.350 -0.5775  0.6508 -0.9900
10396TIP3   OH231144   0.569   0.768   6.691 -0.3788  0.2750 -0.3209
10396TIP3    H131145   0.623   0.697   6.655 -0.3040  1.2809 -2.3441
10396TIP3    H231146   0.509   0.724   6.751 -0.6615 -1.5878 -1.8696
10397TIP3   OH231147   2.090   5.097   4.767 -0.8660  0.0276  0.5650
10397TIP3    H131148   2.038   5.157   4.713 -2.2925 -1.6123  0.0589
10397TIP3    H231149   2.073   5.126   4.857 -1.4852  0.4254  0.3320
10398TIP3   OH231150   5.166   6.308   5.610 -0.0875  0.4147  0.1839
10398TIP3    H131151   5.115   6.231   5.636 -0.1165 -0.1034 -1.2984
10398TIP3    H231152   5.112   6.382   5.638 -0.9331 -0.1203  0.0237
10399TIP3   OH231153   1.551   0.795   1.853  0.0697 -0.4942  0.3654
10399TIP3    H131154   1.574   0.852   1.927  2.2981  0.1886 -0.7417
10399TIP3    H231155   1.587   0.709   1.877 -0.4708 -0.6352  0.6762
10400TIP3   OH231156   7.211   1.265   1.951 -0.1836 -0.0807  0.0301
10400TIP3    H131157   7.147   1.196   1.969 -1.9770  1.7395  1.0597
10400TIP3    H231158   7.187   1.335   2.011  1.8839  1.2574 -0.6359
10401TIP3   OH231159   1.609   2.445   1.103  0.0258  0.9161  0.1581
10401TIP3    H131160   1.519   2.414   1.093  0.4590 -0.8093  1.3703
10401TIP3    H231161   1.649   2.432   1.017 -0.5288  0.5315 -0.0424
10402TIP3   OH231162   4.566   1.576   1.136  0.5978  0.4891  0.4076
10402TIP3    H131163   4.555   1.508   1.070 -2.7020  1.6756 -0.4588
10402TIP3    H231164   4.650   1.617   1.115  1.0511 -1.1166 -1.1211
10403TIP3   OH231165   7.232   5.014   5.618  0.4740  0.3614 -0.3067
10403TIP3    H131166   7.296   4.965   5.567  1.1954  1.9982 -1.0210
10403TIP3    H231167   7.180   4.946   5.662  1.1658 -1.0419 -1.5617
10404TIP3   OH231168   6.302   3.753   5.874  0.1662 -0.2686  0.0853
10404TIP3    H131169   6.286   3.755   5.779  1.6874 -1.2673 -0.2390
10404TIP3    H231170   6.370   3.819   5.888 -0.2071  0.0267  0.5268
10405TIP3   OH231171   0.523   5.418   1.869 -0.3095  0.6344 -0.0561
10405TIP3    H131172   0.618   5.410   1.853  0.0686  1.0906  1.7287
10405TIP3    H231173   0.513   5.398   1.962 -2.2954 -1.7130 -0.6522
10406TIP3   OH231174   5.034   2.666   5.648  0.0769  0.4307 -0.1927
10406TIP3    H131175   4.999   2.582   5.618 -0.8750  0.7262  0.0580
10406TIP3    H231176   5.085   2.698   5.574 -1.3425  0.6450 -1.1290
10407TIP3   OH231177   6.963   0.681   4.258 -0.7709  0.4418  0.1871
10407TIP3    H131178   6.976   0.589   4.283 -1.1746 -0.2047 -1.8174
10407TIP3    H231179   6.934   0.677   4.167  1.3823  2.6719 -0.6967
10408TIP3   OH231180   8.115   7.583   3.171  0.2002 -0.3278 -0.6450
10408TIP3    H131181   8.035   7.539   3.141  0.8215 -0.7754 -1.6671
10408TIP3    H231182   8.182   7.516   3.169  0.0967 -0.7254  2.8909
10409TIP3   OH231183   0.336   3.650   3.183  0.4957  0.3779 -0.3818
10409TIP3    H131184   0.394   3.586   3.142 -1.2672 -0.5456 -1.5362
10409TIP3    H231185   0.281   3.598   3.242 -1.0882  0.7561 -1.4761
10410TIP3   OH231186   5.977   7.254   1.422 -0.3187  0.1810 -0.4415
10410TIP3    H131187   6.001   7.195   1.493  0.6535  0.7805 -0.2462
10410TIP3    H231188   5.941   7.197   1.353  0.3443 -0.5946 -0.1535
10411TIP3   OH231189   2.194   4.177   5.298 -0.5719  0.5815 -0.0092
10411TIP3    H131190   2.253   4.182   5.223 -0.2590  0.3670  0.2178
10411TIP3    H231191   2.220   4.096   5.343  0.7446  1.8070  1.5692
10412TIP3   OH231192   8.237   1.628   4.798 -0.1659  0.3755 -0.3312
10412TIP3    H131193   8.235   1.539   4.763  1.1125 -0.4606  1.5563
10412TIP3    H231194   8.254   1.683   4.722 -1.5056 -0.8987 -1.6301
10413TIP3   OH231195   8.203   3.101   5.870 -0.8255 -0.2865  0.3025
10413TIP3    H131196   8.213   3.172   5.934 -0.7975 -0.6280  0.6825
10413TIP3    H231197   8.114   3.069   5.885 -1.4103  0.6710 -0.9157
10414TIP3   OH231198   1.305   3.119   0.668  0.3758 -0.2918 -0.0211
10414TIP3    H131199   1.246   3.130   0.742 -0.5004 -1.8759 -0.4382
10414TIP3    H231200   1.393   3.122   0.706 -0.0297 -0.0803  0.9163
10415TIP3   OH231201   7.967   7.219   1.274 -0.1811  0.3319  0.6108
10415TIP3    H131202   7.883   7.178   1.253 -0.5537  1.5919 -0.5609
10415TIP3    H231203   7.998   7.174   1.352 -1.9318 -0.1897  1.0427
10416TIP3   OH231204   6.588   6.433   3.603  0.0303  0.0588  0.1365
10416TIP3    H131205   6.538   6.470   3.530  0.2136  0.4284  0.1936
10416TIP3    H231206   6.588   6.502   3.670 -0.5053 -0.4385  0.6616
10417TIP3   OH231207   4.341   6.067   1.322 -0.2365 -0.1622 -0.5912
10417TIP3    H131208   4.415   6.065   1.262  0.6578  0.7478  0.4296
10417TIP3    H231209   4.264   6.072   1.265  0.4384 -1.4828 -1.6799
10418TIP3   OH231210   1.062   4.166   4.305  0.3302 -0.0808  0.1481
10418TIP3    H131211   1.049   4.231   4.236  2.5417 -0.5256 -0.7859
10418TIP3    H231212   1.071   4.083   4.257  1.6701 -0.4261  0.9525
10419TIP3   OH231213   3.685   2.469   1.262 -0.3790  0.2831  0.0387
10419TIP3    H131214   3.750   2.451   1.194 -2.0366  1.6070 -1.9998
10419TIP3    H231215   3.654   2.382   1.289  1.2101 -0.3028  0.0739
10420TIP3   OH231216   5.054   5.813   0.232  0.3576 -0.0489 -0.3990
10420TIP3    H131217   5.007   5.836   0.151  0.2985 -1.7541 -0.8795
10420TIP3    H231218   5.141   5.787   0.203  0.2889 -0.8208  0.0557
10421TIP3   OH231219   3.172   4.188   0.221  0.2916  0.1835 -0.0185
10421TIP3    H131220   3.257   4.200   0.179  1.1322 -0.5612  1.3841
10421TIP3    H231221   3.126   4.126   0.164  0.6769  0.5947 -0.7938
10422TIP3   OH231222   3.167   1.602   5.408  0.5693  0.1270 -0.0711
10422TIP3    H131223   3.147   1.517   5.370 -0.1019  0.0522  0.4368
10422TIP3    H231224   3.156   1.590   5.502 -2.4259  1.4916 -0.1337
10423TIP3   OH231225   5.756   4.905   0.499  0.2264  0.0982 -0.5579
10423TIP3    H131226   5.694   4.910   0.572  1.6493  0.2114  0.7134
10423TIP3    H231227   5.703   4.916   0.421 -1.7809 -2.5855  0.2653
10424TIP3   OH231228   5.488   5.365   4.356 -0.4734 -0.2658  0.3438
10424TIP3    H131229   5.439   5.371   4.438 -0.7413  0.3464  0.1442
10424TIP3    H231230   5.487   5.454   4.321  0.7215 -0.2540  0.2908
10425TIP3   OH231231   1.017   7.399   1.933  0.7870 -0.2821 -0.0579
10425TIP3    H131232   1.032   7.342   1.857  0.6378  0.7383 -0.8874
10425TIP3    H231233   0.973   7.343   1.997 -0.0221 -0.9299 -1.1275
10426TIP3   OH231234   5.791   2.826   6.531 -0.0663  0.2830  0.4711
10426TIP3    H131235   5.761   2.846   6.620 -0.4472 -0.6075  0.5628
10426TIP3    H231236   5.824   2.736   6.537 -1.4386 -0.3258 -0.5825
10427TIP3   OH231237   6.793   3.793   6.119  0.1592 -0.0432  0.0852
10427TIP3    H131238   6.742   3.800   6.200 -0.9086 -2.3963 -0.2919
10427TIP3    H231239   6.884   3.802   6.147 -0.1403 -1.4949  1.6877
10428TIP3   OH231240   7.532   4.889   5.617 -0.4013 -0.2556 -0.9970
10428TIP3    H131241   7.509   4.926   5.532  3.1948 -1.5359 -2.6919
10428TIP3    H231242   7.600   4.946   5.651 -1.9957  0.4274  1.3267
10429TIP3   OH231243   3.408   4.924   4.231  0.2958  0.4819  0.1553
10429TIP3    H131244   3.415   4.896   4.322 -1.6147  0.8788  0.4744
10429TIP3    H231245   3.440   5.014   4.231  2.5927 -0.2789 -0.0827
10430TIP3   OH231246   3.736   6.380   2.744  0.0159 -0.2821  0.2951
10430TIP3    H131247   3.668   6.374   2.677 -0.3654 -0.9492  0.7380
10430TIP3    H231248   3.696   6.344   2.823  0.5463  0.2637  0.8269
10431TIP3   OH231249   6.463   4.860   1.398 -0.4730 -0.1046 -0.1993
10431TIP3    H131250   6.395   4.926   1.395 -0.7477 -0.3751 -3.6895
10431TIP3    H231251   6.545   4.909   1.393 -0.5467  0.0776  0.3603
10432TIP3   OH231252   2.146   3.567   1.344 -0.1394  0.6073  0.2042
10432TIP3    H131253   2.135   3.484   1.391 -1.8460  1.7143  1.8836
10432TIP3    H231254   2.227   3.604   1.381  1.5711 -0.9361 -1.7117
10433TIP3   OH231255   4.015   3.956   3.922 -0.1692 -0.1083  0.0942
10433TIP3    H131256   4.041   4.040   3.884  1.6152 -0.3258  0.7064
10433TIP3    H231257   3.965   3.913   3.853  1.0835  0.4213 -1.1984
10434TIP3   OH231258   2.336   3.327   5.401  0.0416  0.4344 -0.1795
10434TIP3    H131259   2.308   3.302   5.313 -1.4861  0.5146  0.2655
10434TIP3    H231260   2.427   3.299   5.405 -0.0310 -0.0988 -1.5829
10435TIP3   OH231261   6.863   0.310   3.574  0.5117  0.5266  0.4909
10435TIP3    H131262   6.946   0.284   3.534 -1.0348 -0.9275 -2.1059
10435TIP3    H231263   6.869   0.405   3.583  2.6039  0.4058  0.8176
10436TIP3   OH231264   3.545   2.828   5.705  0.0367  0.1766 -0.3306
10436TIP3    H131265   3.632   2.862   5.722 -0.0027  0.1151 -0.0072
10436TIP3    H231266   3.514   2.795   5.789 -0.4373  0.5200 -0.3635
10437TIP3   OH231267   0.030   1.913   3.049  0.0784  0.1052  0.1598
10437TIP3    H131268   0.112   1.931   3.096  0.9420  0.3543 -1.3650
10437TIP3    H231269  -0.017   1.996   3.050  2.6213  1.9440 -4.0908
10438TIP3   OH231270   4.049   1.046   0.023  0.0774  0.1504 -0.0215
10438TIP3    H131271   4.053   1.061  -0.071  0.1281  0.2718  0.0008
10438TIP3    H231272   4.113   1.106   0.060  1.8524 -1.6034 -0.1089
10439TIP3   OH231273   1.011   5.589   4.899  0.0015 -0.0994 -0.1211
10439TIP3    H131274   0.984   5.512   4.949 -0.6773 -0.9341 -1.7032
10439TIP3    H231275   1.090   5.562   4.853 -0.9663 -0.3690 -1.7283
10440TIP3   OH231276   5.054   5.534   4.423  0.0960  0.3422 -0.5594
10440TIP3    H131277   5.011   5.450   4.405  2.0448 -0.7336 -0.4587
10440TIP3    H231278   5.016   5.564   4.505 -1.2905  0.0252 -1.0686
10441TIP3   OH231279   7.555   5.886   5.015  0.2080 -0.3166  0.4381
10441TIP3    H131280   7.493   5.912   5.083  0.5478  0.5378  0.4377
10441TIP3    H231281   7.635   5.862   5.063  0.6823  0.9632  0.3254
10442TIP3   OH231282   1.528   6.218   3.618 -0.3384 -0.1089 -0.4364
10442TIP3    H131283   1.441   6.185   3.597 -1.6521  1.4486  2.0528
10442TIP3    H231284   1.524   6.312   3.599  0.4097  0.1817  0.6845
10443TIP3   OH231285   7.839   2.956   5.434 -0.0511 -0.2966 -0.0677
10443TIP3    H131286   7.875   2.894   5.370  0.0999 -0.2151 -0.0616
10443TIP3    H231287   7.779   2.904   5.487  1.4452 -0.8796  1.1435
10444TIP3   OH231288   3.207   0.409   5.977 -0.1430 -0.4525  0.5846
10444TIP3    H131289   3.260   0.330   5.964 -1.1345 -0.8942 -1.0560
10444TIP3    H231290   3.191   0.442   5.888  0.6084  1.8669  1.2541
10445TIP3   OH231291   2.148   5.137   5.395  0.2883  0.0200 -0.8454
10445TIP3    H131292   2.242   5.154   5.392  1.1226 -3.5340  0.4258
10445TIP3    H231293   2.129   5.092   5.313 -0.0509 -0.2696 -0.6086
10446TIP3   OH231294   6.337   3.425   4.756 -0.0098  0.1983 -0.3120
10446TIP3    H131295   6.410   3.474   4.718 -0.5517  2.2136  1.0866
10446TIP3    H231296   6.260   3.480   4.738 -0.7874 -0.5740  0.5731
10447TIP3   OH231297   0.674   1.893   3.473 -0.4758  0.4092 -0.1108
10447TIP3    H131298   0.579   1.891   3.470 -0.5099 -2.3832  0.2898
10447TIP3    H231299   0.695   1.902   3.566 -0.3982 -0.2238 -0.0584
10448TIP3   OH231300   1.170   5.991   6.427  0.4939 -0.3523 -0.0825
10448TIP3    H131301   1.222   6.026   6.355  0.1728 -1.3275 -0.8063
10448TIP3    H231302   1.155   5.900   6.404 -0.2005 -0.5020  0.8925
10449TIP3   OH231303   6.361   1.324   4.786 -0.2741 -0.5951  0.3285
10449TIP3    H131304   6.422   1.330   4.713 -1.6288  0.4350 -0.7661
10449TIP3    H231305   6.354   1.414   4.820  0.2603 -1.0333  1.6951
10450TIP3   OH231306   4.175   2.077   4.230 -0.5461 -0.3253 -0.2429
10450TIP3    H131307   4.120   2.074   4.152 -1.2592  0.8373  0.1947
10450TIP3    H231308   4.198   2.170   4.240  3.3609 -0.9325 -1.6649
10451TIP3   OH231309   2.428   5.077   3.369 -0.0738 -0.0608  0.2762
10451TIP3    H131310   2.449   5.161   3.329 -0.4892  0.5199  1.2280
10451TIP3    H231311   2.464   5.083   3.458 -0.0647 -0.9044  0.3334
10452TIP3   OH231312   5.271   3.971   0.474  0.0285 -0.8070  0.4319
10452TIP3    H131313   5.234   3.933   0.554 -0.4008 -1.4012 -0.0399
10452TIP3    H231314   5.233   4.058   0.470  1.2393 -0.1828  1.6759
10453TIP3   OH231315   5.897   0.941   3.909  0.6080  0.2904  0.3312
10453TIP3    H131316   5.902   0.936   4.004 -1.4347 -0.9304  0.4102
10453TIP3    H231317   5.975   0.893   3.879  0.3380 -0.8505  1.3780
10454TIP3   OH231318   0.874   0.087   2.367  0.0042 -0.2271  0.3528
10454TIP3    H131319   0.882   0.172   2.324 -1.4354 -0.1101  0.2518
10454TIP3    H231320   0.832   0.031   2.301 -0.7752 -0.4858  1.0548
10455TIP3   OH231321   5.763   0.835   1.850  0.1292  0.4362 -0.4252
10455TIP3    H131322   5.826   0.897   1.886  0.2987  0.6787 -1.1091
10455TIP3    H231323   5.731   0.878   1.770  0.4853 -0.4818 -1.0844
10456TIP3   OH231324   5.696   3.089   0.040  0.0901 -0.5269  0.3534
10456TIP3    H131325   5.643   3.133  -0.027  0.0728 -0.4141  0.4408
10456TIP3    H231326   5.634   3.068   0.109  0.1277 -0.5495  0.3804
10457TIP3   OH231327   7.677   1.132   1.515  0.0027 -0.1270  0.0298
10457TIP3    H131328   7.766   1.098   1.522 -0.2802 -0.7413  0.7610
10457TIP3    H231329   7.643   1.092   1.435  0.7511  1.0207 -0.8995
10458TIP3   OH231330   2.140   3.817   4.354  0.3110 -0.2187 -0.3184
10458TIP3    H131331   2.193   3.746   4.387  0.8520 -0.3294 -1.3892
10458TIP3    H231332   2.164   3.825   4.261 -1.9454 -0.6589 -0.9977
10459TIP3   OH231333   5.750   2.798   5.943 -0.1303 -0.1575  0.6960
10459TIP3    H131334   5.729   2.867   5.881 -0.5715 -1.6907 -0.9484
10459TIP3    H231335   5.811   2.838   6.005  0.5130  1.3600 -0.8580
10460TIP3   OH231336   7.048   2.649   2.133  0.2684  0.2199 -0.4577
10460TIP3    H131337   7.037   2.721   2.070 -0.1032  0.2662 -0.3428
10460TIP3    H231338   6.959   2.620   2.152  0.4450 -0.8932 -1.2194
10461TIP3   OH231339   8.020   5.138   6.451 -0.3186  0.2294  0.0012
10461TIP3    H131340   8.056   5.197   6.385 -0.3595 -0.8375 -1.0107
10461TIP3    H231341   7.934   5.113   6.416 -1.1153  1.0256  1.3281
10462TIP3   OH231342   4.340   0.277   3.204  0.3951 -0.2848  0.3004
10462TIP3    H131343   4.300   0.236   3.281 -0.9563  1.3955  0.5415
10462TIP3    H231344   4.394   0.347   3.239  1.2597 -0.6899 -0.2007
10463TIP3   OH231345   4.568   6.432   6.586 -0.1674 -0.3845  0.0134
10463TIP3    H131346   4.571   6.352   6.533  0.3339  0.4225 -1.1895
10463TIP3    H231347   4.657   6.442   6.619  0.5106  1.1830 -2.1416
10464TIP3   OH231348   7.295   6.976   6.040 -0.5235 -0.4091 -0.3861
10464TIP3    H131349   7.223   6.961   5.978  0.5009  1.2037 -2.0673
10464TIP3    H231350   7.363   6.915   6.013 -1.3544 -2.3030  1.5289
10465TIP3   OH231351   4.621   2.768   4.784  0.3317  0.1177  0.2238
10465TIP3    H131352   4.605   2.860   4.764  0.5322  0.2679  0.7472
10465TIP3    H231353   4.713   2.754   4.764  0.0660 -0.2361 -0.8380
10466TIP3   OH231354   7.548   1.484   6.115  0.3816  0.3766 -0.5151
10466TIP3    H131355   7.629   1.451   6.077  0.6186 -0.4136  0.6312
10466TIP3    H231356   7.489   1.493   6.041  1.4976  0.9367 -1.3656
10467TIP3   OH231357   3.234   1.881   2.684 -0.5113 -0.3159  0.1699
10467TIP3    H131358   3.245   1.821   2.757  0.5836  0.1558  0.4122
10467TIP3    H231359   3.265   1.832   2.608 -1.6794 -0.8173 -0.0078
10468TIP3   OH231360   3.627   6.980   0.370 -0.2664  0.1621  0.0350
10468TIP3    H131361   3.720   6.963   0.386 -0.0051 -0.3203 -1.7458
10468TIP3    H231362   3.600   6.910   0.310 -1.9706 -0.1082  1.0397
10469TIP3   OH231363   7.573   2.115   5.949 -0.6592 -0.6513  0.1854
10469TIP3    H131364   7.518   2.056   6.001 -2.8148 -0.6055 -1.8136
10469TIP3    H231365   7.619   2.057   5.888  1.6499 -0.6852  1.8529
10470TIP3   OH231366   0.594   3.211   1.197 -0.1846 -0.0202 -0.2070
10470TIP3    H131367   0.651   3.276   1.238 -0.4668  0.0810  0.0242
10470TIP3    H231368   0.506   3.232   1.228 -0.0768 -1.5662  1.2864
10471TIP3   OH231369   1.909   4.071   4.748  0.0527  0.1885 -0.4450
10471TIP3    H131370   1.913   4.014   4.671  0.0913 -1.9199  1.0430
10471TIP3    H231371   1.827   4.048   4.791 -0.8833  2.6672 -0.7790
10472TIP3   OH231372   5.188   0.579   3.662  0.1366  0.3402  0.0819
10472TIP3    H131373   5.147   0.493   3.656  0.8087  0.0836 -1.1763
10472TIP3    H231374   5.280   0.563   3.639  0.5315  1.2065  1.0066
10473TIP3   OH231375   7.843   0.657   5.133 -0.7402 -0.1131  0.2630
10473TIP3    H131376   7.912   0.697   5.080 -2.0881 -0.1859 -1.6396
10473TIP3    H231377   7.879   0.572   5.159  0.5969  0.6296  0.9444
10474TIP3   OH231378   4.214   2.012   3.508  0.2186 -0.3324 -0.4500
10474TIP3    H131379   4.124   1.984   3.494  0.0009 -0.0232  0.3150
10474TIP3    H231380   4.264   1.931   3.515 -0.4504 -0.6006  2.0261
10475TIP3   OH231381   1.557   4.837   6.383 -0.0253  0.2666  0.1358
10475TIP3    H131382   1.540   4.752   6.344 -0.1599  0.3533  0.0056
10475TIP3    H231383   1.473   4.863   6.421  0.0862  0.2149  0.4206
10476TIP3   OH231384   4.117   5.977   3.025 -0.0033 -0.1107 -0.1731
10476TIP3    H131385   4.043   6.037   3.031  1.2924  1.3857  2.9645
10476TIP3    H231386   4.181   6.012   3.087  3.8378 -0.6860 -3.3873
10477TIP3   OH231387   0.998   6.089   3.259 -0.3725 -0.0609 -0.5547
10477TIP3    H131388   0.972   6.112   3.348 -1.1329 -1.6318 -0.3357
10477TIP3    H231389   1.082   6.133   3.247  0.4655 -0.9647  1.4687
10478TIP3   OH231390   5.031   6.674   3.343  0.5658 -0.2858 -0.6734
10478TIP3    H131391   4.990   6.588   3.354 -0.2915 -0.1220 -2.2761
10478TIP3    H231392   5.072   6.670   3.257  1.2518  0.6407 -0.4030
10479TIP3   OH231393   1.800   7.273   2.137 -0.3295  0.3145  0.2416
10479TIP3    H131394   1.880   7.310   2.173 -0.3568  1.3110 -0.6596
10479TIP3    H231395   1.829   7.197   2.086 -0.3669 -1.5626  2.8452
10480TIP3   OH231396   5.682   6.870   5.277 -0.2168  0.2617 -0.0184
10480TIP3    H131397   5.695   6.779   5.303 -0.0752  0.1500 -0.4807
10480TIP3    H231398   5.622   6.865   5.203  1.4087  0.3892 -1.3922
10481TIP3   OH231399   8.299   5.219   6.775  0.4240 -0.3237 -0.2966
10481TIP3    H131400   8.346   5.227   6.693  0.7640 -0.6059 -0.1324
10481TIP3    H231401   8.210   5.245   6.755  0.5394 -0.2599 -0.7226
10482TIP3   OH231402   3.987   7.553   6.149  0.3065 -0.4192  0.0035
10482TIP3    H131403   4.008   7.463   6.121  2.0291 -0.2063  0.4862
10482TIP3    H231404   3.940   7.590   6.074 -0.6606 -1.7768 -0.1158
10483TIP3   OH231405   1.037   4.795   0.388  0.2708 -0.3146 -0.2199
10483TIP3    H131406   1.068   4.821   0.301  1.3914 -0.6825  0.0518
10483TIP3    H231407   0.983   4.718   0.372 -0.3197  0.1855 -0.6800
10484TIP3   OH231408   4.226   0.509   1.943 -0.1443 -0.1646 -0.1396
10484TIP3    H131409   4.272   0.587   1.914 -0.2506  0.5849  1.5800
10484TIP3    H231410   4.289   0.463   1.999 -1.0834  0.3152  1.3655
10485TIP3   OH231411   8.225   4.227   3.456 -0.3810  0.2995 -0.0054
10485TIP3    H131412   8.271   4.306   3.424 -0.1407  0.6149  1.0704
10485TIP3    H231413   8.164   4.205   3.386 -0.4819  1.4735 -0.3070
10486TIP3   OH231414   4.913   6.295   4.389 -0.1188 -0.1430  0.1314
10486TIP3    H131415   4.991   6.240   4.389  1.1431  1.5285 -1.8510
10486TIP3    H231416   4.846   6.241   4.347  0.2670 -1.1403  0.7481
10487TIP3   OH231417   6.045   4.975   3.516 -0.5356 -0.3874 -0.2592
10487TIP3    H131418   6.129   4.953   3.477 -1.7478 -0.5217 -2.9963
10487TIP3    H231419   6.038   4.916   3.591  2.4209  0.7222  1.0331
10488TIP3   OH231420   2.005   0.107   2.366  0.2243  0.5363 -0.1521
10488TIP3    H131421   1.940   0.120   2.436  0.6378  1.4508  0.0785
10488TIP3    H231422   2.073   0.172   2.385  0.6962  0.2928 -0.9932
10489TIP3   OH231423   3.154   6.705   0.460  0.2749  0.3166  0.4259
10489TIP3    H131424   3.096   6.736   0.391  0.5034 -0.9562 -0.3747
10489TIP3    H231425   3.240   6.740   0.436  0.1676  0.7237  0.6317
10490TIP3   OH231426   2.045   5.495   1.703  0.4698  0.7142 -0.3930
10490TIP3    H131427   2.026   5.452   1.786 -0.1666  0.4376 -0.6791
10490TIP3    H231428   2.139   5.483   1.690  0.7924  1.7521  0.8469
10491TIP3   OH231429   5.354   3.028   2.261  0.3776  0.1565  0.3769
10491TIP3    H131430   5.423   3.040   2.327  0.4913 -0.4556  0.3803
10491TIP3    H231431   5.303   2.954   2.294  0.9549 -0.7233 -0.6445
10492TIP3   OH231432   5.023   0.892   5.325  0.4590  0.4234 -0.3165
10492TIP3    H131433   4.934   0.925   5.336  0.2056  0.3410 -1.8272
10492TIP3    H231434   5.019   0.840   5.245  2.2622  1.9458 -1.4739
10493TIP3   OH231435   4.720   6.858   5.573 -0.4143  0.2470  0.4986
10493TIP3    H131436   4.796   6.809   5.541  0.8333  1.2910  1.7508
10493TIP3    H231437   4.646   6.819   5.527  0.7695 -1.3643 -0.1493
10494TIP3   OH231438   3.834   3.984   0.189  0.0876  0.1615 -0.3688
10494TIP3    H131439   3.889   4.053   0.226  0.6837 -1.0311  1.0831
10494TIP3    H231440   3.858   3.905   0.238 -0.6835 -1.0602 -1.8582
10495TIP3   OH231441   0.436   1.561   5.665  0.0773 -0.0350 -0.0451
10495TIP3    H131442   0.430   1.632   5.602  0.7251 -0.2091 -0.3066
10495TIP3    H231443   0.448   1.482   5.612  0.8514 -0.1538  0.2951
10496TIP3   OH231444   7.762   5.540   0.448  0.3789 -0.2235  0.3118
10496TIP3    H131445   7.720   5.490   0.378 -0.0515 -0.0677  0.4548
10496TIP3    H231446   7.727   5.628   0.438  0.1475 -0.2531  0.8640
10497TIP3   OH231447   0.133   3.561   3.336  0.4988 -0.0483  0.0632
10497TIP3    H131448   0.102   3.504   3.407  0.2033 -0.1188 -0.1194
10497TIP3    H231449   0.058   3.569   3.277  0.8143 -0.1766 -0.3616
10498TIP3   OH231450   7.413   0.080   1.736  0.4320 -0.5144  0.0770
10498TIP3    H131451   7.414  -0.016   1.738  1.4902 -0.4998  0.8759
10498TIP3    H231452   7.355   0.104   1.809  0.3553 -0.5415  0.0254
10499TIP3   OH231453   3.488   4.512   2.562  0.2838 -0.7558  0.0777
10499TIP3    H131454   3.410   4.508   2.506  0.4491  0.8439 -0.3129
10499TIP3    H231455   3.515   4.421   2.572 -2.2731 -1.5013  1.1460
10500TIP3   OH231456   4.527   2.039   5.745 -0.7244  0.5138  0.1921
10500TIP3    H131457   4.558   2.078   5.827 -1.7841  1.7123  0.0434
10500TIP3    H231458   4.607   2.022   5.696 -0.2060  2.6351  0.2166
10501TIP3   OH231459   7.763   4.192   6.670  0.3656 -0.1326 -0.0604
10501TIP3    H131460   7.699   4.130   6.634 -0.6573  1.1931 -0.6379
10501TIP3    H231461   7.824   4.208   6.598 -0.2811  0.6955 -0.4368
10502TIP3   OH231462   2.190   2.495   0.579  0.1001  0.0180 -0.1393
10502TIP3    H131463   2.244   2.554   0.527  0.6718 -0.6530 -0.3183
10502TIP3    H231464   2.131   2.454   0.515 -0.9418  1.0696  0.1139
10503TIP3   OH231465   2.481   3.492   0.212  0.6708 -0.1922  0.2919
10503TIP3    H131466   2.573   3.515   0.207  0.6267 -0.3093 -1.4822
10503TIP3    H231467   2.446   3.548   0.282  2.0450 -0.0836  0.9150
10504TIP3   OH231468   5.885   7.411   0.168 -0.3799  0.0000  0.1964
10504TIP3    H131469   5.889   7.449   0.080 -0.0837  0.3197  0.3453
10504TIP3    H231470   5.841   7.478   0.221  2.4417  1.3471  1.0522
10505TIP3   OH231471   8.041   5.645   4.379 -0.2956 -0.4393  0.5552
10505TIP3    H131472   7.965   5.703   4.382  0.6017  0.7699  0.4082
10505TIP3    H231473   8.035   5.594   4.460 -0.4695  0.6785  1.2609
10506TIP3   OH231474   4.414   6.663   2.360  0.2197  0.2110 -0.0393
10506TIP3    H131475   4.364   6.697   2.286  2.2064  1.0672 -1.0549
10506TIP3    H231476   4.449   6.579   2.329  0.8599  0.4575  0.0112
10507TIP3   OH231477   8.014   3.449   3.696 -0.3593 -0.2023 -0.0453
10507TIP3    H131478   8.050   3.538   3.701 -2.4874  0.7355 -0.3453
10507TIP3    H231479   7.985   3.429   3.785 -1.1428 -0.0187 -0.2525
10508TIP3   OH231480   8.098   6.629   6.437 -0.1735 -0.1167  0.3496
10508TIP3    H131481   8.099   6.537   6.411  0.4102  0.0054 -0.0782
10508TIP3    H231482   8.019   6.638   6.490 -1.0927 -0.5075 -0.9071
10509TIP3   OH231483   7.408   0.643   0.910  0.1429  0.3345 -0.2359
10509TIP3    H131484   7.407   0.723   0.963 -2.7476  0.5815 -0.5151
10509TIP3    H231485   7.319   0.636   0.876  0.9955 -1.6907 -2.2698
10510TIP3   OH231486   3.207   2.192   5.231  0.6983 -0.2499  0.1459
10510TIP3    H131487   3.185   2.260   5.166  0.8724 -0.2998  0.0344
10510TIP3    H231488   3.282   2.228   5.278 -0.6920  0.7489  1.7672
10511TIP3   OH231489   5.060   0.675   2.048 -0.4505  0.4442 -0.3614
10511TIP3    H131490   5.116   0.618   1.995 -1.0872 -0.4037 -0.1439
10511TIP3    H231491   5.031   0.619   2.121 -2.0821  0.6725 -0.8035
10512TIP3   OH231492   4.005   7.251   1.157 -0.3922 -0.2917 -0.2990
10512TIP3    H131493   3.916   7.257   1.192 -0.4494 -2.4543  0.0712
10512TIP3    H231494   4.050   7.192   1.217  1.2770  0.6426 -0.5673
10513TIP3   OH231495   3.029   0.870   0.059 -0.1996  0.7076  0.0440
10513TIP3    H131496   2.952   0.845   0.110 -0.0895  2.0794  0.9404
10513TIP3    H231497   3.100   0.819   0.098 -0.6949 -1.0013 -1.1586
10514TIP3   OH231498   1.664   6.661   5.869 -0.6093  0.2368  0.1258
10514TIP3    H131499   1.610   6.716   5.812 -1.1131 -0.8531 -0.4871
10514TIP3    H231500   1.631   6.572   5.854  3.5219 -1.0562 -2.8479
10515TIP3   OH231501   2.854   0.195   6.793 -0.1528 -0.2407 -0.0237
10515TIP3    H131502   2.902   0.113   6.783 -2.3781 -1.5027 -1.3521
10515TIP3    H231503   2.784   0.190   6.726 -1.8536  1.6117  1.4808
10516TIP3   OH231504   8.071   5.786   1.829 -0.2145  0.0442  0.3560
10516TIP3    H131505   8.139   5.726   1.797 -0.5804  0.3421 -1.0428
10516TIP3    H231506   8.117   5.843   1.891  0.7658  0.0884 -0.3801
10517TIP3   OH231507   2.159   5.121   0.372  0.0084 -0.1139 -0.5315
10517TIP3    H131508   2.245   5.132   0.415  0.2117  0.4071 -1.0624
10517TIP3    H231509   2.131   5.210   0.353 -0.8559 -0.2596  0.0132
10518TIP3   OH231510   5.280   3.541   6.508 -0.0531  0.4765 -0.1055
10518TIP3    H131511   5.324   3.468   6.466 -0.3959 -0.0506  0.4386
10518TIP3    H231512   5.350   3.591   6.550 -0.0959 -1.8302  3.0927
10519TIP3   OH231513   5.770   7.722   4.383  0.2110 -0.2032  0.2733
10519TIP3    H131514   5.808   7.716   4.296 -1.9356  0.7360 -0.8029
10519TIP3    H231515   5.684   7.681   4.374 -0.5000  0.9026  1.6547
10520TIP3   OH231516   1.715   3.802   0.554 -0.3845  0.2998 -0.4943
10520TIP3    H131517   1.654   3.854   0.605 -0.7952  1.0309 -1.7068
10520TIP3    H231518   1.801   3.821   0.593 -0.8331 -0.4259  0.9543
10521TIP3   OH231519   0.214   0.367   4.310  0.3024 -0.0878  0.1824
10521TIP3    H131520   0.150   0.336   4.245  1.4457 -0.9244 -0.5903
10521TIP3    H231521   0.235   0.290   4.362 -0.1850  0.4548  1.2095
10522TIP3   OH231522   0.261   3.098   1.058 -0.0400  0.2005  0.1008
10522TIP3    H131523   0.287   3.142   1.139 -1.1130 -0.2565  0.7122
10522TIP3    H231524   0.308   3.014   1.060 -0.6094 -0.1104  0.6054
10523TIP3   OH231525   2.136   5.414   0.782 -0.9445  0.2559  0.0480
10523TIP3    H131526   2.062   5.426   0.722 -1.7813 -1.0300  0.7779
10523TIP3    H231527   2.100   5.435   0.868 -0.6167 -0.9071  0.4781
10524TIP3   OH231528   4.953   0.574   1.691  0.2698 -0.2664  0.0452
10524TIP3    H131529   4.964   0.498   1.749 -0.3920 -2.0171 -1.9591
10524TIP3    H231530   4.893   0.632   1.738 -0.7950 -1.9306  0.8505
10525TIP3   OH231531   7.336   6.501   0.578 -0.6731  0.0037  0.1555
10525TIP3    H131532   7.348   6.445   0.655 -1.3235  0.3289  0.5009
10525TIP3    H231533   7.395   6.574   0.591 -0.8008  0.0703  0.3578
10526TIP3   OH231534   3.151   4.056   1.700  0.1169 -0.0946  0.3511
10526TIP3    H131535   3.123   3.965   1.694  1.9395 -0.7031  0.4159
10526TIP3    H231536   3.246   4.052   1.689  0.4129  1.6374  1.8139
10527TIP3   OH231537   3.871   6.464   3.387 -0.2480  0.4697 -0.2863
10527TIP3    H131538   3.941   6.504   3.438  0.5830 -1.0576 -0.1695
10527TIP3    H231539   3.795   6.466   3.445 -0.1270  1.4457 -0.1311
10528TIP3   OH231540   4.665   7.836   2.216 -0.6520 -0.2945  0.0666
10528TIP3    H131541   4.725   7.780   2.167 -1.2089 -0.7801 -0.0672
10528TIP3    H231542   4.657   7.793   2.301  2.6732  2.0744  1.8146
10529TIP3   OH231543   6.975   5.418   3.518  0.0959 -0.1055 -0.3366
10529TIP3    H131544   6.963   5.383   3.606  1.7676 -1.3821 -0.5745
10529TIP3    H231545   6.917   5.366   3.463 -0.9978  0.7357 -0.0110
10530TIP3   OH231546   2.855   7.291   0.273 -0.7594  0.4046  0.3378
10530TIP3    H131547   2.905   7.323   0.348 -0.6011  0.6211  0.1408
10530TIP3    H231548   2.836   7.200   0.294  0.9362 -0.1112 -0.2244
10531TIP3   OH231549   5.497   3.765   6.441 -0.0342 -0.0871  0.0995
10531TIP3    H131550   5.459   3.770   6.528  0.4748  0.5148  0.2954
10531TIP3    H231551   5.476   3.849   6.400  0.9121  0.1902  0.1524
10532TIP3   OH231552   1.030   4.788   3.004  0.5279 -1.3455 -0.2549
10532TIP3    H131553   1.041   4.755   3.093  1.8019  0.2173  0.2111
10532TIP3    H231554   1.119   4.807   2.974  0.1127 -1.8313 -1.8664
10533TIP3   OH231555   7.287   5.435   6.239  0.1051  0.1471 -0.3843
10533TIP3    H131556   7.317   5.525   6.252 -0.9728  0.4224  0.3029
10533TIP3    H231557   7.238   5.438   6.157  1.7706 -0.2789 -1.4473
10534TIP3   OH231558   2.289   1.174   6.082 -0.5432  1.0135 -0.5573
10534TIP3    H131559   2.234   1.107   6.042 -0.2423 -0.5167  1.4505
10534TIP3    H231560   2.375   1.134   6.089  0.1591  2.3596 -1.1088
10535TIP3   OH231561   3.861   3.338   3.843 -0.6053 -0.0186  0.6276
10535TIP3    H131562   3.863   3.252   3.803  2.2305 -0.4570  1.4855
10535TIP3    H231563   3.860   3.321   3.937 -2.5655  0.9779  0.8558
10536TIP3   OH231564   0.374   6.851   4.203  0.6446 -0.1869 -0.4021
10536TIP3    H131565   0.383   6.856   4.108  1.7142  0.3235 -0.2927
10536TIP3    H231566   0.435   6.782   4.229  1.0953  0.3520 -0.0043
10537TIP3   OH231567   3.779   2.122   5.713  0.0228  0.9083  0.1468
10537TIP3    H131568   3.727   2.201   5.696  1.0326  1.3334 -1.1667
10537TIP3    H231569   3.829   2.142   5.791  0.6264  1.7840 -0.4441
10538TIP3   OH231570   1.482   3.359   6.548 -0.7343 -0.6512  0.4392
10538TIP3    H131571   1.562   3.393   6.507 -0.6812  0.3193  1.2988
10538TIP3    H231572   1.513   3.300   6.617 -0.7115  0.2820  1.2541
10539TIP3   OH231573   5.840   7.778   5.846  0.5859  0.0321  0.2384
10539TIP3    H131574   5.929   7.813   5.854  2.5041 -3.5876 -2.4670
10539TIP3    H231575   5.841   7.698   5.897 -0.8790 -0.4574 -0.4466
10540TIP3   OH231576   3.779   7.780   6.184  0.3153 -0.1654 -0.7153
10540TIP3    H131577   3.711   7.716   6.204  0.1768  0.0381 -0.5264
10540TIP3    H231578   3.838   7.735   6.123 -0.3142 -0.1398 -1.3572
10541TIP3   OH231579   1.685   1.636   2.776  0.1182  0.1362  0.3082
10541TIP3    H131580   1.780   1.649   2.779 -0.1467  2.8383  3.7462
10541TIP3    H231581   1.653   1.707   2.720  0.0146  0.5783  0.9215
10542TIP3   OH231582   1.240   5.012   1.419 -0.0707  0.2656 -0.1811
10542TIP3    H131583   1.234   5.091   1.473  0.9062 -0.0370  0.4079
10542TIP3    H231584   1.218   4.941   1.479 -0.5388  0.0544 -0.6021
10543TIP3   OH231585   3.449   0.752   1.463 -0.5290  0.1333  0.0392
10543TIP3    H131586   3.434   0.763   1.557 -0.3889 -0.7978  0.1797
10543TIP3    H231587   3.522   0.810   1.444  0.6449 -0.9879  0.8932
10544TIP3   OH231588   1.733   0.002   1.464  0.2578  0.2180 -0.6598
10544TIP3    H131589   1.748  -0.016   1.371 -0.3694  0.0138 -0.7253
10544TIP3    H231590   1.713   0.095   1.468 -1.0229 -0.0393 -0.9004
10545TIP3   OH231591   7.771   5.350   6.625  0.5027  0.0066 -0.1362
10545TIP3    H131592   7.698   5.359   6.564 -0.5610 -0.7744  0.9736
10545TIP3    H231593   7.769   5.258   6.652  0.7903  0.3883  1.2452
10546TIP3   OH231594   6.172   5.110   6.027  0.1985  0.1086 -0.0259
10546TIP3    H131595   6.267   5.122   6.017  0.0421  2.2948  0.5298
10546TIP3    H231596   6.151   5.035   5.971  2.0618  0.3432 -1.1338
10547TIP3   OH231597   5.308   6.813   2.854 -0.1665  0.1042 -0.7373
10547TIP3    H131598   5.263   6.731   2.835  0.4585 -0.7254  1.1454
10547TIP3    H231599   5.333   6.847   2.767  2.5407 -3.3875 -1.5837
10548TIP3   OH231600   2.857   5.258   3.798 -0.1741 -0.0364 -0.0779
10548TIP3    H131601   2.795   5.242   3.869 -2.1104 -0.1538 -1.7016
10548TIP3    H231602   2.865   5.353   3.794 -0.4093 -0.0121  0.0150
10549TIP3   OH231603   6.024   0.209   4.019 -0.1919 -0.4890 -0.1813
10549TIP3    H131604   6.101   0.159   3.992  1.0280  0.9644  0.3871
10549TIP3    H231605   6.035   0.294   3.976 -0.4088  0.4296  1.4722
10550TIP3   OH231606   5.496   6.946   4.695  0.0429  0.2658 -0.4056
10550TIP3    H131607   5.539   6.875   4.742  0.0602  0.3575 -0.2818
10550TIP3    H231608   5.550   7.023   4.712 -1.1331  0.7840  1.2623
10551TIP3   OH231609   3.918   2.749   4.044  0.2684  0.0642  0.0460
10551TIP3    H131610   3.861   2.713   3.977 -0.1062  0.6740  0.0264
10551TIP3    H231611   3.917   2.683   4.114 -1.3304  0.5217  0.5121
10552TIP3   OH231612   6.646   3.095   1.663  0.5615 -0.3663 -0.3366
10552TIP3    H131613   6.689   3.022   1.708  0.9784 -1.2366 -2.0285
10552TIP3    H231614   6.715   3.132   1.607  0.6140  1.9599  1.1362
10553TIP3   OH231615   5.392   5.601   4.915 -0.5504 -0.1813  0.4457
10553TIP3    H131616   5.467   5.567   4.866 -0.6774  1.5020 -1.0158
10553TIP3    H231617   5.369   5.530   4.975 -0.0942 -2.2052 -1.5970
10554TIP3   OH231618   5.689   4.069   5.302 -0.3503 -0.0485 -0.3955
10554TIP3    H131619   5.676   3.997   5.365  1.6106  0.8941  1.1927
10554TIP3    H231620   5.714   4.144   5.356 -1.3642  1.5964 -2.0967
10555TIP3   OH231621   2.406   1.626   2.009  0.1549 -0.0087 -0.5376
10555TIP3    H131622   2.488   1.669   1.983 -0.1875 -0.7050 -3.0038
10555TIP3    H231623   2.340   1.695   2.006  0.5579  0.4879  1.1616
10556TIP3   OH231624   2.262   7.470   4.054 -0.3101 -0.5879  0.1501
10556TIP3    H131625   2.230   7.443   4.141  0.3151 -1.9017  0.0011
10556TIP3    H231626   2.354   7.493   4.069 -0.4402  0.0437 -0.0084
10557TIP3   OH231627   4.411   6.979   2.413 -0.0680  0.2696  1.0487
10557TIP3    H131628   4.390   6.889   2.389 -1.6302  0.4712  1.5403
10557TIP3    H231629   4.402   7.028   2.331 -2.4743  0.4781  1.3681
10558TIP3   OH231630   0.287   3.448   2.920  0.4993  0.4563 -0.0425
10558TIP3    H131631   0.352   3.468   2.852  0.4394  1.5867  0.2092
10558TIP3    H231632   0.228   3.385   2.878 -1.2660  3.2674 -2.1626
10559TIP3   OH231633   5.202   6.239   1.081 -0.0309 -0.3224 -0.0443
10559TIP3    H131634   5.293   6.270   1.089 -0.5067  1.0919  0.3134
10559TIP3    H231635   5.196   6.205   0.992  0.5101  0.8471 -0.5643
10560TIP3   OH231636   6.542   3.868   6.350 -0.4559 -0.2370 -0.3885
10560TIP3    H131637   6.478   3.823   6.293 -0.3915  0.0022 -0.6517
10560TIP3    H231638   6.568   3.945   6.300 -0.0046 -0.3022 -0.2540
10561TIP3   OH231639   6.102   7.724   4.985  0.5064  0.5201 -0.1220
10561TIP3    H131640   6.042   7.660   4.946 -0.5886 -0.1211  2.3775
10561TIP3    H231641   6.104   7.797   4.924 -1.8857  0.0232 -0.8737
10562TIP3   OH231642   0.863   5.368   5.720 -0.3043 -0.0963  0.1742
10562TIP3    H131643   0.805   5.440   5.696 -0.0314  0.1829  0.3433
10562TIP3    H231644   0.918   5.354   5.643  1.1532  1.3708  0.8947
10563TIP3   OH231645   4.821   1.261   4.586 -0.5543  0.3219 -0.5029
10563TIP3    H131646   4.880   1.265   4.510 -0.6573  3.4555 -0.5520
10563TIP3    H231647   4.734   1.274   4.549 -0.7211  0.7716  0.0387
10564TIP3   OH231648   4.818   0.571   1.293  0.3203 -0.3725  0.1010
10564TIP3    H131649   4.844   0.619   1.214  1.3921  1.3304  1.4324
10564TIP3    H231650   4.900   0.549   1.336 -0.2302 -1.7661  0.5040
10565TIP3   OH231651   2.000   6.993   5.590  0.2263 -0.9080 -0.1651
10565TIP3    H131652   2.069   6.932   5.615 -0.2658 -1.7547 -0.8171
10565TIP3    H231653   2.042   7.049   5.525  0.5134 -0.9256 -0.0006
10566TIP3   OH231654   3.945   3.841  -0.018  0.0336 -0.2943  0.5402
10566TIP3    H131655   3.998   3.781   0.035 -1.4873 -0.4181  2.0012
10566TIP3    H231656   3.882   3.878   0.043 -1.0272  0.4853 -0.9555
10567TIP3   OH231657   0.760   3.167   3.925  0.4670  0.3119 -0.2692
10567TIP3    H131658   0.707   3.092   3.898 -1.1733  1.4781 -0.4225
10567TIP3    H231659   0.850   3.142   3.904 -0.3067 -0.4829 -3.0531
10568TIP3   OH231660   3.494   7.505   3.583 -0.4788 -0.0471  0.3649
10568TIP3    H131661   3.527   7.594   3.571 -0.4693 -0.2021 -0.8527
10568TIP3    H231662   3.539   7.473   3.661  1.3894  0.1516 -0.5884
10569TIP3   OH231663   0.343   0.415   2.867  0.0487 -0.6169  0.3686
10569TIP3    H131664   0.287   0.489   2.841  1.0638  0.1796  0.3502
10569TIP3    H231665   0.425   0.457   2.895  0.9284 -1.7897 -0.3967
10570TIP3   OH231666   1.780   5.387   0.957  0.3227  0.2868 -0.1559
10570TIP3    H131667   1.794   5.304   1.004  0.1423 -0.7925 -1.9205
10570TIP3    H231668   1.688   5.386   0.934  0.4670  0.6774 -0.7486
10571TIP3   OH231669   1.045   7.647   1.049 -0.0825 -0.4241  0.4027
10571TIP3    H131670   1.015   7.602   1.128 -3.0790 -0.0074 -0.3707
10571TIP3    H231671   0.971   7.701   1.022  1.0878  0.0212 -2.3094
10572TIP3   OH231672   7.113   6.394   4.516  0.2533  0.0160  0.2036
10572TIP3    H131673   7.208   6.383   4.507  0.5161  1.7364  0.4639
10572TIP3    H231674   7.092   6.354   4.600  1.1487  1.4930  1.1835
10573TIP3   OH231675   1.090   7.040   1.228 -0.0619 -0.4249  0.3297
10573TIP3    H131676   1.060   6.985   1.300  1.8319 -0.8395  0.8672
10573TIP3    H231677   1.090   7.129   1.263 -1.1204 -0.3367  0.1397
10574TIP3   OH231678   4.276   4.296   5.886  0.3872  0.3381  0.0642
10574TIP3    H131679   4.238   4.216   5.849  0.9881  0.1279 -0.1323
10574TIP3    H231680   4.202   4.351   5.907 -0.0610 -0.4953  0.7099
10575TIP3   OH231681   2.793   6.982   3.471  0.3260  0.3301 -0.5359
10575TIP3    H131682   2.865   7.005   3.530  1.1115 -0.7212 -1.0589
10575TIP3    H231683   2.727   7.049   3.487  1.8125  1.9242 -0.7678
10576TIP3   OH231684   4.440   5.035   5.467 -0.4330 -0.4121  0.6445
10576TIP3    H131685   4.383   4.981   5.412 -0.0346  1.0336 -1.3306
10576TIP3    H231686   4.497   4.973   5.511  0.6798 -1.6450 -2.3017
10577TIP3   OH231687   4.693   1.424   2.858  0.3833  0.1621 -0.0416
10577TIP3    H131688   4.650   1.508   2.874  0.8967  0.2232  1.1021
10577TIP3    H231689   4.683   1.375   2.940 -0.8440 -1.3441 -1.0241
10578TIP3   OH231690   7.565   2.212   4.299 -0.1053 -0.0775 -0.2032
10578TIP3    H131691   7.486   2.266   4.301 -1.2303 -1.6694 -0.0169
10578TIP3    H231692   7.533   2.122   4.300  1.7181 -0.7723 -0.2963
10579TIP3   OH231693   6.531   5.913   3.840 -0.0716  0.3537  0.2611
10579TIP3    H131694   6.596   5.884   3.905  1.9336  2.0571 -0.8734
10579TIP3    H231695   6.481   5.981   3.885 -1.3638 -1.1599  1.2333
10580TIP3   OH231696   6.226   6.289   4.485  1.2042 -0.0536 -0.7470
10580TIP3    H131697   6.320   6.289   4.502  1.2628  0.9678 -1.0109
10580TIP3    H231698   6.218   6.277   4.391  1.0128 -1.3471 -0.5916
10581TIP3   OH231699   7.015   3.234   5.778 -0.0436  0.7057  0.1742
10581TIP3    H131700   6.949   3.188   5.726 -0.5068  0.6673  0.7864
10581TIP3    H231701   7.076   3.271   5.713 -0.0949 -0.1156 -0.3508
10582TIP3   OH231702   0.961   3.689   5.660  0.0440  0.4013  0.8152
10582TIP3    H131703   1.022   3.753   5.697  2.0004 -1.7454  1.6171
10582TIP3    H231704   0.875   3.719   5.688  0.9407  2.2295  1.8171
10583TIP3   OH231705   2.794   3.067   1.175 -0.1432  0.1466 -0.3711
10583TIP3    H131706   2.825   3.148   1.216  1.6186 -0.6601  0.0097
10583TIP3    H231707   2.832   3.069   1.088 -0.4513 -0.0726 -0.5111
10584TIP3   OH231708   6.680   5.641   5.607 -0.3584 -0.5573  0.0422
10584TIP3    H131709   6.608   5.577   5.609  0.3026 -1.3092  0.6302
10584TIP3    H231710   6.709   5.642   5.516 -3.9471  3.0765 -1.3327
10585TIP3   OH231711   5.633   6.029   4.291 -0.1241 -0.0422 -0.3767
10585TIP3    H131712   5.651   5.944   4.250  1.3325 -0.0963  0.3226
10585TIP3    H231713   5.541   6.023   4.317  0.0911 -1.6349  0.1607
10586TIP3   OH231714   1.930   1.344   5.380 -0.0813  0.0397 -0.1072
10586TIP3    H131715   1.977   1.375   5.458 -1.3489 -2.0958  1.6227
10586TIP3    H231716   1.973   1.261   5.358  0.0868  0.4910 -1.5639
10587TIP3   OH231717   6.437   1.082   3.141 -0.3070  0.0291  0.5797
10587TIP3    H131718   6.390   1.120   3.215  0.7050  1.2500  0.6246
10587TIP3    H231719   6.427   1.146   3.070 -0.7574 -0.8406 -0.1669
10588TIP3   OH231720   3.861   3.118   5.204 -0.0796 -0.2389 -0.1576
10588TIP3    H131721   3.829   3.168   5.278 -0.6177 -0.2034 -0.4073
10588TIP3    H231722   3.786   3.112   5.145 -0.4736 -2.5176  0.4797
10589TIP3   OH231723   4.471   2.946   3.535  0.5553  0.5508 -0.0349
10589TIP3    H131724   4.412   3.005   3.582  1.6203  2.0548 -0.4842
10589TIP3    H231725   4.521   2.902   3.603 -3.2463 -3.3974  0.6029
10590TIP3   OH231726   1.784   0.047   6.051  0.2756 -0.2437 -0.3139
10590TIP3    H131727   1.878   0.043   6.033  0.3577  1.0797 -0.2630
10590TIP3    H231728   1.768  -0.025   6.112  1.0984 -0.9923 -0.9745
10591TIP3   OH231729   7.776   5.082   3.187  0.5914 -0.2598 -0.1692
10591TIP3    H131730   7.827   5.162   3.175  1.3730 -0.8734 -0.9958
10591TIP3    H231731   7.840   5.012   3.191 -0.1738 -1.0374 -1.1622
10592TIP3   OH231732   4.529   6.982   6.059  0.4406  0.1387 -0.0653
10592TIP3    H131733   4.529   7.014   5.969 -0.6814  0.4445  0.0359
10592TIP3    H231734   4.437   6.965   6.080  0.7107 -0.2444  0.9184
10593TIP3   OH231735   1.421   6.561   4.006 -0.3727 -0.5041  0.6019
10593TIP3    H131736   1.340   6.598   4.041 -0.0748 -0.0525  0.8241
10593TIP3    H231737   1.466   6.524   4.083  0.3128  0.5465  0.7337
10594TIP3   OH231738   7.875   0.966   2.398  0.0315 -0.2373  0.1664
10594TIP3    H131739   7.897   0.889   2.450  0.2981  0.4097  1.0229
10594TIP3    H231740   7.954   1.020   2.401  0.1292 -0.2750 -1.0794
10595TIP3   OH231741   4.809   5.102   4.697  0.2499 -0.7051 -0.1100
10595TIP3    H131742   4.742   5.048   4.657 -0.2701 -0.5081  0.4804
10595TIP3    H231743   4.829   5.170   4.632 -2.0816  0.8839  0.6970
10596TIP3   OH231744   2.154   6.783   4.182  0.2245  0.2096 -0.2235
10596TIP3    H131745   2.114   6.811   4.099  1.7959  0.7870 -0.8222
10596TIP3    H231746   2.169   6.689   4.171  3.6340  0.7882 -2.1334
10597TIP3   OH231747   8.037   7.688   4.022 -0.0774 -0.0061  0.2235
10597TIP3    H131748   8.073   7.690   3.934  1.2121  0.2564  0.7342
10597TIP3    H231749   8.005   7.599   4.034  1.7497 -0.6880  0.2468
10598TIP3   OH231750   3.351   0.472   2.110  0.4518  0.3094  0.1056
10598TIP3    H131751   3.408   0.548   2.118 -0.6019  1.1352  0.0854
10598TIP3    H231752   3.390   0.419   2.041  1.8647  0.2133  0.9413
10599TIP3   OH231753   2.562   4.928   5.984  0.0314  0.3371  0.1090
10599TIP3    H131754   2.482   4.878   5.997  0.1989  0.6857  3.2061
10599TIP3    H231755   2.540   5.017   6.014  0.4919  1.5605 -2.7831
10600TIP3   OH231756   1.545   2.950   5.736  0.2812 -0.7538 -0.0671
10600TIP3    H131757   1.477   2.981   5.677  1.9041  0.5626 -1.3364
10600TIP3    H231758   1.511   2.866   5.770 -1.6409 -0.4689 -1.1323
10601TIP3   OH231759   4.282   1.821   1.964 -0.4727  0.0543  0.0042
10601TIP3    H131760   4.228   1.815   1.885 -1.6670 -2.3139  0.8923
10601TIP3    H231761   4.281   1.914   1.987  0.0242  0.8566 -2.7864
10602TIP3   OH231762   0.226   5.604   2.129  0.3008  0.3100 -0.1111
10602TIP3    H131763   0.196   5.674   2.071 -0.1674  1.3052  1.2583
10602TIP3    H231764   0.208   5.637   2.217 -1.0146 -2.0132  0.5784
10603TIP3   OH231765   5.391   1.592   4.676 -0.3438  0.3556 -0.1017
10603TIP3    H131766   5.352   1.511   4.709 -0.2132  0.7885  1.1647
10603TIP3    H231767   5.375   1.590   4.581  0.1637 -1.4061 -0.1725
10604TIP3   OH231768   6.152   6.382   2.325 -0.1434 -0.3162 -0.2758
10604TIP3    H131769   6.061   6.397   2.352  0.2173  0.6083  0.4451
10604TIP3    H231770   6.144   6.342   2.238 -1.2525 -1.0051  0.1184
10605TIP3   OH231771   1.579   3.024   6.518  0.1811 -0.3194 -0.3326
10605TIP3    H131772   1.599   3.100   6.463 -0.9734  1.1321  1.1387
10605TIP3    H231773   1.636   3.035   6.595 -0.3125 -0.6917  0.0964
10606TIP3   OH231774   1.773   4.705   2.509  0.1683 -0.2472 -0.4463
10606TIP3    H131775   1.782   4.610   2.515  1.2611 -0.3016 -2.1582
10606TIP3    H231776   1.855   4.734   2.467  0.2366  1.5495  0.8255
10607TIP3   OH231777   3.068   3.130   5.340  0.2667 -0.1188 -0.5060
10607TIP3    H131778   3.049   3.093   5.254  0.7909 -2.1563  0.1983
10607TIP3    H231779   3.088   3.222   5.323 -2.0243  0.1521 -2.2451
10608TIP3   OH231780   5.219   2.220   1.115  0.2508  0.0344 -0.7985
10608TIP3    H131781   5.124   2.214   1.117  0.2396  0.3189  0.8725
10608TIP3    H231782   5.248   2.174   1.194  1.4227  1.0241 -0.6070
10609TIP3   OH231783   4.429   2.970   1.811  0.4747 -0.5962 -0.7496
10609TIP3    H131784   4.516   2.942   1.783  0.9399  0.6250 -0.6008
10609TIP3    H231785   4.369   2.903   1.777  1.4876 -1.5392 -0.6994
10610TIP3   OH231786   7.244   2.893   3.867 -0.4066 -0.4164 -0.6267
10610TIP3    H131787   7.331   2.915   3.834  0.2254 -2.7926 -0.7567
10610TIP3    H231788   7.258   2.813   3.918 -2.2992 -0.0151  0.6002
10611TIP3   OH231789   5.079   5.866   6.711  0.3107 -0.3176 -0.5677
10611TIP3    H131790   5.150   5.837   6.769 -0.8561  1.7837  2.1306
10611TIP3    H231791   5.010   5.800   6.723  0.0360  0.1590  0.6060
10612TIP3   OH231792   4.480   2.979   3.023  0.3136 -0.0983  0.0954
10612TIP3    H131793   4.524   2.894   3.021  0.4184 -0.0372 -0.9902
10612TIP3    H231794   4.493   3.015   2.935  2.0006  1.9419  1.0940
10613TIP3   OH231795   6.173   5.831   1.530  0.4248 -0.2271  0.1572
10613TIP3    H131796   6.244   5.829   1.465  2.2680  1.1956  1.9641
10613TIP3    H231797   6.216   5.806   1.612 -1.5217 -0.6546  1.0929
10614TIP3   OH231798   0.956   3.635   6.677  0.0934 -0.2135 -0.4523
10614TIP3    H131799   1.010   3.671   6.606  1.1483  2.8073  1.6646
10614TIP3    H231800   1.017   3.626   6.750 -1.2089 -2.1136  0.4498
10615TIP3   OH231801   6.873   0.114   2.380 -0.2972  0.3712  0.1925
10615TIP3    H131802   6.876   0.057   2.456  0.8113  1.3690  0.9382
10615TIP3    H231803   6.957   0.160   2.381 -1.2187  2.1568 -0.2514
10616TIP3   OH231804   5.882   2.293   3.096 -0.5522  0.2384  0.2994
10616TIP3    H131805   5.863   2.313   3.188 -0.2425  0.5594  0.2993
10616TIP3    H231806   5.941   2.217   3.100  0.9401  1.3496  0.4682
10617TIP3   OH231807   4.891   3.449   3.500 -0.7913 -0.4804  0.0166
10617TIP3    H131808   4.918   3.505   3.572  4.3342 -2.5096  0.0990
10617TIP3    H231809   4.898   3.505   3.422 -1.0260  0.3425  0.5739
10618TIP3   OH231810   3.532   3.894   3.538  0.0540  0.5573  0.2025
10618TIP3    H131811   3.465   3.893   3.470  1.3946 -1.0588 -1.1913
10618TIP3    H231812   3.606   3.938   3.498  0.4085  0.8185  1.1159
10619TIP3   OH231813   0.066   1.243   6.486 -0.2337  0.3334  0.3937
10619TIP3    H131814   0.094   1.234   6.395  1.6512  0.9420  0.8551
10619TIP3    H231815   0.043   1.154   6.514  0.8985 -0.1675 -0.1869
10620TIP3   OH231816   7.076   7.321   1.291 -0.1051  0.3470 -0.3601
10620TIP3    H131817   7.042   7.396   1.340  0.3993  0.6208 -0.4194
10620TIP3    H231818   7.171   7.332   1.294  0.1435 -1.7732  1.9763
10621TIP3   OH231819   8.120   6.632   4.088 -0.4365  0.5330 -0.0469
10621TIP3    H131820   8.209   6.596   4.092 -0.7719 -0.2380  1.1411
10621TIP3    H231821   8.116   6.677   4.004  1.0055  0.3911 -0.2217
10622TIP3   OH231822   5.737   4.089   4.075  0.2540  0.3669 -0.0435
10622TIP3    H131823   5.746   4.076   3.981 -0.6347  0.1607 -0.1131
10622TIP3    H231824   5.765   4.179   4.090  1.8136 -0.0458 -0.2747
10623TIP3   OH231825   4.725   1.050   4.386  0.1934  0.1106  0.4393
10623TIP3    H131826   4.689   0.962   4.395  3.2794 -1.1810  1.2599
10623TIP3    H231827   4.697   1.078   4.299  0.3677 -2.2990 -0.4744
10624TIP3   OH231828   4.233   0.575   4.715  0.0065 -0.0013 -0.1150
10624TIP3    H131829   4.153   0.624   4.695  0.7440  1.8045  1.1073
10624TIP3    H231830   4.289   0.588   4.639 -1.4369 -2.8429 -1.8566
10625TIP3   OH231831   1.153   4.140   6.394 -0.0678  0.1295  0.0863
10625TIP3    H131832   1.078   4.158   6.338 -1.1601  0.0794  1.4930
10625TIP3    H231833   1.138   4.193   6.472 -0.2825 -2.2430  1.7615
10626TIP3   OH231834   2.793   7.238   0.954 -0.5627 -0.4468 -0.1619
10626TIP3    H131835   2.879   7.263   0.988 -0.6734 -3.3152  2.6662
10626TIP3    H231836   2.811   7.163   0.898 -0.9689  1.1203 -2.5381
10627TIP3   OH231837   3.690   6.738   6.401 -0.0461 -0.5533  0.5733
10627TIP3    H131838   3.775   6.775   6.377  0.3236 -1.5101  0.3812
10627TIP3    H231839   3.693   6.648   6.370 -1.6565 -0.2192 -0.6657
10628TIP3   OH231840   7.448   2.573   5.528  0.0508 -0.0752  0.2070
10628TIP3    H131841   7.495   2.593   5.447  0.1222  0.3797  0.3552
10628TIP3    H231842   7.391   2.649   5.542 -0.6570 -0.5827  0.0833
10629TIP3   OH231843   4.053   6.527   6.623 -0.2016 -0.0703  0.2258
10629TIP3    H131844   4.100   6.490   6.548  0.5566 -0.6250  0.9484
10629TIP3    H231845   4.074   6.620   6.621  0.7085 -0.2629  0.3711
10630TIP3   OH231846   7.133   2.289   1.433 -0.7440 -0.2880 -0.1201
10630TIP3    H131847   7.172   2.375   1.451  0.2336 -0.8905  0.6909
10630TIP3    H231848   7.162   2.233   1.505 -1.5490 -1.2551 -0.5233
10631TIP3   OH231849   6.049   2.246   6.011  0.1853 -0.5786 -0.3046
10631TIP3    H131850   6.006   2.330   6.031 -1.0970 -1.4937  0.9876
10631TIP3    H231851   5.977   2.183   6.006  1.1234 -1.6073 -1.3761
10632TIP3   OH231852   5.801   4.147   2.498 -0.1458 -0.5535  0.2565
10632TIP3    H131853   5.831   4.158   2.588  0.1241 -1.3620  0.2733
10632TIP3    H231854   5.856   4.077   2.463 -0.8205 -0.8259 -0.2730
10633TIP3   OH231855   1.591   6.164   4.421 -0.0102  0.0666 -0.0092
10633TIP3    H131856   1.620   6.195   4.508 -0.7868 -1.0842  0.6830
10633TIP3    H231857   1.669   6.172   4.366  1.3147 -1.7282  1.4932
10634TIP3   OH231858   6.964   3.130   4.635  0.1723 -0.4883 -0.3499
10634TIP3    H131859   6.977   3.079   4.715  0.0521  0.0166  0.0007
10634TIP3    H231860   6.889   3.089   4.592  0.5136 -1.0348 -0.4269
10635TIP3   OH231861   2.092   6.415   0.958  0.4891  0.3462  0.2686
10635TIP3    H131862   2.178   6.433   0.919 -0.3531  1.2336 -1.2698
10635TIP3    H231863   2.097   6.457   1.044  1.0859  1.7390 -0.4106
10636TIP3   OH231864   6.193   6.619   4.832 -0.3166  0.0672  0.0998
10636TIP3    H131865   6.147   6.575   4.903 -0.9636  1.6636  0.7258
10636TIP3    H231866   6.158   6.580   4.752  0.3345 -1.6717  0.6117
10637TIP3   OH231867   4.319   0.587   4.222 -1.0386  0.3117  0.5637
10637TIP3    H131868   4.227   0.599   4.200 -1.1891 -0.1683  0.9240
10637TIP3    H231869   4.336   0.494   4.207 -0.6143  0.3915  0.5171
10638TIP3   OH231870   5.831   5.038   6.673 -0.7413 -0.1921  0.1338
10638TIP3    H131871   5.912   5.088   6.663 -0.7618 -0.3783 -1.1318
10638TIP3    H231872   5.849   4.977   6.744  0.1023  0.0084  0.1033
10639TIP3   OH231873   5.926   3.742   6.744  0.4436 -0.2780  0.2263
10639TIP3    H131874   5.916   3.648   6.755 -1.2276 -0.1176  0.2593
10639TIP3    H231875   5.907   3.757   6.651 -1.9085  0.3044  0.7562
10640TIP3   OH231876   2.287   6.277   6.477  0.2723 -0.5250  0.2560
10640TIP3    H131877   2.216   6.214   6.475  0.8285 -1.1483 -0.8200
10640TIP3    H231878   2.252   6.355   6.433  0.2056 -0.7929 -0.1757
10641TIP3   OH231879   1.757   6.107   3.044 -0.3329 -0.2643 -0.0135
10641TIP3    H131880   1.714   6.088   3.127  0.8714  0.5081  0.8300
10641TIP3    H231881   1.807   6.028   3.024 -0.1667 -0.2448  0.3130
10642TIP3   OH231882   4.142   6.235   5.864  0.4921  0.0127 -0.9733
10642TIP3    H131883   4.175   6.325   5.859 -0.8452  0.4811 -2.7753
10642TIP3    H231884   4.112   6.216   5.775 -0.1758 -1.8632 -0.4013
10643TIP3   OH231885   6.415   7.246   1.683 -0.3787 -0.8307 -0.3636
10643TIP3    H131886   6.497   7.295   1.679  0.3666 -1.9871  0.1737
10643TIP3    H231887   6.437   7.166   1.730 -2.1084 -0.5919  0.9921
10644TIP3   OH231888   4.734   0.985   5.364 -0.1211  0.3973 -0.4627
10644TIP3    H131889   4.733   0.981   5.460 -2.0802 -0.8215 -0.4865
10644TIP3    H231890   4.658   1.038   5.341 -0.0926  0.0677 -1.3643
10645TIP3   OH231891   5.537   0.476   6.516 -0.1859  0.2148 -1.1752
10645TIP3    H131892   5.506   0.405   6.460 -1.6869  0.6213 -0.9049
10645TIP3    H231893   5.475   0.478   6.589  0.2109  1.3796 -0.8430
10646TIP3   OH231894   0.933   1.250   4.188  0.3707 -0.2997  0.0826
10646TIP3    H131895   0.940   1.155   4.176  0.5620 -0.3743  0.7276
10646TIP3    H231896   1.012   1.285   4.145  0.4115 -0.4527  0.0325
10647TIP3   OH231897   6.851   1.089   2.263 -0.0412 -0.4605  0.4534
10647TIP3    H131898   6.894   1.072   2.347 -0.0018  0.9305  0.7495
10647TIP3    H231899   6.773   1.139   2.285  0.7035  1.1837 -0.3943
10648TIP3   OH231900   2.679   6.621   6.115  0.0102 -0.2118  0.2215
10648TIP3    H131901   2.626   6.544   6.136  1.6724 -1.7146 -0.8247
10648TIP3    H231902   2.615   6.689   6.091 -1.4256 -2.2881 -2.1984
10649TIP3   OH231903   5.468   6.982   5.437  0.0565  0.3119 -0.2028
10649TIP3    H131904   5.400   6.918   5.411 -0.3167  0.7041 -0.2041
10649TIP3    H231905   5.547   6.951   5.392 -0.2035  0.0490 -0.4947
10650TIP3   OH231906   3.197   7.771   1.066 -0.3993  0.3807  0.7319
10650TIP3    H131907   3.244   7.842   1.022 -1.3647  1.8556  2.0037
10650TIP3    H231908   3.121   7.755   1.011 -0.3544  0.5640  0.6151
10651TIP3   OH231909   3.407   1.161   0.207 -0.3415 -0.2797  0.2733
10651TIP3    H131910   3.385   1.254   0.217  2.1223  0.3246  0.7321
10651TIP3    H231911   3.345   1.115   0.263 -2.4109  0.9177 -0.8857
10652TIP3   OH231912   7.939   5.736   6.065 -0.8268  0.2284 -0.4955
10652TIP3    H131913   8.007   5.803   6.071  0.3188 -0.9749  0.8326
10652TIP3    H231914   7.874   5.761   6.130 -1.3668  1.0359 -1.3222
10653TIP3   OH231915   5.482   4.619   0.462 -0.1163 -0.1293  0.4217
10653TIP3    H131916   5.412   4.683   0.451  0.1788  0.4454  1.8405
10653TIP3    H231917   5.480   4.568   0.380 -0.5897  1.4231 -0.5697
10654TIP3   OH231918   5.223   5.532   3.485 -0.6398  0.0282  0.1740
10654TIP3    H131919   5.142   5.500   3.445 -1.0165  1.1423 -0.0132
10654TIP3    H231920   5.258   5.457   3.533 -1.5260 -0.6117 -0.1528
10655TIP3   OH231921   4.215   5.104   4.240  0.2379  0.1165  0.5548
10655TIP3    H131922   4.120   5.112   4.232  0.2727  0.1241  0.1394
10655TIP3    H231923   4.249   5.189   4.211  0.4370 -0.3514 -0.6433
10656TIP3   OH231924   4.951   4.039   3.754 -0.9375  0.1506  0.0972
10656TIP3    H131925   4.878   4.062   3.697  0.8149  1.9289 -1.5834
10656TIP3    H231926   5.004   4.119   3.760  0.8108 -1.0092  1.3698
10657TIP3   OH231927   5.502   5.022   2.245  0.2877  0.0223 -0.3433
10657TIP3    H131928   5.572   5.005   2.182  1.5126  0.8791  0.7466
10657TIP3    H231929   5.427   4.974   2.210  0.8628  0.5823 -2.5593
10658TIP3   OH231930   2.086   3.139   0.525  0.0209 -0.0270 -0.1934
10658TIP3    H131931   2.082   3.187   0.608 -0.5018 -0.6203  0.1323
10658TIP3    H231932   2.003   3.158   0.482  0.4987  0.6827 -0.8186
10659TIP3   OH231933   6.334   1.341   0.901  0.4267  0.5624 -0.1508
10659TIP3    H131934   6.272   1.313   0.834  1.6892  0.0959 -1.1596
10659TIP3    H231935   6.412   1.366   0.853  1.5926 -0.3760  1.1705
10660TIP3   OH231936   3.955   4.387   5.589  0.0695 -0.1858 -0.2902
10660TIP3    H131937   3.909   4.326   5.646  1.6267  1.8143  3.4582
10660TIP3    H231938   3.886   4.429   5.537 -1.7245 -0.8104  1.4656
10661TIP3   OH231939   8.294   6.032   6.290 -0.0175 -0.1390  0.1060
10661TIP3    H131940   8.242   6.009   6.367  0.7917  0.6096  0.9013
10661TIP3    H231941   8.278   5.960   6.228 -1.1157 -0.4750  0.7411
10662TIP3   OH231942   2.540   2.940   2.858 -0.2474  0.3482 -0.3669
10662TIP3    H131943   2.498   3.004   2.800  1.6044  1.0530 -1.0376
10662TIP3    H231944   2.566   2.991   2.934 -2.2270 -0.4752  0.9363
10663TIP3   OH231945   6.554   1.870   4.462 -0.7599 -0.0755  0.5292
10663TIP3    H131946   6.488   1.806   4.437 -0.5918 -0.1669  0.3255
10663TIP3    H231947   6.542   1.943   4.402  0.7713 -0.9963 -0.9952
10664TIP3   OH231948   8.218   1.411   3.121  0.5137 -0.1831  0.3329
10664TIP3    H131949   8.143   1.398   3.179 -0.0857 -1.8192 -0.7377
10664TIP3    H231950   8.260   1.490   3.154 -1.7963  0.9137  0.8256
10665TIP3   OH231951   2.739   2.473   3.220  0.1975 -0.2987  0.1963
10665TIP3    H131952   2.804   2.409   3.250  0.1576 -0.0454  0.8421
10665TIP3    H231953   2.657   2.443   3.258  0.0496 -0.2654 -0.0959
10666TIP3   OH231954   5.456   4.978   2.593 -0.4442  0.9164  0.3471
10666TIP3    H131955   5.362   4.992   2.602 -0.7704 -1.4831  1.6147
10666TIP3    H231956   5.465   4.932   2.509 -0.7861 -0.9804  1.2716
10667TIP3   OH231957   0.585   1.359   6.016  0.0822  0.3295 -0.4486
10667TIP3    H131958   0.507   1.413   6.004 -0.3881 -0.2439 -0.0385
10667TIP3    H231959   0.658   1.420   6.004 -0.4311  1.2020  0.6082
10668TIP3   OH231960   1.437   2.227   6.156 -0.3449 -0.1143 -0.6668
10668TIP3    H131961   1.532   2.226   6.156 -0.3419 -1.1762 -0.3276
10668TIP3    H231962   1.413   2.205   6.066 -0.2501 -1.5973 -0.3515
10669TIP3   OH231963   2.467   4.253   4.660 -0.2381  0.0084 -0.5145
10669TIP3    H131964   2.394   4.268   4.720 -0.0555  2.3958 -0.8113
10669TIP3    H231965   2.439   4.178   4.606 -1.5708 -0.4014  0.6906
10670TIP3   OH231966   3.350   0.739   2.660  1.2580 -0.0475 -0.6574
10670TIP3    H131967   3.368   0.768   2.750  2.4730 -0.2484 -0.8153
10670TIP3    H231968   3.267   0.781   2.637  0.4847 -0.6758  0.8524
10671TIP3   OH231969   5.182   0.554   0.188 -0.2740  0.0528  0.0404
10671TIP3    H131970   5.124   0.512   0.251 -0.9779  0.9690  0.0355
10671TIP3    H231971   5.189   0.644   0.219  0.4228  0.1796 -0.4714
10672TIP3   OH231972   1.198   5.666   6.268 -0.3670  0.2391 -0.1300
10672TIP3    H131973   1.148   5.626   6.340 -0.8661 -1.9087 -1.5818
10672TIP3    H231974   1.141   5.737   6.236  0.5383  2.3136  2.5040
10673TIP3   OH231975   2.017   1.850   0.981  0.1041 -1.0212  0.1765
10673TIP3    H131976   2.066   1.932   0.981 -1.3422 -0.1239 -0.5528
10673TIP3    H231977   1.965   1.854   1.061 -0.0084 -1.2108  0.1119
10674TIP3   OH231978   4.533   5.785   0.859 -0.1394 -0.4174  0.7137
10674TIP3    H131979   4.602   5.841   0.895 -1.0937  1.0118  0.4022
10674TIP3    H231980   4.563   5.696   0.877  2.3882  0.0987 -0.5150
10675TIP3   OH231981   0.142   6.913   0.629  0.5396 -0.1739 -0.5627
10675TIP3    H131982   0.096   6.993   0.602  1.1367  0.1034 -0.7728
10675TIP3    H231983   0.199   6.942   0.700  1.3254 -0.2460 -1.1480
10676TIP3   OH231984   6.520   4.426   5.944  0.1031  0.1938  0.0002
10676TIP3    H131985   6.502   4.383   5.861 -0.5427 -0.5827  0.5329
10676TIP3    H231986   6.435   4.427   5.989  0.5404  0.2003  0.8361
10677TIP3   OH231987   8.169   3.450   1.535 -0.0743  0.1602  0.4993
10677TIP3    H131988   8.164   3.520   1.470 -0.9838  0.2972  0.7084
10677TIP3    H231989   8.081   3.445   1.572 -0.0110 -1.0568  0.5278
10678TIP3   OH231990   3.741   7.804   4.658 -0.0308  0.0141 -0.1964
10678TIP3    H131991   3.716   7.869   4.725  0.9862  0.5807 -0.3550
10678TIP3    H231992   3.767   7.727   4.709  1.2980  0.6398  0.1005
10679TIP3   OH231993   3.675   2.028   6.365  0.4081  0.3705  0.5342
10679TIP3    H131994   3.742   2.002   6.428  0.2866 -0.4179  0.3529
10679TIP3    H231995   3.632   2.104   6.405  1.1707  0.6720  0.8080
10680TIP3   OH231996   5.728   3.782   6.064  0.6834  0.1263 -0.1498
10680TIP3    H131997   5.786   3.721   6.018  1.3928 -0.3549  1.3134
10680TIP3    H231998   5.670   3.816   5.996 -0.1857 -2.6908 -0.9475
10681TIP3   OH231999   3.294   6.964   4.604  0.4384  0.3941  0.3648
10681TIP3    H132000   3.257   6.880   4.630  2.4223 -0.1999  1.5000
10681TIP3    H232001   3.257   6.981   4.517  0.1664 -1.7534  0.0084
10682TIP3   OH232002   1.180   6.088   5.673  0.2253  0.2036  0.2349
10682TIP3    H132003   1.156   6.014   5.728 -0.9784 -0.1512 -0.7142
10682TIP3    H232004   1.099   6.138   5.664  0.8339  1.1998  0.2155
10683TIP3   OH232005   0.879   6.923   5.464  0.1465 -0.0889  0.4548
10683TIP3    H132006   0.846   6.980   5.534 -0.4400 -0.4849  0.5067
10683TIP3    H232007   0.962   6.964   5.437  0.1761  0.2915  1.0989
10684TIP3   OH232008   0.757   7.037   3.350 -0.3562 -0.1372  0.2044
10684TIP3    H132009   0.811   7.097   3.297  1.9863 -0.7633  1.7210
10684TIP3    H232010   0.692   7.004   3.289  2.3432 -1.0081 -2.4755
10685TIP3   OH232011   1.836   3.570   5.211  0.3072  0.2717 -0.0304
10685TIP3    H132012   1.879   3.494   5.250  1.4159  0.3718 -1.0132
10685TIP3    H232013   1.860   3.643   5.269 -0.6929 -0.0965  0.8690
10686TIP3   OH232014   8.112   1.349   1.873  0.3034  0.0919 -0.3016
10686TIP3    H132015   8.189   1.322   1.824 -0.2536 -0.6366 -0.7944
10686TIP3    H232016   8.056   1.272   1.873 -0.7529  0.8474 -0.5875
10687TIP3   OH232017   5.699   5.457   3.565 -0.0837  0.0147  0.4934
10687TIP3    H132018   5.703   5.550   3.543  2.9747  0.0876  0.8332
10687TIP3    H232019   5.738   5.451   3.652 -1.6657 -1.4666  1.1572
10688TIP3   OH232020   8.156   5.272   4.487  0.3175  0.2705 -0.3963
10688TIP3    H132021   8.200   5.351   4.516  0.1071  0.4166 -0.4728
10688TIP3    H232022   8.223   5.223   4.439 -0.0941  1.4000 -2.2319
10689TIP3   OH232023   6.639   2.874   2.714  0.2172 -0.3182 -0.5920
10689TIP3    H132024   6.573   2.939   2.742  0.5449 -0.3285  0.2296
10689TIP3    H232025   6.634   2.805   2.780  2.5351  0.6861  0.7620
10690TIP3   OH232026   2.711   4.354   2.779 -0.0677  0.5738 -0.1282
10690TIP3    H132027   2.622   4.318   2.774 -0.4513  1.3829  0.6033
10690TIP3    H232028   2.741   4.358   2.688 -0.2779 -0.9076 -0.2906
10691TIP3   OH232029   2.117   1.989   0.200  0.3786 -0.1728  0.0152
10691TIP3    H132030   2.042   1.970   0.255 -0.4302  0.1438 -0.9519
10691TIP3    H232031   2.098   1.945   0.117  1.7064 -0.8879  0.0529
10692TIP3   OH232032   4.610   0.317   0.915  0.1035  0.3055 -0.1781
10692TIP3    H132033   4.609   0.381   0.843  0.4176 -0.2705 -0.7047
10692TIP3    H232034   4.526   0.329   0.959 -0.2848  0.3612 -0.9146
10693TIP3   OH232035   5.717   5.206   4.620 -0.1118  0.9636  0.2405
10693TIP3    H132036   5.775   5.148   4.671  1.2725  0.3891 -1.8357
10693TIP3    H232037   5.644   5.150   4.595  0.6517  0.3881 -0.7897
10694TIP3   OH232038   1.209   6.967   5.041  0.0990 -0.7632 -0.3686
10694TIP3    H132039   1.209   6.891   5.100 -1.1665 -0.6688 -0.2263
10694TIP3    H232040   1.292   6.960   4.993  0.4905 -1.6344  0.4049
10695TIP3   OH232041   3.630   0.939   1.845 -0.6872 -0.2415  0.0883
10695TIP3    H132042   3.552   0.884   1.850 -0.7204 -0.3005 -0.8771
10695TIP3    H232043   3.669   0.934   1.932 -1.2931 -0.9025  0.3277
10696TIP3   OH232044   3.709   0.776   5.630  0.1183  0.4002  0.2033
10696TIP3    H132045   3.762   0.765   5.551  1.5116  0.1072  1.1345
10696TIP3    H232046   3.635   0.716   5.618  0.4950  0.0953 -0.7059
10697TIP3   OH232047   5.089   6.628   4.421 -0.1016  0.1720 -0.2625
10697TIP3    H132048   5.150   6.672   4.361 -1.8782  1.4865 -1.2339
10697TIP3    H232049   5.021   6.594   4.363 -1.3864  0.6494  0.9302
10698TIP3   OH232050   3.827   4.568   4.295  0.0656 -0.0941  0.0741
10698TIP3    H132051   3.910   4.568   4.344 -1.8184  0.3430  3.5617
10698TIP3    H232052   3.833   4.645   4.238  1.7297  0.3644  0.8096
10699TIP3   OH232053   4.414   4.659   5.635 -0.2061  0.8057  0.4313
10699TIP3    H132054   4.466   4.668   5.555  0.1009  1.0162  0.6504
10699TIP3    H232055   4.341   4.720   5.623 -0.9670 -0.2266 -0.3092
10700TIP3   OH232056   4.144   1.022   6.061  0.0116  0.1041 -0.1443
10700TIP3    H132057   4.238   1.036   6.073  0.5753 -2.5418 -0.8556
10700TIP3    H232058   4.129   1.038   5.968  0.1014 -0.8895 -0.3478
10701TIP3   OH232059   2.680   5.259   5.403  0.2440  0.2268  0.0531
10701TIP3    H132060   2.695   5.352   5.387  0.5568  0.4918  1.7409
10701TIP3    H232061   2.748   5.214   5.353  0.5643  0.9277 -0.1474
10702TIP3   OH232062   2.898   2.586   6.325  0.1278 -0.5209  0.1729
10702TIP3    H132063   2.922   2.646   6.395 -1.3021 -1.5439  1.5949
10702TIP3    H232064   2.809   2.610   6.301  0.8725  0.3725 -1.9693
10703TIP3   OH232065   6.193   6.828   0.929 -0.1380 -0.6183 -0.4112
10703TIP3    H132066   6.156   6.750   0.887  0.7031 -0.3687 -1.6845
10703TIP3    H232067   6.125   6.857   0.989 -0.7320 -1.9540 -0.3878
10704TIP3   OH232068   2.363   3.567   5.005 -0.0992  0.0111  0.4529
10704TIP3    H132069   2.342   3.653   5.041 -0.9703 -0.1447  0.3369
10704TIP3    H232070   2.403   3.519   5.078 -0.3891  0.2316  0.7577
10705TIP3   OH232071   4.941   3.090   6.117  0.1504 -0.3672  0.1928
10705TIP3    H132072   4.860   3.128   6.150  0.7009  1.2523 -0.1997
10705TIP3    H232073   4.987   3.060   6.196 -0.6160 -0.8606  0.4560
10706TIP3   OH232074   0.584   0.802   2.242  0.3487  0.1376 -0.1889
10706TIP3    H132075   0.622   0.721   2.209 -0.4307 -0.5732  0.6022
10706TIP3    H232076   0.564   0.853   2.163 -2.2904 -1.8898 -0.9935
10707TIP3   OH232077   5.994   0.764   0.387  0.2767  0.2427 -0.1904
10707TIP3    H132078   6.020   0.807   0.469  1.5303 -0.7826 -0.0180
10707TIP3    H232079   5.901   0.785   0.378  0.2935  1.0133  1.0959
10708TIP3   OH232080   3.792   5.786   1.844  0.4500 -0.2296 -0.1021
10708TIP3    H132081   3.798   5.710   1.901 -0.8038 -1.1416 -1.1518
10708TIP3    H232082   3.782   5.860   1.904 -1.9472 -1.2613  0.8964
10709TIP3   OH232083   2.647   1.547   0.473  0.4181 -0.0037 -0.0291
10709TIP3    H132084   2.626   1.456   0.496 -1.9076  0.2059 -1.0417
10709TIP3    H232085   2.640   1.594   0.556  2.1637 -0.7696  0.6107
10710TIP3   OH232086   4.194   0.834   6.769  0.1897 -0.3567 -0.3032
10710TIP3    H132087   4.237   0.857   6.686  0.4224  0.4628  0.0395
10710TIP3    H232088   4.163   0.744   6.755  0.4626 -0.3275 -1.1833
10711TIP3   OH232089   4.991   3.298   4.336  0.4152  0.1908  0.0883
10711TIP3    H132090   4.947   3.354   4.400 -0.4918  1.6297 -1.7044
10711TIP3    H232091   5.083   3.325   4.340  0.3784  0.2129  0.8358
10712TIP3   OH232092   5.537   1.355   3.495 -0.1104  0.3969 -0.1730
10712TIP3    H132093   5.444   1.363   3.516  0.2555  1.1614  1.3310
10712TIP3    H232094   5.553   1.261   3.490 -0.6458  0.2088  1.2131
10713TIP3   OH232095   6.611   3.187   4.583  0.8390  0.0099  0.5379
10713TIP3    H132096   6.648   3.146   4.506 -0.2837 -1.0328  0.5237
10713TIP3    H232097   6.532   3.137   4.602 -1.5840  3.1089 -0.4792
10714TIP3   OH232098   6.371   0.803   6.752 -0.0999  0.6194  0.1651
10714TIP3    H132099   6.287   0.826   6.712  1.0351  0.9498 -2.2231
10714TIP3    H232100   6.398   0.723   6.707  0.3208 -0.2124  1.8019
10715TIP3   OH232101   5.796   6.208   3.242 -0.1920  0.3436  0.5667
10715TIP3    H132102   5.790   6.242   3.331 -1.7063 -0.2423  0.7270
10715TIP3    H232103   5.889   6.212   3.221  0.2152  0.3873  2.2173
10716TIP3   OH232104   4.240   1.441   1.783 -0.0475 -0.2908  0.4849
10716TIP3    H132105   4.218   1.489   1.704  0.9859  0.7477  0.8003
10716TIP3    H232106   4.158   1.433   1.831 -0.7763 -1.2955 -0.8511
10717TIP3   OH232107   2.987   2.883   6.156 -0.2613  1.0945  0.0169
10717TIP3    H132108   3.049   2.830   6.205  0.4805  2.5262  0.7122
10717TIP3    H232109   3.039   2.920   6.084  0.4769  4.2220  1.9340
10718TIP3   OH232110   8.274   6.343   5.432  0.2631 -0.6680  0.4427
10718TIP3    H132111   8.319   6.294   5.501 -2.1745 -2.2394  1.0515
10718TIP3    H232112   8.229   6.275   5.381  0.2673  0.6521 -1.4061
10719TIP3   OH232113   0.964   0.993   4.126  0.1526 -0.3745  0.0420
10719TIP3    H132114   1.000   0.946   4.050 -0.9868  0.7266 -1.2388
10719TIP3    H232115   0.891   0.938   4.156 -1.0189  0.3745 -1.2977
10720TIP3   OH232116   0.324   4.984   4.678 -0.0622 -0.0248  0.1175
10720TIP3    H132117   0.314   5.054   4.614 -2.9956  0.1189  0.5887
10720TIP3    H232118   0.350   4.908   4.627  1.8242  1.0069 -0.5826
10721TIP3   OH232119   6.565   5.197   1.965 -0.1085  0.0577 -0.2089
10721TIP3    H132120   6.609   5.281   1.976 -1.6599  1.0316 -1.0983
10721TIP3    H232121   6.500   5.193   2.035 -0.3880 -0.1590 -0.4727
10722TIP3   OH232122   1.816   6.909   4.910 -0.1640  0.7407  0.1019
10722TIP3    H132123   1.744   6.965   4.937  0.9718  1.6721  1.3192
10722TIP3    H232124   1.871   6.901   4.987  0.3263 -1.1118 -0.3909
10723TIP3   OH232125   1.988   1.976   1.915  0.1156  0.3534  0.3845
10723TIP3    H132126   1.914   1.918   1.932  0.9368 -0.4524  1.2929
10723TIP3    H232127   1.955   2.037   1.849 -0.5499 -1.6055 -1.1966
10724TIP3   OH232128   7.549   7.364   2.442  0.2897  0.4853 -0.2312
10724TIP3    H132129   7.493   7.304   2.492 -0.2692 -0.0209 -1.4449
10724TIP3    H232130   7.551   7.328   2.354  1.0580  1.5148 -0.6588
10725TIP3   OH232131   5.461   6.096   6.747  0.2253 -0.5327  0.1498
10725TIP3    H132132   5.413   6.089   6.665 -0.9498  1.6202  0.5727
10725TIP3    H232133   5.394   6.120   6.811  1.3542 -0.7807  1.4660
10726TIP3   OH232134   5.126   4.218   2.920 -0.5821 -0.9213 -0.0039
10726TIP3    H132135   5.086   4.196   2.835 -0.6089  1.0354 -0.5642
10726TIP3    H232136   5.184   4.292   2.900  0.7703 -1.5612  1.3975
10727TIP3   OH232137   6.521   7.602   3.424 -0.0587 -0.2290 -0.6323
10727TIP3    H132138   6.538   7.653   3.345  0.4434  1.6733  0.6510
10727TIP3    H232139   6.431   7.625   3.448  0.7706  1.6195  0.9793
10728TIP3   OH232140   4.708   5.813   4.285  0.1925  0.5622  0.0458
10728TIP3    H132141   4.753   5.732   4.265 -1.2489 -0.3167  0.2043
10728TIP3    H232142   4.651   5.792   4.359 -1.4487  1.2324 -0.9602
10729TIP3   OH232143   7.082   3.289   0.426 -0.4056  0.1028 -0.4197
10729TIP3    H132144   7.127   3.265   0.346  0.4650 -1.3622  0.4655
10729TIP3    H232145   7.008   3.229   0.432 -1.6767  1.5477 -1.1299
10730TIP3   OH232146   1.080   1.971   2.394  0.1345 -0.1633 -0.6667
10730TIP3    H132147   1.025   2.035   2.440 -0.2252 -1.5588  0.9364
10730TIP3    H232148   1.104   1.908   2.462  2.0925 -0.6740 -1.7746
10731TIP3   OH232149   7.080   6.031   5.589  0.3449  0.4226  0.5329
10731TIP3    H132150   7.114   6.057   5.674  0.7026  0.7809  0.2818
10731TIP3    H232151   6.991   6.001   5.607 -0.0064  1.6101  0.8635
10732TIP3   OH232152   1.670   0.305   6.100 -0.5121 -0.1157  0.0343
10732TIP3    H132153   1.705   0.216   6.093 -0.3331 -0.0094 -0.4652
10732TIP3    H232154   1.625   0.320   6.016 -1.7305 -0.2375  0.6411
10733TIP3   OH232155   1.754   0.580   2.127  0.6134  0.0290  0.5762
10733TIP3    H132156   1.758   0.516   2.056  2.0464 -0.7935  1.3365
10733TIP3    H232157   1.734   0.528   2.205  1.5484  0.5234  1.1660
10734TIP3   OH232158   2.424   2.148   2.906  0.0969  0.3752 -0.2058
10734TIP3    H132159   2.453   2.211   2.972 -0.8818  2.1537 -1.3747
10734TIP3    H232160   2.351   2.102   2.947  0.0720  0.8283  0.2718
10735TIP3   OH232161   2.145   4.404   5.689 -0.2154 -0.3736 -0.1391
10735TIP3    H132162   2.097   4.404   5.771  1.0739 -0.3085  0.6351
10735TIP3    H232163   2.234   4.429   5.712  0.3132 -0.8959 -1.4740
10736TIP3   OH232164   1.044   6.015   6.692 -0.0716  0.3819  0.2690
10736TIP3    H132165   0.949   6.018   6.700 -0.4323 -3.3275 -0.4334
10736TIP3    H232166   1.060   6.005   6.598  0.5384 -3.2191  0.5860
10737TIP3   OH232167   2.398   3.659   2.941 -0.3968 -0.0713  0.1098
10737TIP3    H132168   2.353   3.668   2.857 -0.6122  1.7337  0.3917
10737TIP3    H232169   2.379   3.569   2.968  0.8945 -1.2408 -2.4327
10738TIP3   OH232170   3.058   2.421   3.357  0.3238 -0.4024 -0.5443
10738TIP3    H132171   3.070   2.387   3.268  3.5677 -0.6359 -0.1288
10738TIP3    H232172   3.054   2.343   3.412 -2.2421 -0.2801 -0.4428
10739TIP3   OH232173   3.126   5.521   4.190 -0.1285 -0.5499  0.0816
10739TIP3    H132174   3.200   5.577   4.212 -0.1912 -0.4895  0.1411
10739TIP3    H232175   3.162   5.455   4.131 -0.1480 -0.1882 -0.3372
10740TIP3   OH232176   5.477   7.403   4.518 -0.1332  0.0611 -0.3468
10740TIP3    H132177   5.525   7.371   4.441 -0.0183  1.7642 -1.0457
10740TIP3    H232178   5.385   7.397   4.492 -0.1802 -0.7923 -0.0079
10741TIP3   OH232179   2.730   7.752   0.056 -0.5161  0.0313 -0.4425
10741TIP3    H132180   2.772   7.673   0.090  1.6403  0.9823 -0.7315
10741TIP3    H232181   2.724   7.810   0.131 -0.0469  0.4060 -0.6921
10742TIP3   OH232182   6.514   5.754   0.040  0.6400  0.0090 -0.0242
10742TIP3    H132183   6.567   5.777   0.116  0.2660  0.5940  0.0647
10742TIP3    H232184   6.480   5.666   0.059 -0.0363  0.4407  0.8128
10743TIP3   OH232185   6.663   7.003   0.500 -0.0365 -0.1621 -0.0770
10743TIP3    H132186   6.748   6.990   0.458 -0.5952  0.5602 -1.5446
10743TIP3    H232187   6.600   6.980   0.431 -1.0055  1.5084  0.2176
10744TIP3   OH232188   5.850   6.051   1.431  0.3123 -0.1800  0.5034
10744TIP3    H132189   5.853   6.071   1.338  0.1531  1.7658  0.8708
10744TIP3    H232190   5.935   6.078   1.465 -0.1653  0.5381  1.1642
10745TIP3   OH232191   4.397   6.510   0.324 -0.4359  0.3048 -0.0112
10745TIP3    H132192   4.319   6.474   0.367 -0.3045 -1.6048 -1.2347
10745TIP3    H232193   4.374   6.601   0.305 -1.2839  0.6041  2.1060
10746TIP3   OH232194   3.033   7.191   0.051 -0.2008 -0.1126  0.0324
10746TIP3    H132195   3.123   7.195   0.081 -0.5170 -0.8312  1.1372
10746TIP3    H232196   2.980   7.205   0.130 -1.0660  0.7455 -0.6652
10747TIP3   OH232197   1.237   4.576   3.196 -0.8408  0.0766  0.1452
10747TIP3    H132198   1.248   4.598   3.104 -0.0177 -0.7649  0.0342
10747TIP3    H232199   1.229   4.660   3.241 -2.0646  0.4768 -0.7828
10748TIP3   OH232200   1.642   2.312   5.661  0.0317  0.2000 -0.2142
10748TIP3    H132201   1.627   2.245   5.728  0.2801  0.0343 -0.3248
10748TIP3    H232202   1.584   2.384   5.687  0.6286  0.4126  0.5749
10749TIP3   OH232203   0.627   6.824   3.205  0.6531  0.1424  0.3057
10749TIP3    H132204   0.593   6.753   3.151  0.0677 -0.5851  1.5857
10749TIP3    H232205   0.552   6.882   3.218 -0.0911 -1.2601  2.8060
10750TIP3   OH232206   2.509   4.841   1.490 -0.6376 -0.4835  0.3630
10750TIP3    H132207   2.552   4.830   1.405  0.8322  1.9291  0.6983
10750TIP3    H232208   2.577   4.817   1.554 -1.1420 -0.5606  0.8703
10751TIP3   OH232209   4.889   3.457   3.087  0.8792  0.0305  0.6181
10751TIP3    H132210   4.856   3.518   3.153  0.4440 -1.2418  1.6410
10751TIP3    H232211   4.833   3.472   3.010 -2.0499 -1.7975  2.1770
10752TIP3   OH232212   3.399   6.112   2.379  0.5927  0.7432  0.1287
10752TIP3    H132213   3.420   6.175   2.309  1.0443 -0.0542 -0.4738
10752TIP3    H232214   3.393   6.028   2.334  1.7610  0.0666  1.1678
10753TIP3   OH232215   5.031   0.803   3.061 -0.1803 -0.7204  0.3502
10753TIP3    H132216   4.999   0.718   3.031 -1.2720 -0.2667  0.1869
10753TIP3    H232217   4.962   0.837   3.117 -0.0120  0.2989 -0.0183
10754TIP3   OH232218   6.213   5.010   1.919  0.6051 -0.2496  0.3680
10754TIP3    H132219   6.305   4.984   1.923  0.8136  0.2139 -0.9017
10754TIP3    H232220   6.211   5.081   1.855 -0.9764 -1.8583 -1.4951
10755TIP3   OH232221   6.093   4.307   5.260 -0.4788 -0.1828 -0.3400
10755TIP3    H132222   6.047   4.385   5.292 -1.7730 -0.7567 -0.7237
10755TIP3    H232223   6.078   4.241   5.328  0.5996 -0.1138 -0.0225
10756TIP3   OH232224   5.848   3.222   4.783  0.3027  0.4327  0.1785
10756TIP3    H132225   5.885   3.196   4.867 -0.4894  1.4475  0.8723
10756TIP3    H232226   5.923   3.236   4.726  0.8131 -1.3059  0.3745
10757TIP3   OH232227   7.241   6.798   0.446 -0.5544  0.0577 -0.1707
10757TIP3    H132228   7.311   6.828   0.504 -1.2055  0.9538  0.1682
10757TIP3    H232229   7.279   6.803   0.358  0.1417 -0.4626  0.0897
10758TIP3   OH232230   3.606   1.704   6.338  0.2512 -0.3289  0.4722
10758TIP3    H132231   3.598   1.780   6.280  0.5014 -0.1021  0.7310
10758TIP3    H232232   3.600   1.628   6.280 -0.4816 -0.1185  0.2652
10759TIP3   OH232233   4.238   2.050   2.112  0.3126 -0.1881 -0.0261
10759TIP3    H132234   4.276   2.133   2.082 -0.2499  0.3498  0.7010
10759TIP3    H232235   4.257   2.047   2.206  0.0781 -0.7491  0.0085
10760TIP3   OH232236   5.196   2.943   0.732 -0.2053 -0.3968 -0.0711
10760TIP3    H132237   5.130   2.902   0.676  0.8058  0.1797 -1.7795
10760TIP3    H232238   5.279   2.922   0.690  0.6474 -0.3094  1.5019
10761TIP3   OH232239   1.860   6.369   6.016  0.0349 -0.3557 -0.2827
10761TIP3    H132240   1.933   6.319   6.054  0.8116 -1.0402 -2.5280
10761TIP3    H232241   1.819   6.309   5.955 -1.6146  0.4767 -0.0354
10762TIP3   OH232242   1.632   3.630   3.654 -0.3393  0.4015  0.1024
10762TIP3    H132243   1.697   3.578   3.701  1.8368  2.7695 -0.0682
10762TIP3    H232244   1.621   3.585   3.570  0.0278 -0.7702  0.6542
10763TIP3   OH232245   7.599   1.274   6.443  0.1177 -0.1042  0.0761
10763TIP3    H132246   7.664   1.330   6.400  1.8056 -0.9710  1.3690
10763TIP3    H232247   7.537   1.335   6.483  0.5562  0.7647 -0.5280
10764TIP3   OH232248   1.169   4.435   0.936  0.1223  0.0330 -0.4407
10764TIP3    H132249   1.223   4.512   0.956 -0.3085  0.3722 -0.5770
10764TIP3    H232250   1.081   4.459   0.965 -0.0430 -0.3564 -0.6135
10765TIP3   OH232251   3.459   4.202   0.999  0.5447 -0.0867 -0.2435
10765TIP3    H132252   3.466   4.296   0.978 -0.8465  0.6714  2.2973
10765TIP3    H232253   3.542   4.165   0.969  1.2205  1.9882 -1.1410
10766TIP3   OH232254   0.824   2.451   1.340  0.3823  0.1447 -0.6192
10766TIP3    H132255   0.778   2.402   1.408 -0.0739  1.1293 -0.1934
10766TIP3    H232256   0.834   2.539   1.376 -1.2107  1.1330 -2.3594
10767TIP3   OH232257   3.315   6.125   0.232 -1.2139  0.4848 -0.5606
10767TIP3    H132258   3.362   6.162   0.158  0.5755  1.8561  1.1441
10767TIP3    H232259   3.374   6.139   0.307 -3.2954 -0.0251  1.2810
10768TIP3   OH232260   4.452   5.279   0.932  0.1786  0.4422 -0.6804
10768TIP3    H132261   4.464   5.253   0.840  0.9503 -3.1830  0.3145
10768TIP3    H232262   4.360   5.259   0.950  0.7721 -1.8102  0.0888
10769TIP3   OH232263   3.257   0.939   1.654 -0.2223  0.1534  0.6305
10769TIP3    H132264   3.293   0.929   1.742 -0.7736 -0.8603  0.7555
10769TIP3    H232265   3.242   1.033   1.645  0.4076  0.3388  1.3859
10770TIP3   OH232266   1.279   6.330   4.496 -0.3290 -0.5186  0.0127
10770TIP3    H132267   1.339   6.371   4.558  1.1092 -1.8056 -0.4704
10770TIP3    H232268   1.250   6.401   4.440  0.6685  0.1494  0.3183
10771TIP3   OH232269   1.091   0.304   4.929 -0.3652  0.1367  0.2532
10771TIP3    H132270   1.020   0.353   4.888 -1.6145 -0.2856  1.7963
10771TIP3    H232271   1.061   0.289   5.019  1.2953 -0.8381  0.6924
10772TIP3   OH232272   8.225   3.975   4.484 -0.0710 -0.5267  0.4737
10772TIP3    H132273   8.153   4.001   4.427  0.4189 -0.0545  0.0603
10772TIP3    H232274   8.300   3.965   4.426  0.3291 -0.4821  0.9704
10773TIP3   OH232275   2.620   6.621   6.449 -0.0306  0.0744 -0.3594
10773TIP3    H132276   2.681   6.552   6.423 -0.9669 -0.4706 -1.1614
10773TIP3    H232277   2.664   6.703   6.423  0.8867 -0.2146  0.1985
10774TIP3   OH232278   6.690   4.676   2.174  0.5160 -0.5959 -0.2085
10774TIP3    H132279   6.632   4.649   2.103  0.6014 -3.7042  0.7613
10774TIP3    H232280   6.733   4.755   2.142 -1.4721 -0.3233 -2.4439
10775TIP3   OH232281   4.403   1.401   5.096  0.0965  0.0303  0.0417
10775TIP3    H132282   4.392   1.447   5.180  0.0930 -0.7040  0.4497
10775TIP3    H232283   4.481   1.442   5.057  0.6969 -0.2958  0.8645
10776TIP3   OH232284   2.323   0.551   4.475  0.3485  0.0893  0.3050
10776TIP3    H132285   2.361   0.470   4.439  0.4741 -0.5827  1.8782
10776TIP3    H232286   2.367   0.562   4.559  0.3146  1.8093  0.1230
10777TIP3   OH232287   1.991   4.471   6.162  0.4489 -0.5552  0.2301
10777TIP3    H132288   1.976   4.561   6.132 -1.7155 -0.0455  2.5336
10777TIP3    H232289   2.026   4.481   6.250 -0.4840 -1.9710  0.7830
10778TIP3   OH232290   2.604   7.476   6.521 -0.8916 -0.6660  0.2475
10778TIP3    H132291   2.550   7.523   6.584 -0.0628 -1.5861  1.7140
10778TIP3    H232292   2.630   7.396   6.567  0.6754 -0.8431 -0.8613
10779TIP3   OH232293   4.622   0.945   6.094  0.0289 -0.5087 -0.1698
10779TIP3    H132294   4.683   0.956   6.167  1.1201  0.0262 -1.1254
10779TIP3    H232295   4.677   0.953   6.016 -1.0724 -1.3274 -1.0532
10780TIP3   OH232296   5.064   3.935   2.971  0.0793  0.7889 -0.1974
10780TIP3    H132297   4.970   3.937   2.991 -0.2517  1.4586 -1.6668
10780TIP3    H232298   5.090   4.027   2.968  0.3969  0.6799 -1.3598
10781TIP3   OH232299   1.735   6.936   0.305  0.3864  0.0690 -0.0639
10781TIP3    H132300   1.650   6.946   0.349  0.3491  1.2922 -0.3754
10781TIP3    H232301   1.797   6.919   0.376  0.0206  0.0705  0.2627
10782TIP3   OH232302   0.438   2.850   6.164 -0.3455  0.2186 -0.4018
10782TIP3    H132303   0.438   2.874   6.072  1.1208  0.4211 -0.3744
10782TIP3    H232304   0.452   2.755   6.164  2.1897  0.5220 -0.3943
10783TIP3   OH232305   5.854   6.047   2.619  0.3805  0.6672  0.2339
10783TIP3    H132306   5.884   6.111   2.683  0.0909  2.3305 -1.1972
10783TIP3    H232307   5.869   6.089   2.534 -1.8044 -0.2774 -0.7101
10784TIP3   OH232308   4.765   4.988   6.133  0.6292  0.0277  0.0346
10784TIP3    H132309   4.842   4.985   6.076 -0.2957  1.4420 -1.3948
10784TIP3    H232310   4.694   4.954   6.079 -0.0513  0.2905  0.7408
10785TIP3   OH232311   6.024   3.087   4.577 -0.3780 -0.3563  0.0660
10785TIP3    H132312   5.964   3.030   4.530  0.2357 -1.8618  1.0386
10785TIP3    H232313   6.036   3.162   4.519 -2.3144 -0.5176 -0.6325
10786TIP3   OH232314   2.346   4.345   6.357 -0.0532 -0.1491 -0.6165
10786TIP3    H132315   2.417   4.286   6.330  0.1522  0.5552 -1.6901
10786TIP3    H232316   2.323   4.316   6.445  0.0043 -1.8772 -1.1212
10787TIP3   OH232317   4.687   1.970   2.425  0.1225  0.6029  0.5465
10787TIP3    H132318   4.674   2.064   2.409  0.2324  0.4576 -0.4862
10787TIP3    H232319   4.748   1.943   2.357 -0.1781 -0.2968  0.6258
10788TIP3   OH232320   4.195   4.211   2.298  0.1670 -0.3019 -0.3413
10788TIP3    H132321   4.285   4.229   2.325 -0.1640  0.0954  0.5443
10788TIP3    H232322   4.185   4.257   2.214  0.6349  0.0850 -0.1871
10789TIP3   OH232323   6.241   6.293   1.408 -0.5147 -0.2147 -0.0129
10789TIP3    H132324   6.157   6.311   1.366 -1.6944  0.0469  2.2501
10789TIP3    H232325   6.264   6.375   1.451 -0.6387 -1.0691  1.7916
10790TIP3   OH232326   5.315   3.814   1.497  0.0629 -0.2460 -0.4386
10790TIP3    H132327   5.396   3.809   1.547  1.2650  1.9295 -1.9898
10790TIP3    H232328   5.329   3.754   1.423  0.9585  1.2722 -1.5434
10791TIP3   OH232329   1.210   3.960   2.984  0.0545  0.6357 -0.4345
10791TIP3    H132330   1.117   3.945   3.000  0.2337  1.3491  1.5257
10791TIP3    H232331   1.219   4.055   2.979  0.8888  0.6685  1.1091
10792TIP3   OH232332   4.295   4.788   0.803 -0.3528 -0.2609  0.1166
10792TIP3    H132333   4.267   4.872   0.838 -2.5448 -0.6500 -0.5647
10792TIP3    H232334   4.332   4.809   0.717 -0.7608  0.0410  0.0094
10793TIP3   OH232335   7.818   6.234   4.432 -0.2526  0.4854  0.1468
10793TIP3    H132336   7.889   6.185   4.475  0.2094 -0.5365 -1.6771
10793TIP3    H232337   7.808   6.191   4.347 -0.8742  2.6429 -0.9264
10794TIP3   OH232338   5.240   3.957   4.453 -1.0335 -0.0389  0.4160
10794TIP3    H132339   5.209   3.920   4.370 -2.8508  1.5056  0.3391
10794TIP3    H232340   5.264   4.047   4.430  2.4955 -0.7621  0.7519
10795TIP3   OH232341   5.139   1.269   2.729 -0.8188 -0.1547 -1.1006
10795TIP3    H132342   5.060   1.219   2.751 -0.1893 -0.7071 -0.0051
10795TIP3    H232343   5.190   1.210   2.674  0.2939 -1.1118  0.8413
10796TIP3   OH232344   6.453   6.323   6.138  0.6256  0.7929  0.2975
10796TIP3    H132345   6.436   6.313   6.231  0.7192  1.5662  0.4063
10796TIP3    H232346   6.502   6.405   6.131  1.8162  0.0480 -0.3013
10797TIP3   OH232347   7.983   7.038   4.849  0.0193 -0.0181  0.5909
10797TIP3    H132348   7.953   6.955   4.813 -0.8188 -0.4673  2.2296
10797TIP3    H232349   7.941   7.105   4.794  0.6712 -0.6441 -0.7115
10798TIP3   OH232350   0.766   2.089   4.343  0.1052  0.2873 -0.2758
10798TIP3    H132351   0.777   2.141   4.263 -0.1262 -1.0857 -1.2360
10798TIP3    H232352   0.747   2.001   4.312  1.5033 -0.6246  1.2903
10799TIP3   OH232353   4.311   5.387   4.256 -0.7463 -0.0923  0.3228
10799TIP3    H132354   4.282   5.467   4.212  1.5578  0.8429  0.3516
10799TIP3    H232355   4.385   5.356   4.203  0.7073 -0.1658  2.3000
10800TIP3   OH232356   5.692   7.154   6.400  0.5312 -0.1810 -0.5867
10800TIP3    H132357   5.701   7.217   6.471 -0.7645  0.4254 -0.9140
10800TIP3    H232358   5.677   7.071   6.444  0.2253  0.1033 -0.1398
10801TIP3   OH232359   1.122   0.355   6.751 -0.1295 -0.3352 -0.4051
10801TIP3    H132360   1.193   0.291   6.747 -0.4763 -0.7106 -0.5928
10801TIP3    H232361   1.144   0.419   6.684  0.6682  0.2210  0.3559
10802TIP3   OH232362   0.289   2.699   0.035  0.7956 -0.1678  0.0572
10802TIP3    H132363   0.361   2.745  -0.008  0.9566  1.0015  1.5120
10802TIP3    H232364   0.329   2.658   0.112  0.3030 -1.3016 -0.2676
10803TIP3   OH232365   4.438   6.645   2.811  0.3025  0.3972  0.3753
10803TIP3    H132366   4.375   6.699   2.859  0.6567  2.0212 -0.9062
10803TIP3    H232367   4.386   6.573   2.776 -0.6282  1.0961  0.2898
10804TIP3   OH232368   0.982   1.633   2.442 -0.3725  0.5486 -0.1730
10804TIP3    H132369   1.068   1.625   2.401 -0.6110 -0.8584 -0.4339
10804TIP3    H232370   0.999   1.679   2.524  0.7087 -0.1379  0.0106
10805TIP3   OH232371   2.936   3.535   5.530 -0.2176 -0.8105  0.3808
10805TIP3    H132372   2.975   3.449   5.513  0.0822 -0.8874  1.4025
10805TIP3    H232373   2.988   3.596   5.476  1.0382 -0.9797  1.3477
10806TIP3   OH232374   0.391   4.666   3.714  0.0558  0.2245 -0.1947
10806TIP3    H132375   0.434   4.690   3.633  0.7581  0.8754  0.3576
10806TIP3    H232376   0.451   4.694   3.783 -0.4625 -0.4358  0.5507
10807TIP3   OH232377   5.261   3.857   2.771  0.0758 -0.0391 -0.3277
10807TIP3    H132378   5.172   3.862   2.806  0.2974  2.3190  0.0909
10807TIP3    H232379   5.317   3.863   2.849  0.5830  0.5777 -0.7351
10808TIP3   OH232380   5.440   5.001   5.547 -1.3787  0.1825  0.1560
10808TIP3    H132381   5.533   4.997   5.572 -1.4467 -1.5649  0.2385
10808TIP3    H232382   5.436   4.960   5.461 -1.9472  1.2456 -0.3469
10809TIP3   OH232383   1.109   4.845   2.225 -0.1365 -0.2206  0.2384
10809TIP3    H132384   1.073   4.874   2.141 -1.3896  0.4997  0.9886
10809TIP3    H232385   1.140   4.756   2.207 -1.1369 -0.4009 -0.7964
10810TIP3   OH232386   3.685   0.901   1.249 -0.4710 -0.3704  0.5188
10810TIP3    H132387   3.621   0.913   1.178 -0.7492 -0.3924  0.7622
10810TIP3    H232388   3.733   0.984   1.252  2.5367 -1.7651 -2.5630
10811TIP3   OH232389   0.549   6.110   2.097  0.1571 -0.9444  0.6479
10811TIP3    H132390   0.546   6.016   2.079 -0.3679 -1.0208  1.1197
10811TIP3    H232391   0.530   6.117   2.191  0.4384 -0.3852  0.6667
10812TIP3   OH232392   0.247   5.168   2.988  0.8564 -0.1482 -0.1825
10812TIP3    H132393   0.163   5.211   2.975  2.3670  2.4806 -2.1441
10812TIP3    H232394   0.247   5.094   2.926  1.1039  1.7259 -2.5568
10813TIP3   OH232395   0.312   1.508   1.687  0.1615  0.5409 -0.1094
10813TIP3    H132396   0.316   1.570   1.614  2.9830  1.1036  0.4131
10813TIP3    H232397   0.335   1.424   1.649 -4.5550 -0.6660 -1.0145
10814TIP3   OH232398   0.128   3.109   6.663 -0.5819  0.0608  0.0149
10814TIP3    H132399   0.129   3.201   6.692 -0.7141 -0.0777  0.4581
10814TIP3    H232400   0.219   3.080   6.675 -0.3814  0.3214 -0.7532
10815TIP3   OH232401   7.464   5.965   6.301  0.2351 -0.4212 -0.4860
10815TIP3    H132402   7.509   5.981   6.218 -0.3166  1.6796 -0.4392
10815TIP3    H232403   7.498   6.032   6.360 -0.6221 -0.8023  0.4726
10816TIP3   OH232404   6.082   2.392   3.988  0.0814 -0.0777 -0.3036
10816TIP3    H132405   6.165   2.359   3.955  0.0576  0.0407 -0.4863
10816TIP3    H232406   6.084   2.375   4.082  0.9300  1.2245 -0.0569
10817TIP3   OH232407   3.932   1.366   1.642  0.0396  0.2155  0.3925
10817TIP3    H132408   3.893   1.453   1.651 -0.0952  0.0815  1.2698
10817TIP3    H232409   3.972   1.349   1.728  0.4221 -0.4119  0.0973
10818TIP3   OH232410   3.552   6.069   0.864 -0.0308  0.1377 -0.0448
10818TIP3    H132411   3.523   6.157   0.891  1.4944 -0.3252  3.8171
10818TIP3    H232412   3.472   6.017   0.865 -0.6449  1.0424 -0.3063
10819TIP3   OH232413   7.320   1.431   6.344 -0.2658 -0.0817 -0.0935
10819TIP3    H132414   7.398   1.447   6.291  0.2678 -1.1045  0.3583
10819TIP3    H232415   7.328   1.491   6.417  0.2303 -0.3544  0.0810
10820TIP3   OH232416   6.286   1.844   3.979 -0.1010 -0.0278 -0.2929
10820TIP3    H132417   6.371   1.831   4.021 -0.6621 -1.3181  0.4784
10820TIP3    H232418   6.304   1.833   3.885  0.4129 -1.2399 -0.0627
10821TIP3   OH232419   3.058   7.762   4.864  0.1767 -0.1018  0.0789
10821TIP3    H132420   3.037   7.774   4.772 -0.1366  0.4526  0.2197
10821TIP3    H232421   3.064   7.667   4.875  0.3190 -0.1686 -0.5298
10822TIP3   OH232422   1.645   7.092   0.921  0.0669  0.0337 -0.3387
10822TIP3    H132423   1.654   7.026   0.989 -0.5743  0.1042 -0.1863
10822TIP3    H232424   1.637   7.175   0.968  1.2514  0.2855 -0.5334
10823TIP3   OH232425   7.112   7.283   2.302  0.2375  0.0320  0.2734
10823TIP3    H132426   7.080   7.262   2.214  0.6552 -0.9959  0.3593
10823TIP3    H232427   7.137   7.376   2.296 -2.3369  0.7861  0.1163
10824TIP3   OH232428   3.748   5.405   3.288  0.0181  0.1878  0.1175
10824TIP3    H132429   3.665   5.364   3.312  0.1215 -0.1171 -0.0318
10824TIP3    H232430   3.763   5.471   3.356  0.7570 -1.2809  1.4603
10825TIP3   OH232431   0.365   2.147   0.351 -0.1039 -0.2399 -0.4485
10825TIP3    H132432   0.337   2.073   0.405 -0.2527  0.9110  1.1128
10825TIP3    H232433   0.451   2.121   0.318 -1.2652 -2.2152 -2.1926
10826TIP3   OH232434   2.926   5.822   3.610  0.1123 -0.6779 -0.6099
10826TIP3    H132435   2.902   5.854   3.697  1.1874  0.9689 -0.8855
10826TIP3    H232436   2.996   5.758   3.627  0.5401 -0.1295 -0.2748
10827TIP3   OH232437   4.481   7.348   0.959 -0.0046 -0.4636  0.1214
10827TIP3    H132438   4.409   7.285   0.951 -2.1004  1.5520  1.5939
10827TIP3    H232439   4.513   7.335   1.049  0.1268 -0.0282  0.1377
10828TIP3   OH232440   1.715   6.448   0.621 -0.7686 -0.0523  0.1165
10828TIP3    H132441   1.733   6.535   0.585 -1.9189  0.3042  0.3607
10828TIP3    H232442   1.783   6.436   0.688  0.2962  0.0217 -0.9189
10829TIP3   OH232443   4.181   5.424   5.569 -0.2219  0.0426 -0.2403
10829TIP3    H132444   4.205   5.445   5.659 -2.0278  0.4978  0.1705
10829TIP3    H232445   4.246   5.360   5.541 -0.5897 -1.3630  1.9358
10830TIP3   OH232446   7.223   0.760   5.865 -0.2159  0.0947 -0.2273
10830TIP3    H132447   7.215   0.673   5.904 -0.2769  0.5744  0.8412
10830TIP3    H232448   7.317   0.775   5.858 -0.1929  0.5356  0.9426
10831TIP3   OH232449   2.780   6.029   1.724 -0.5386  0.1571  0.2374
10831TIP3    H132450   2.798   6.067   1.638 -1.4251 -2.9875 -1.5065
10831TIP3    H232451   2.688   6.051   1.741 -1.0761 -1.1263 -0.8022
10832TIP3   OH232452   6.435   0.609   3.345  0.1465 -0.3210  0.0293
10832TIP3    H132453   6.482   0.692   3.346  0.6022 -0.5401  2.3743
10832TIP3    H232454   6.355   0.626   3.297 -0.1381  1.7024  1.1412
10833TIP3   OH232455   7.350   7.362   3.893 -0.1517 -0.0681 -0.0645
10833TIP3    H132456   7.405   7.287   3.870  0.1924 -0.3023  1.3828
10833TIP3    H232457   7.276   7.323   3.940 -0.0597  0.4737  0.5465
10834TIP3   OH232458   6.779   7.596   4.091 -0.4311  0.2407 -0.7672
10834TIP3    H132459   6.719   7.582   4.017  0.5039 -0.0304 -1.4929
10834TIP3    H232460   6.726   7.577   4.169 -1.4995  0.7553 -1.3470
10835TIP3   OH232461   1.744   1.045   0.349  0.4080 -0.0422 -0.4474
10835TIP3    H132462   1.652   1.067   0.365  0.3521 -0.4796 -0.1648
10835TIP3    H232463   1.769   0.990   0.423  0.6164 -0.7362 -1.0292
10836TIP3   OH232464   4.343   4.200   1.084  0.1024 -0.2043  0.3157
10836TIP3    H132465   4.422   4.235   1.044  0.0070 -1.2719 -0.8567
10836TIP3    H232466   4.361   4.200   1.178  0.9688  0.7840  0.1674
10837TIP3   OH232467   6.136   2.087   2.806 -0.0622  0.1990 -0.0954
10837TIP3    H132468   6.209   2.111   2.748  0.6614  1.0825  1.1348
10837TIP3    H232469   6.058   2.121   2.762  0.3357 -0.1099 -1.0728
10838TIP3   OH232470   6.976   1.280   4.236  0.2297  0.8237  0.3961
10838TIP3    H132471   7.003   1.365   4.269 -1.1380  1.0046  1.1117
10838TIP3    H232472   6.889   1.295   4.199  0.5528  0.0207 -0.7625
10839TIP3   OH232473   1.043   3.292   3.709  0.7899  0.6159 -0.5153
10839TIP3    H132474   1.033   3.323   3.799  0.4510  0.7106 -0.5826
10839TIP3    H232475   0.993   3.355   3.657  0.5743  0.2855 -0.7151
10840TIP3   OH232476   0.451   3.180   6.215 -0.2056 -0.1635 -0.0133
10840TIP3    H132477   0.458   3.198   6.308 -1.4521 -0.6797  0.1993
10840TIP3    H232478   0.487   3.092   6.204 -1.5280 -0.7775  0.2769
10841TIP3   OH232479   4.725   2.583   5.386  0.2047 -0.5468  0.1641
10841TIP3    H132480   4.742   2.655   5.447  1.2336 -1.7488  1.3718
10841TIP3    H232481   4.699   2.626   5.304 -0.0700  1.1509  1.0970
10842TIP3   OH232482   7.315   3.383   5.170 -0.1563  0.3830  0.4134
10842TIP3    H132483   7.339   3.336   5.090 -2.0316  1.8692 -1.1143
10842TIP3    H232484   7.334   3.475   5.151  1.0379  0.6069  2.3942
10843TIP3   OH232485   7.497   1.085   3.677 -0.4314 -0.1957  0.1362
10843TIP3    H132486   7.454   1.045   3.752  0.7675  2.1897  2.2178
10843TIP3    H232487   7.548   1.013   3.638  0.1322 -1.1949  2.5455
10844TIP3   OH232488   2.961   4.002   4.190  0.3314  0.0309 -0.1005
10844TIP3    H132489   3.022   4.056   4.240 -0.2250  0.0892  0.5385
10844TIP3    H232490   2.935   3.933   4.251  1.0228 -0.9578 -0.9024
10845TIP3   OH232491   5.366   2.093   3.501 -0.6824 -0.4563 -0.1137
10845TIP3    H132492   5.322   2.042   3.433 -0.0497 -0.6990 -0.3497
10845TIP3    H232493   5.362   2.183   3.469  0.9817 -0.7560 -1.2568
10846TIP3   OH232494   5.878   2.657   2.239 -0.1740  0.1014  0.1999
10846TIP3    H132495   5.835   2.743   2.248  0.5522  0.6829 -1.3740
10846TIP3    H232496   5.885   2.645   2.144  0.6515 -1.2409  0.4139
10847TIP3   OH232497   0.593   4.664   1.279  0.2410 -0.1228 -0.6986
10847TIP3    H132498   0.504   4.689   1.305  0.2724 -0.0184 -0.6903
10847TIP3    H232499   0.639   4.650   1.361  0.4464  0.5801 -0.6846
10848TIP3   OH232500   2.958   5.152   3.030 -0.2138  0.5834  0.2339
10848TIP3    H132501   3.004   5.193   2.956  1.9342  2.7264  2.5428
10848TIP3    H232502   2.963   5.058   3.012  1.6069  0.9384 -1.6126
10849TIP3   OH232503   0.391   5.658   4.760  0.3095  0.1737 -0.2107
10849TIP3    H132504   0.345   5.741   4.775  0.5422  0.0616  1.2448
10849TIP3    H232505   0.393   5.616   4.845  0.2225 -1.3436 -0.9297
10850TIP3   OH232506   2.047   3.617   3.543  0.3273  0.4170 -0.9596
10850TIP3    H132507   2.099   3.540   3.519 -0.0122  0.5135 -2.0977
10850TIP3    H232508   1.973   3.582   3.592 -0.1122 -0.0668 -1.9306
10851TIP3   OH232509   7.535   4.589   2.160 -0.1881  0.2263 -0.5729
10851TIP3    H132510   7.625   4.600   2.193 -0.1195 -0.9468 -0.3199
10851TIP3    H232511   7.480   4.633   2.225  0.0153 -1.2976  0.6977
10852TIP3   OH232512   4.644   3.574   4.955 -0.2511 -0.1986 -0.0206
10852TIP3    H132513   4.738   3.582   4.971 -0.4807 -1.0946  2.0761
10852TIP3    H232514   4.603   3.635   5.017 -1.1636 -3.0335  2.4070
10853TIP3   OH232515   6.312   5.297   5.405  0.2792 -0.2933  0.1557
10853TIP3    H132516   6.281   5.291   5.314  0.6800 -0.4851  0.0303
10853TIP3    H232517   6.367   5.220   5.417 -0.3496 -0.6639  0.7937
10854TIP3   OH232518   1.326   7.488   4.890  0.1383  0.4272 -0.5561
10854TIP3    H132519   1.328   7.481   4.986  1.3269  0.0231 -0.5914
10854TIP3    H232520   1.417   7.507   4.865 -0.3021  1.3556 -1.5603
10855TIP3   OH232521   6.033   5.829   2.482 -0.3010 -0.7792  0.1099
10855TIP3    H132522   5.954   5.881   2.498 -0.2279 -0.1832 -1.3511
10855TIP3    H232523   6.075   5.871   2.408  0.9117 -1.6617  0.2687
10856TIP3   OH232524   7.639   7.288   1.498  0.1145 -0.4963  0.9870
10856TIP3    H132525   7.689   7.365   1.471  1.8848 -1.3989  1.5656
10856TIP3    H232526   7.562   7.324   1.542 -0.4428  0.9343 -1.0339
10857TIP3   OH232527   7.963   3.437   3.949  0.9343  0.2934  0.3060
10857TIP3    H132528   7.890   3.405   4.002  0.1942  1.1123 -0.2003
10857TIP3    H232529   8.035   3.449   4.012  0.0658  1.2813  1.1465
10858TIP3   OH232530   5.571   1.274   1.538 -0.1837 -0.4136 -0.6242
10858TIP3    H132531   5.623   1.324   1.475  0.2223  1.4590  1.0782
10858TIP3    H232532   5.485   1.266   1.497 -0.0196  1.0130 -1.3136
10859TIP3   OH232533   5.202   5.017   4.275 -0.0165  0.1076 -0.1378
10859TIP3    H132534   5.222   5.110   4.290 -1.7230  0.2749  1.4561
10859TIP3    H232535   5.147   5.017   4.197  0.0350  0.4318 -0.1754
10860TIP3   OH232536   1.150   3.404   5.530  0.0509 -0.1916 -0.2088
10860TIP3    H132537   1.171   3.319   5.491  0.5829  0.8446 -2.3289
10860TIP3    H232538   1.069   3.431   5.487 -0.5021  0.1020  0.9639
10861TIP3   OH232539   8.034   5.753   2.707 -0.1486  0.0914  0.2567
10861TIP3    H132540   8.079   5.790   2.783  2.8642  0.0201 -1.3383
10861TIP3    H232541   8.018   5.829   2.650  3.0696 -0.4018 -1.5594
10862TIP3   OH232542   3.869   7.614   0.668 -0.1208 -0.0686  0.1247
10862TIP3    H132543   3.928   7.586   0.738 -0.5157  2.3368  1.5486
10862TIP3    H232544   3.925   7.627   0.592  0.4732 -1.7922  0.2259
10863TIP3   OH232545   4.007   4.587   2.316 -0.2277 -0.2563 -0.5216
10863TIP3    H132546   3.940   4.645   2.353 -1.7624 -0.6228 -2.5513
10863TIP3    H232547   3.977   4.498   2.337 -0.6042 -0.4365 -1.7383
10864TIP3   OH232548   4.616   0.579   4.574  0.1664 -0.2858  0.0218
10864TIP3    H132549   4.618   0.499   4.627  0.3456 -0.8558 -0.8247
10864TIP3    H232550   4.681   0.563   4.505  0.7532  0.8974  0.2671
10865TIP3   OH232551   3.516   4.338   5.458  0.1188 -0.3150 -0.3592
10865TIP3    H132552   3.454   4.323   5.529 -0.6355  1.1064 -0.6704
10865TIP3    H232553   3.477   4.294   5.383 -1.1891  1.5144 -0.8432
10866TIP3   OH232554   3.529   2.251   5.814  0.4030 -0.3661  0.5959
10866TIP3    H132555   3.586   2.231   5.888  0.6540  1.1207  0.8266
10866TIP3    H232556   3.535   2.346   5.804 -2.2966 -0.0901  0.8555
10867TIP3   OH232557   1.611   3.998   4.879 -0.4371  0.2324 -0.1244
10867TIP3    H132558   1.555   3.945   4.823 -0.5137 -0.6834  0.7929
10867TIP3    H232559   1.560   4.077   4.897 -1.4647 -0.5892  0.7017
10868TIP3   OH232560   5.315   3.720   0.390  0.1083  0.2382 -0.0796
10868TIP3    H132561   5.298   3.804   0.431 -0.6576  0.7611 -1.3969
10868TIP3    H232562   5.314   3.739   0.296 -2.4937 -1.6250 -0.5233
10869TIP3   OH232563   3.441   0.484   0.558  0.2177 -0.9018  0.3611
10869TIP3    H132564   3.497   0.482   0.480  1.5309 -0.7160  1.2488
10869TIP3    H232565   3.397   0.569   0.554  0.6079 -0.7122  0.0312
10870TIP3   OH232566   1.819   1.383   2.679 -0.6194 -0.0989  0.0775
10870TIP3    H132567   1.739   1.386   2.626 -0.9324 -1.8914  0.3783
10870TIP3    H232568   1.788   1.364   2.768  0.1159 -0.5641  0.2450
10871TIP3   OH232569   6.466   1.437   1.156  0.7987 -0.2855 -0.0317
10871TIP3    H132570   6.448   1.378   1.083  0.1792 -0.6215  0.3806
10871TIP3    H232571   6.554   1.413   1.186  1.4603  0.5014 -1.2562
10872TIP3   OH232572   4.544   7.323   2.487 -0.0497 -0.4407  0.2506
10872TIP3    H132573   4.559   7.341   2.394  0.3449 -1.0061  0.2031
10872TIP3    H232574   4.582   7.237   2.501  1.8795  0.5367  1.4550
10873TIP3   OH232575   1.067   5.487   2.784 -0.6806 -0.0594  1.0630
10873TIP3    H132576   1.087   5.496   2.877  0.2011 -0.8617  0.9606
10873TIP3    H232577   1.106   5.403   2.759  1.1774  1.2321 -0.5951
10874TIP3   OH232578   1.911   1.877   0.430 -0.3340 -0.0873  0.2483
10874TIP3    H132579   1.831   1.929   0.424 -0.8594 -0.6806  1.7412
10874TIP3    H232580   1.895   1.801   0.375  0.8103  1.6874 -2.7589
10875TIP3   OH232581   8.317   7.620   4.138  0.1838 -0.5943 -0.0872
10875TIP3    H132582   8.307   7.615   4.233 -0.4859  0.3291 -0.1018
10875TIP3    H232583   8.228   7.620   4.104  0.3283  1.1223 -0.5846
10876TIP3   OH232584   0.675   6.301   2.426  0.0505  0.5590 -0.5455
10876TIP3    H132585   0.763   6.321   2.394  0.5549  0.3476  0.6572
10876TIP3    H232586   0.665   6.207   2.411  0.3035  0.4517 -0.0654
10877TIP3   OH232587   5.026   3.326   5.598 -0.3290 -0.0757  0.1726
10877TIP3    H132588   5.044   3.353   5.688 -1.3500 -1.8900  0.9793
10877TIP3    H232589   4.936   3.354   5.582 -0.3949 -0.3916 -0.0252
10878TIP3   OH232590   6.649   5.095   3.835  0.2393  0.0924 -0.8211
10878TIP3    H132591   6.565   5.055   3.812  0.0071 -0.8269  1.4444
10878TIP3    H232592   6.714   5.046   3.783 -0.1363 -2.7023  1.1213
10879TIP3   OH232593   0.099   4.231   3.739  0.4755  0.3769  0.2990
10879TIP3    H132594   0.183   4.273   3.754  0.7752  0.3183 -1.1378
10879TIP3    H232595   0.115   4.169   3.668 -1.2383  1.9053 -1.5420
10880TIP3   OH232596   1.702   5.580   3.349  0.8175  0.4423 -0.1732
10880TIP3    H132597   1.617   5.537   3.342  1.4275 -1.0537  0.8684
10880TIP3    H232598   1.720   5.583   3.443  1.4923  1.6252 -0.3184
10881TIP3   OH232599   1.685   7.477   3.448  0.0674 -0.1780  0.1116
10881TIP3    H132600   1.754   7.500   3.386  0.2484 -0.5789  0.1580
10881TIP3    H232601   1.700   7.536   3.523 -0.4822  0.6751 -0.4387
10882TIP3   OH232602   0.051   7.652   2.594 -0.0244 -0.1085  0.5661
10882TIP3    H132603  -0.037   7.619   2.611  0.6553 -2.8247 -0.6907
10882TIP3    H232604   0.045   7.694   2.508 -0.8341  3.1427  2.0639
10883TIP3   OH232605   6.491   3.174   0.671 -0.4405 -0.3867 -1.0357
10883TIP3    H132606   6.521   3.097   0.718 -1.6613 -0.8620 -0.9988
10883TIP3    H232607   6.571   3.218   0.643  0.3214 -0.4128  0.9311
10884TIP3   OH232608   8.210   7.048   5.456  0.2178 -0.8287 -0.1298
10884TIP3    H132609   8.174   7.012   5.537 -1.7862  0.6340 -0.2847
10884TIP3    H232610   8.301   7.069   5.477 -0.3906 -0.0161  1.9374
10885TIP3   OH232611   3.279   3.385   1.694  0.2179  0.5331  0.0389
10885TIP3    H132612   3.203   3.398   1.637  1.6625  2.1021 -1.6568
10885TIP3    H232613   3.354   3.386   1.635  1.6586  0.0356  1.7728
10886TIP3   OH232614   7.833   2.648   4.369  0.9061  0.2815  0.2809
10886TIP3    H132615   7.840   2.733   4.414 -0.2725  1.0584 -0.9246
10886TIP3    H232616   7.742   2.622   4.381  0.7684  0.1271 -0.9583
10887TIP3   OH232617   0.094   3.900   4.264 -0.7928 -0.2263  0.6247
10887TIP3    H132618   0.117   3.832   4.201  0.1802 -1.8815  2.6095
10887TIP3    H232619   0.146   3.976   4.240 -0.1334 -0.9588 -0.3029
10888TIP3   OH232620   8.069   4.599   2.827 -0.4605 -0.0982  0.2445
10888TIP3    H132621   8.113   4.519   2.856 -1.9725 -0.9869  0.1537
10888TIP3    H232622   8.140   4.656   2.797  0.5345 -2.1837 -1.6454
10889TIP3   OH232623   2.134   4.078   5.795 -0.0575  0.0038  0.8114
10889TIP3    H132624   2.103   4.164   5.821 -1.5508 -0.4968  0.7703
10889TIP3    H232625   2.194   4.095   5.722 -1.5253  0.9323 -0.2451
10890TIP3   OH232626   1.701   7.418   6.272  0.0558 -0.0579 -0.1841
10890TIP3    H132627   1.794   7.440   6.273 -0.0764  0.5539  1.2477
10890TIP3    H232628   1.660   7.486   6.219  0.4464 -0.4914 -1.0590
10891TIP3   OH232629   5.256   1.311   2.464 -0.4082  0.2807  0.0493
10891TIP3    H132630   5.219   1.391   2.429 -0.2474  0.8810  1.2128
10891TIP3    H232631   5.351   1.326   2.463 -0.3253 -0.2225 -0.4805
10892TIP3   OH232632   2.430   1.788   3.360  0.3813 -0.2028  0.8237
10892TIP3    H132633   2.349   1.814   3.404 -1.0068 -0.2126 -1.5365
10892TIP3    H232634   2.493   1.774   3.430 -2.0338 -1.4950  2.8731
10893TIP3   OH232635   1.191   0.053   2.614 -0.2553  0.2912  0.9923
10893TIP3    H132636   1.113  -0.002   2.626 -0.0122 -0.6298 -1.1915
10893TIP3    H232637   1.173   0.104   2.535  1.2341  0.2329  0.5852
10894TIP3   OH232638   6.812   1.398   3.878  0.3057  0.5326 -0.1261
10894TIP3    H132639   6.769   1.482   3.871  0.6142  0.7101  0.0854
10894TIP3    H232640   6.808   1.375   3.971  1.1519  0.8160 -0.0117
10895TIP3   OH232641   3.350   0.440   6.618 -1.0685 -0.1028  0.2185
10895TIP3    H132642   3.332   0.526   6.655  0.8423  1.4137 -2.0407
10895TIP3    H232643   3.319   0.446   6.527  2.5691 -0.2787 -1.2066
10896TIP3   OH232644   8.272   4.679   1.147 -0.2488  0.3060  0.0948
10896TIP3    H132645   8.281   4.754   1.087  1.1177  0.7023  0.7429
10896TIP3    H232646   8.220   4.712   1.220  0.5683  0.7216  0.5017
10897TIP3   OH232647   5.759   5.408   4.428  0.0397 -0.2021  0.3445
10897TIP3    H132648   5.695   5.358   4.377  0.4302  0.6247 -0.9991
10897TIP3    H232649   5.760   5.365   4.513 -2.3067 -0.2348  0.4222
10898TIP3   OH232650   2.169   7.225   6.256  0.0081  0.3153 -0.3023
10898TIP3    H132651   2.187   7.198   6.166  1.0138  0.4066 -0.1398
10898TIP3    H232652   2.254   7.249   6.291 -0.5277  1.4069  0.3145
10899TIP3   OH232653   2.762   4.124   2.069  0.2163  0.1952 -0.0130
10899TIP3    H132654   2.767   4.029   2.077 -0.8799 -0.0288 -1.6039
10899TIP3    H232655   2.821   4.145   1.997  0.1119  0.6825  0.0427
10900TIP3   OH232656   3.565   7.278   3.432  0.3414 -0.0868 -0.2018
10900TIP3    H132657   3.513   7.354   3.457 -0.3864 -1.0038  1.2084
10900TIP3    H232658   3.525   7.247   3.351  0.3257  0.7293 -0.5116
10901TIP3   OH232659   7.841   1.198   2.720 -0.2814 -0.6531  0.1178
10901TIP3    H132660   7.922   1.154   2.693 -0.0889 -0.1784 -0.1079
10901TIP3    H232661   7.869   1.260   2.787  0.0073  1.3395 -1.7195
10902TIP3   OH232662   3.612   3.245   5.788  0.1324 -0.1444 -0.0909
10902TIP3    H132663   3.541   3.266   5.728  0.2108  2.1770  0.5241
10902TIP3    H232664   3.590   3.159   5.824 -1.3596 -0.2967 -1.3067
10903TIP3   OH232665   1.021   0.177   2.010 -0.0408 -0.5603  0.1768
10903TIP3    H132666   1.058   0.091   2.031 -2.9037 -2.3175 -1.3752
10903TIP3    H232667   1.041   0.189   1.917  1.6029  1.2077  0.7150
10904TIP3   OH232668   3.308   1.497   1.726 -0.4747 -0.1309 -0.7218
10904TIP3    H132669   3.337   1.484   1.636  0.8445  1.6701 -0.6049
10904TIP3    H232670   3.278   1.588   1.729 -0.5628 -0.1835  0.6428
10905TIP3   OH232671   7.738   2.039   1.958 -0.0095 -0.4235 -0.3166
10905TIP3    H132672   7.707   1.996   2.037 -1.1866 -1.6763 -1.4022
10905TIP3    H232673   7.711   2.130   1.967 -0.0892 -0.5461  0.7315
10906TIP3   OH232674   5.041   5.740   3.596  0.2107  0.5541 -0.5522
10906TIP3    H132675   5.117   5.703   3.552 -0.1068  0.2465 -0.8538
10906TIP3    H232676   4.970   5.733   3.531 -0.3923 -0.3819  0.1797
10907TIP3   OH232677   5.224   2.286   2.212  0.3563  0.0766  0.5673
10907TIP3    H132678   5.282   2.215   2.185  0.0125 -0.8102  2.0813
10907TIP3    H232679   5.161   2.293   2.140  0.5851 -0.9255  0.2452
10908TIP3   OH232680   1.046   1.288   3.460 -0.6465  0.2549 -0.0004
10908TIP3    H132681   1.029   1.356   3.395 -0.1879 -0.1325 -0.5411
10908TIP3    H232682   1.070   1.211   3.408  0.1995  0.0698  0.6384
10909TIP3   OH232683   2.143   1.451   2.623  0.2471  0.3545 -0.2995
10909TIP3    H132684   2.176   1.519   2.681  1.6674 -0.9955  0.5404
10909TIP3    H232685   2.220   1.400   2.598 -1.0183 -2.5075  1.1664
10910TIP3   OH232686   4.855   6.784   0.170 -0.3408  0.3046  0.0655
10910TIP3    H132687   4.914   6.857   0.151 -0.3420  0.0677 -0.9313
10910TIP3    H232688   4.784   6.794   0.106 -1.0593  0.2209  0.8318
10911TIP3   OH232689   4.871   5.543   6.107 -0.0204 -0.1852 -0.2043
10911TIP3    H132690   4.818   5.466   6.088  0.8678 -1.3638  1.7314
10911TIP3    H232691   4.818   5.617   6.078 -1.6230 -1.4511 -0.6154
10912TIP3   OH232692   7.173   1.932   0.020  0.3113  0.5424  0.1909
10912TIP3    H132693   7.159   2.023  -0.005 -2.0047  0.9850  2.7272
10912TIP3    H232694   7.208   1.936   0.109 -0.7593 -1.0507  0.7161
10913TIP3   OH232695   2.292   3.227   6.219  0.2370  0.4663  0.4360
10913TIP3    H132696   2.244   3.200   6.297 -1.8788  0.7073 -0.7259
10913TIP3    H232697   2.350   3.153   6.200  0.7134  0.3631  2.1256
10914TIP3   OH232698   1.388   2.227   4.430 -0.2912  0.0345  0.4106
10914TIP3    H132699   1.326   2.278   4.481  0.8340  0.7346  1.1169
10914TIP3    H232700   1.465   2.219   4.486  0.5541 -0.1589 -0.7372
10915TIP3   OH232701   5.914   4.512   4.614 -0.2030  0.0745  0.5615
10915TIP3    H132702   5.967   4.432   4.612 -0.9675 -0.4324 -1.4463
10915TIP3    H232703   5.976   4.581   4.636  0.3399 -1.0988  3.1770
10916TIP3   OH232704   3.223   6.710   2.413  0.0153 -0.1738 -0.6142
10916TIP3    H132705   3.294   6.729   2.352  0.5764 -1.0294 -0.2606
10916TIP3    H232706   3.170   6.789   2.414  0.9515  0.4810 -0.9111
10917TIP3   OH232707   7.080   1.119   0.800  0.2492 -0.0495  0.7166
10917TIP3    H132708   7.008   1.159   0.849  1.3419  0.7714  1.7218
10917TIP3    H232709   7.089   1.032   0.839 -0.3070 -0.2191  0.4695
10918TIP3   OH232710   7.178   0.288   3.910  0.0533  0.4452 -0.0476
10918TIP3    H132711   7.160   0.285   4.004 -2.5473 -1.0723 -0.4707
10918TIP3    H232712   7.162   0.379   3.885 -2.2535  0.2800  0.5722
10919TIP3   OH232713   7.994   1.532   3.362  0.3599 -0.0846 -0.0626
10919TIP3    H132714   7.924   1.469   3.348  0.2931 -0.2166  0.7964
10919TIP3    H232715   8.051   1.491   3.427  1.8236 -0.4300 -1.4922
10920TIP3   OH232716   6.022   7.427   2.629 -0.4743 -0.1539  0.3941
10920TIP3    H132717   5.940   7.379   2.642  0.5749 -1.9001  0.9042
10920TIP3    H232718   6.046   7.408   2.538 -1.5492  1.9492 -0.4093
10921TIP3   OH232719   5.036   0.584   1.445 -0.6241  0.2995 -0.4420
10921TIP3    H132720   5.021   0.567   1.538  0.0524  0.5139 -0.2852
10921TIP3    H232721   5.082   0.668   1.443  1.1231 -0.6159 -0.8318
10922TIP3   OH232722   0.165   1.022   1.467 -0.1118  0.2454 -0.1531
10922TIP3    H132723   0.150   1.010   1.373 -0.0101  0.4291 -0.1922
10922TIP3    H232724   0.096   1.083   1.494  1.2770  2.0969 -0.5756
10923TIP3   OH232725   6.907   4.497   6.033 -0.0437 -0.1929  0.3212
10923TIP3    H132726   6.996   4.524   6.057 -0.4399  1.4585  0.0921
10923TIP3    H232727   6.882   4.559   5.965 -1.9486  0.4379  1.5192
10924TIP3   OH232728   4.332   3.956   1.506 -0.3609 -0.0110  0.1567
10924TIP3    H132729   4.393   3.921   1.441 -0.9957  0.9690 -1.0114
10924TIP3    H232730   4.388   3.999   1.570  0.2259  0.4332 -0.6239
10925TIP3   OH232731   4.732   3.934   4.904  0.6504 -0.2875  0.1280
10925TIP3    H132732   4.696   4.008   4.952  0.3908 -0.5975  0.4235
10925TIP3    H232733   4.655   3.881   4.882  0.6407  0.3925 -1.5884
10926TIP3   OH232734   3.906   1.419   0.782 -0.1493 -0.3186  0.1783
10926TIP3    H132735   3.903   1.325   0.762  0.6065  0.0034 -1.7036
10926TIP3    H232736   3.862   1.460   0.707 -0.9330  0.8318  1.2249
10927TIP3   OH232737   7.711   6.631   0.037  0.4039 -0.4440 -0.0706
10927TIP3    H132738   7.714   6.725   0.055  4.6175 -0.6359  1.3881
10927TIP3    H232739   7.680   6.591   0.119 -2.0142 -0.4175 -0.8945
10928TIP3   OH232740   7.308   3.113   5.244 -0.4591 -0.5671  0.2341
10928TIP3    H132741   7.382   3.152   5.198 -0.9262  0.4356  0.2991
10928TIP3    H232742   7.240   3.181   5.243 -0.6490 -0.6707  2.0060
10929TIP3   OH232743   3.573   7.133   1.299 -0.1503 -0.2686 -0.4675
10929TIP3    H132744   3.556   7.040   1.315 -0.5817  0.0516  1.2367
10929TIP3    H232745   3.567   7.173   1.386  0.2696  1.3195 -1.1331
10930TIP3   OH232746   7.902   7.640   2.913 -0.3788  0.3380 -0.2803
10930TIP3    H132747   7.896   7.695   2.991 -2.5613  0.6521 -0.6216
10930TIP3    H232748   7.850   7.685   2.847 -1.5188 -1.6444 -0.8347
10931TIP3   OH232749   0.960   1.624   3.580  0.5821 -0.5584  0.0036
10931TIP3    H132750   0.973   1.590   3.491  1.2943 -0.6648  0.1441
10931TIP3    H232751   0.893   1.566   3.617 -0.5639  0.1841 -0.8303
10932TIP3   OH232752   6.526   5.807   3.202  0.0657  0.4202 -0.1307
10932TIP3    H132753   6.541   5.724   3.158 -0.0635  0.2556  0.1366
10932TIP3    H232754   6.608   5.855   3.191  0.6712 -0.3193  0.9657
10933TIP3   OH232755   4.096   0.668   3.996 -1.0059 -0.1753  0.4055
10933TIP3    H132756   4.006   0.697   3.980 -0.2895  1.2461 -1.4054
10933TIP3    H232757   4.088   0.573   4.010 -2.6637 -0.3297 -1.1044
10934TIP3   OH232758   5.617   2.886   1.585  0.7958 -0.3128 -0.4607
10934TIP3    H132759   5.563   2.886   1.664  0.8711 -0.5410 -0.4068
10934TIP3    H232760   5.675   2.811   1.597  1.7452  0.4611 -0.0888
10935TIP3   OH232761   0.840   5.273   2.986 -1.2418  0.0886 -0.1473
10935TIP3    H132762   0.885   5.267   3.070 -1.2733  2.6321  0.1140
10935TIP3    H232763   0.869   5.195   2.938  0.7899 -0.0872  1.2461
10936TIP3   OH232764   7.473   1.805   3.249 -0.2147  0.3435  0.1622
10936TIP3    H132765   7.452   1.787   3.341  0.0240  0.3766  0.2243
10936TIP3    H232766   7.464   1.720   3.206 -1.4631  0.5441 -0.0099
10937TIP3   OH232767   7.737   0.128   6.102  0.1272  0.3842  0.2472
10937TIP3    H132768   7.662   0.161   6.054  0.5248  0.2826 -0.4639
10937TIP3    H232769   7.703   0.105   6.189 -0.2911  1.9651  0.5163
10938TIP3   OH232770   3.965   2.708   4.560  0.2144 -0.1846 -0.1363
10938TIP3    H132771   3.994   2.770   4.627  0.1014 -0.9238  0.6294
10938TIP3    H232772   3.876   2.684   4.587  0.1113 -0.3733 -0.6432
10939TIP3   OH232773   0.349   2.415   3.615 -0.4330  0.5652  0.0839
10939TIP3    H132774   0.282   2.349   3.598  0.1511 -0.7959  2.4824
10939TIP3    H232775   0.425   2.385   3.566 -1.0743  1.2741 -1.4056
10940TIP3   OH232776   4.427   0.082   2.227 -0.3758 -0.4281 -0.0275
10940TIP3    H132777   4.446  -0.011   2.239  0.5473 -0.6114 -2.2887
10940TIP3    H232778   4.488   0.110   2.159 -0.4063  1.9363  0.8363
10941TIP3   OH232779   7.909   6.394   0.554 -0.0181 -0.5549  0.3530
10941TIP3    H132780   7.823   6.433   0.539  0.7817  1.1172 -0.0961
10941TIP3    H232781   7.897   6.301   0.536 -1.8662 -0.4468  0.9076
10942TIP3   OH232782   4.781   3.438   0.205 -0.2174 -0.1365 -0.6068
10942TIP3    H132783   4.734   3.520   0.222 -0.5090 -0.6570  1.3390
10942TIP3    H232784   4.812   3.409   0.291  3.1269 -0.1947 -1.7033
10943TIP3   OH232785   1.924   0.280   3.578 -0.4498 -0.6898  0.3612
10943TIP3    H132786   1.834   0.312   3.577 -0.1501  0.2044  0.6055
10943TIP3    H232787   1.924   0.205   3.519 -1.1330 -0.0833 -0.4411
10944TIP3   OH232788   4.967   0.247   6.197  0.5312  1.0607  0.0984
10944TIP3    H132789   4.902   0.306   6.235 -2.5694 -3.4525  2.6223
10944TIP3    H232790   5.050   0.273   6.238 -0.6111  3.5588  1.0362
10945TIP3   OH232791   4.921   3.747   1.848 -0.5034 -0.1972  0.2688
10945TIP3    H132792   5.002   3.720   1.805 -0.2911 -1.1517  1.2364
10945TIP3    H232793   4.929   3.842   1.857  0.4346 -0.2699  0.2240
10946TIP3   OH232794   3.516   7.107   5.232 -0.1674  0.4179 -0.4357
10946TIP3    H132795   3.488   7.135   5.145 -2.3934 -0.8126 -0.2052
10946TIP3    H232796   3.520   7.188   5.284 -0.9748  0.9351 -1.1524
10947TIP3   OH232797   8.113   7.631   1.944  0.0158  0.0135  0.0476
10947TIP3    H132798   8.077   7.712   1.980  0.5981 -0.0059  0.6883
10947TIP3    H232799   8.092   7.564   2.008  0.0009 -0.2461 -0.2253
10948TIP3   OH232800   0.478   7.287   3.080 -0.3561 -0.5571  0.1731
10948TIP3    H132801   0.420   7.363   3.076  0.3395  0.0084  0.4501
10948TIP3    H232802   0.480   7.263   3.173  2.5051  1.6079  0.8166
10949TIP3   OH232803   1.586   2.464   5.161 -0.2422 -0.0704  0.0902
10949TIP3    H132804   1.672   2.426   5.142 -0.9059 -1.2722 -0.6267
10949TIP3    H232805   1.588   2.481   5.255  1.3492  1.4482 -0.1517
10950TIP3   OH232806   7.451   4.988   0.838 -0.4292 -0.0262  0.3219
10950TIP3    H132807   7.508   5.035   0.900 -0.0017 -2.5296  1.9582
10950TIP3    H232808   7.371   5.041   0.836  0.7082  1.8199  0.5038
10951TIP3   OH232809   6.889   7.002   5.500  0.0846 -0.0103  0.4013
10951TIP3    H132810   6.820   7.019   5.435 -0.6047  1.1203  1.3672
10951TIP3    H232811   6.942   6.932   5.462 -1.8689 -1.2528 -0.1754
10952TIP3   OH232812   5.925   2.319   6.555 -0.3171  0.4573 -0.6760
10952TIP3    H132813   5.994   2.312   6.621 -1.5448  0.9985  0.7080
10952TIP3    H232814   5.949   2.254   6.489  1.0480  0.0261  0.1950
10953TIP3   OH232815   1.161   7.816   5.566 -0.2309  0.0912  0.5567
10953TIP3    H132816   1.175   7.731   5.525  0.7122 -0.1802  1.3757
10953TIP3    H232817   1.152   7.877   5.494  0.9196 -0.4380 -0.0564
10954TIP3   OH232818   6.467   6.689   3.098 -0.3336  0.4392 -0.7212
10954TIP3    H132819   6.544   6.644   3.064  0.5026  1.4171 -0.1636
10954TIP3    H232820   6.393   6.642   3.058  0.5295 -0.5399 -1.2311
10955TIP3   OH232821   4.703   2.981   3.386  0.0617  0.1690  0.5587
10955TIP3    H132822   4.707   3.072   3.415 -1.8485  1.0272 -1.6042
10955TIP3    H232823   4.621   2.948   3.422 -0.1851 -0.0967 -0.2344
10956TIP3   OH232824   0.810   3.912   3.906 -0.3707 -0.2840 -0.1292
10956TIP3    H132825   0.766   3.841   3.952  0.9546 -0.2163  1.3249
10956TIP3    H232826   0.824   3.979   3.972  0.4707  0.3531 -0.9260
10957TIP3   OH232827   4.421   1.887   0.959 -0.0426 -0.2076  0.2269
10957TIP3    H132828   4.381   1.925   1.037 -1.5753 -1.4103  0.0727
10957TIP3    H232829   4.411   1.793   0.970 -1.4598 -0.3959 -1.9777
10958TIP3   OH232830   5.411   5.529   2.140  1.0242 -0.2456 -0.2632
10958TIP3    H132831   5.391   5.526   2.047  0.2478 -1.7944 -0.0767
10958TIP3    H232832   5.343   5.586   2.177  0.4751 -0.7664 -0.4565
10959TIP3   OH232833   0.704   1.121   6.133  0.1447  0.5815  0.3133
10959TIP3    H132834   0.623   1.069   6.138  0.0152  0.3655 -2.4726
10959TIP3    H232835   0.674   1.210   6.114  0.5271  0.6710  0.1261
10960TIP3   OH232836   6.560   0.913   2.761 -0.2025 -0.5879 -0.1474
10960TIP3    H132837   6.466   0.925   2.744 -0.4200 -0.4129  1.1071
10960TIP3    H232838   6.591   0.862   2.686 -1.7530 -2.5155  0.4299
10961TIP3   OH232839   6.414   1.029   3.699 -0.4212  0.1132 -0.2706
10961TIP3    H132840   6.416   1.101   3.762  1.2227 -0.7454  0.7060
10961TIP3    H232841   6.504   1.018   3.670 -0.5408 -1.8341 -0.0590
10962TIP3   OH232842   1.061   2.441   4.007 -0.4722  0.0202 -0.1592
10962TIP3    H132843   1.009   2.368   3.974 -0.3269 -0.6885  1.1101
10962TIP3    H232844   1.084   2.415   4.096 -0.3696  1.5919  0.2948
10963TIP3   OH232845   3.673   2.586   0.175 -0.2843 -0.2135 -1.1168
10963TIP3    H132846   3.683   2.583   0.270 -2.5126  2.4591 -0.6867
10963TIP3    H232847   3.756   2.552   0.141  1.4912  0.8781  1.7952
10964TIP3   OH232848   6.898   0.877   5.269 -0.0292 -0.0189  0.2010
10964TIP3    H132849   6.960   0.917   5.330  2.8892 -2.8550 -0.6998
10964TIP3    H232850   6.842   0.823   5.324 -1.6764  2.2708  0.9693
10965TIP3   OH232851   5.457   3.632   4.304 -0.3393  0.0120 -0.0206
10965TIP3    H132852   5.408   3.708   4.334  0.9782 -0.2248  3.1080
10965TIP3    H232853   5.545   3.665   4.286 -0.2586 -0.4511 -0.5298
10966TIP3   OH232854   2.319   4.682   1.944  0.4220  0.0265  0.7386
10966TIP3    H132855   2.263   4.620   1.991  0.7667 -0.4491  0.5384
10966TIP3    H232856   2.334   4.640   1.859 -0.2428  0.9026  0.1751
10967TIP3   OH232857   7.888   4.665   3.272  0.4468 -0.2394 -0.8769
10967TIP3    H132858   7.807   4.632   3.233  1.3472 -1.4564 -1.8273
10967TIP3    H232859   7.923   4.727   3.208  0.1358  0.5144 -0.3327
10968TIP3   OH232860   2.654   6.554   1.807 -0.2905 -0.0029 -0.2882
10968TIP3    H132861   2.562   6.574   1.791 -0.3025  3.3592  2.6617
10968TIP3    H232862   2.653   6.496   1.884  0.0161  0.4305  0.0512
10969TIP3   OH232863   7.052   5.838   1.915  0.0911 -0.3769 -0.3964
10969TIP3    H132864   7.102   5.793   1.984 -0.7070 -2.1285 -0.8965
10969TIP3    H232865   7.117   5.864   1.851  0.6649 -0.1298  0.2683
10970TIP3   OH232866   0.826   0.521   5.958  0.0075  0.3438 -0.0853
10970TIP3    H132867   0.838   0.438   6.004  0.4534  0.8483  0.7337
10970TIP3    H232868   0.810   0.585   6.027 -0.6930  0.8832 -0.7346
10971TIP3   OH232869   2.421   6.628   4.987 -0.2315 -0.3079 -1.0472
10971TIP3    H132870   2.436   6.672   4.904 -1.3802 -1.8585 -2.1402
10971TIP3    H232871   2.481   6.553   4.985  0.5069  0.2315  0.0270
10972TIP3   OH232872   0.496   1.791   6.562  0.0792 -0.2222 -0.3436
10972TIP3    H132873   0.513   1.784   6.656 -1.4920  0.3569  0.0085
10972TIP3    H232874   0.401   1.793   6.554  0.1415 -1.2248 -2.0337
10973TIP3   OH232875   6.410   1.792   2.993 -0.0550 -0.1916 -0.9216
10973TIP3    H132876   6.470   1.865   2.978 -0.3768  0.6894  1.6294
10973TIP3    H232877   6.466   1.714   2.994  1.2257  0.6357  1.7305
10974TIP3   OH232878   8.141   3.195   1.394 -0.2978 -0.1466 -0.0852
10974TIP3    H132879   8.131   3.285   1.425 -0.1562 -1.0404  2.8956
10974TIP3    H232880   8.061   3.177   1.346 -1.7812  0.6446  1.9515
10975TIP3   OH232881   4.081   5.179   3.223 -0.2895 -0.7830  0.3030
10975TIP3    H132882   4.079   5.256   3.166 -0.2838  0.7525  2.2435
10975TIP3    H232883   4.174   5.165   3.242 -0.3443 -0.7746  0.5801
10976TIP3   OH232884   7.158   1.896   6.371 -0.3609 -0.5952  0.2929
10976TIP3    H132885   7.174   1.988   6.353 -2.4081 -0.3046 -0.2833
10976TIP3    H232886   7.092   1.896   6.440 -1.5318 -1.5720 -0.7745
10977TIP3   OH232887   7.502   5.056   4.341 -0.5121  0.6440  0.3501
10977TIP3    H132888   7.483   5.136   4.389 -0.4934 -0.4771  2.3711
10977TIP3    H232889   7.595   5.064   4.317 -0.4377  1.1196  0.7721
10978TIP3   OH232890   1.290   6.918   5.657 -0.1524  0.2151 -0.4712
10978TIP3    H132891   1.321   6.997   5.702 -0.9062  0.9648 -1.2226
10978TIP3    H232892   1.211   6.892   5.705 -1.1180  1.1778 -1.4644
10979TIP3   OH232893   5.401   0.058   3.405  0.6125 -0.2774  0.8744
10979TIP3    H132894   5.401   0.137   3.351  1.7773 -0.2747  0.8573
10979TIP3    H232895   5.406  -0.014   3.343  1.8860 -0.2769  0.9637
10980TIP3   OH232896   6.153   0.773   4.613 -0.1303  0.2315  0.1986
10980TIP3    H132897   6.077   0.797   4.559 -0.3824 -1.6773 -0.3725
10980TIP3    H232898   6.165   0.847   4.672 -1.3440  1.3426 -0.8864
10981TIP3   OH232899   5.632   2.340   6.772  0.2119  0.2355  1.1527
10981TIP3    H132900   5.712   2.304   6.733  0.5358  2.1533 -0.1247
10981TIP3    H232901   5.569   2.342   6.700 -0.3452  0.5371  1.6407
10982TIP3   OH232902   5.740   2.167   3.547 -0.3854  0.1941  0.3647
10982TIP3    H132903   5.698   2.239   3.595  0.1435 -0.2665  1.5478
10982TIP3    H232904   5.701   2.088   3.585  0.1965 -0.1844  0.1792
10983TIP3   OH232905   5.091   7.746   2.544 -0.1517  0.9286 -0.2534
10983TIP3    H132906   5.134   7.728   2.628  1.7915  2.1748 -0.9257
10983TIP3    H232907   5.004   7.778   2.569 -0.4041 -0.7291  1.1767
10984TIP3   OH232908   4.279   2.544   5.604 -0.2190 -0.1839 -0.3938
10984TIP3    H132909   4.224   2.467   5.622  0.6514 -0.4999  1.1462
10984TIP3    H232910   4.361   2.525   5.650 -0.4235  2.1845  1.0660
10985TIP3   OH232911   5.814   4.219   6.483  0.2615  0.3335 -0.0443
10985TIP3    H132912   5.880   4.281   6.513 -0.7492  0.9059  1.0811
10985TIP3    H232913   5.778   4.258   6.403 -0.6378  1.4417  0.8626
10986TIP3   OH232914   4.429   7.270   5.988 -0.1409 -0.4281 -0.6640
10986TIP3    H132915   4.479   7.288   5.908 -0.4930  0.7173 -0.6384
10986TIP3    H232916   4.380   7.350   6.004 -0.4655 -0.8329  0.4255
10987TIP3   OH232917   2.234   5.677   5.931 -0.4098 -0.3632 -0.0315
10987TIP3    H132918   2.323   5.669   5.965 -0.3740 -1.2798 -0.3251
10987TIP3    H232919   2.184   5.718   6.002  0.4863  1.3068 -0.2979
10988TIP3   OH232920   6.341   1.527   2.767 -0.2206 -0.3134 -0.3586
10988TIP3    H132921   6.327   1.585   2.692 -0.2921  2.2266  1.4710
10988TIP3    H232922   6.434   1.537   2.788 -0.4330 -0.1211  0.5236
10989TIP3   OH232923   7.702   4.014   4.231 -0.2083 -0.2612 -0.1389
10989TIP3    H132924   7.695   4.104   4.199 -0.0924 -0.3552 -0.4304
10989TIP3    H232925   7.796   3.999   4.240 -0.2419  0.3092  1.8126
10990TIP3   OH232926   1.213   3.321   0.055  0.4112 -0.5383  0.1000
10990TIP3    H132927   1.252   3.249   0.007  2.2457 -0.1692  0.9487
10990TIP3    H232928   1.212   3.292   0.146 -0.1995 -0.0549  0.2574
10991TIP3   OH232929   3.777   0.979   0.055  0.0059  0.3048 -0.1102
10991TIP3    H132930   3.866   0.967   0.021  0.0136  0.7960 -0.2658
10991TIP3    H232931   3.774   1.070   0.084  0.3970 -0.3839  2.3847
10992TIP3   OH232932   5.418   1.987   1.714  0.1853 -0.2801 -0.0137
10992TIP3    H132933   5.420   1.910   1.770  0.4015 -1.2173 -1.2518
10992TIP3    H232934   5.330   2.022   1.726  0.3408 -0.2653  1.1470
10993TIP3   OH232935   0.974   3.269   6.079  0.1203  0.1750  0.2623
10993TIP3    H132936   1.062   3.254   6.046 -0.1084  0.0828 -0.3307
10993TIP3    H232937   0.984   3.333   6.149  0.7565 -0.4561  0.7602
10994TIP3   OH232938   5.579   4.166   4.694  0.0582 -0.0410  0.7268
10994TIP3    H132939   5.668   4.130   4.696  0.4439  0.9112  0.8403
10994TIP3    H232940   5.558   4.171   4.601  0.8915  1.5636  0.5896
10995TIP3   OH232941   6.861   7.088   3.194 -0.0636 -0.0110  0.8352
10995TIP3    H132942   6.801   7.143   3.244 -0.0531 -0.1875  1.0435
10995TIP3    H232943   6.861   7.004   3.239  0.2560 -0.0476  0.7752
10996TIP3   OH232944   0.322   3.274   3.548  0.4746  0.0118 -0.2118
10996TIP3    H132945   0.232   3.251   3.525  0.2264  0.6727  0.0646
10996TIP3    H232946   0.314   3.322   3.630  1.3725 -2.6889  1.5943
10997TIP3   OH232947   4.046   4.488   5.304  0.3329 -0.0148  0.5043
10997TIP3    H132948   4.079   4.424   5.367 -1.9193 -1.1071  0.6684
10997TIP3    H232949   4.066   4.450   5.219 -1.6160 -1.3834  0.5936
10998TIP3   OH232950   1.840   4.829   5.700  0.0940  0.6209 -0.4003
10998TIP3    H132951   1.869   4.899   5.641  0.2611 -0.0712 -1.1441
10998TIP3    H232952   1.832   4.872   5.786  4.2069  0.7013  0.1301
10999TIP3   OH232953   0.170   3.207   5.221 -0.1794 -0.1988  0.1734
10999TIP3    H132954   0.199   3.267   5.289  0.1480  1.1409 -1.0842
10999TIP3    H232955   0.074   3.214   5.222 -0.1288  0.7585 -0.2820
11000TIP3   OH232956   1.840   3.406   0.730  0.3721 -0.3951 -0.1135
11000TIP3    H132957   1.775   3.408   0.660 -0.0044 -0.3888  0.2316
11000TIP3    H232958   1.788   3.406   0.811  0.8084  0.1789  0.1725
11001TIP3   OH232959   1.107   3.563   4.760  0.1546 -0.6332 -0.1648
11001TIP3    H132960   1.130   3.472   4.780 -0.3239 -0.9240 -0.8963
11001TIP3    H232961   1.042   3.586   4.827  0.2606 -0.8361  0.0085
11002TIP3   OH232962   5.421   5.448   1.871 -0.2570  0.0488  0.6375
11002TIP3    H132963   5.386   5.429   1.784 -1.6428  1.5682  0.8188
11002TIP3    H232964   5.488   5.515   1.856 -0.8925  0.7304  0.7668
11003TIP3   OH232965   1.303   4.957   6.441 -0.1382  0.7627  0.3409
11003TIP3    H132966   1.280   4.972   6.349 -0.8533  2.5000  0.7568
11003TIP3    H232967   1.341   5.040   6.470  0.7610  0.0003  1.4262
11004TIP3   OH232968   5.992   5.682   3.146  0.3879  0.4480 -0.7515
11004TIP3    H132969   5.991   5.770   3.108 -1.5679  0.3427 -1.0749
11004TIP3    H232970   5.979   5.623   3.072 -2.4720  0.1832 -0.1531
11005TIP3   OH232971   0.954   6.392   4.515 -0.1439  0.5051  0.1015
11005TIP3    H132972   0.969   6.352   4.601 -0.9718  0.8346  0.4136
11005TIP3    H232973   1.039   6.386   4.471 -0.1582 -1.3546  0.2262
11006TIP3   OH232974   8.192   1.908   3.314  0.0011 -0.1432 -0.1029
11006TIP3    H132975   8.225   1.891   3.402 -0.0029 -2.3619 -0.4814
11006TIP3    H232976   8.186   2.003   3.309 -3.3601  0.0979  3.5559
11007TIP3   OH232977   2.395   0.928   6.714  0.2263  0.2137 -0.3641
11007TIP3    H132978   2.393   0.858   6.780  0.7543 -1.5974 -2.1561
11007TIP3    H232979   2.326   0.905   6.652  1.8038  0.0111 -2.1533
11008TIP3   OH232980   4.745   5.281   5.940 -0.4660 -0.0649  0.4845
11008TIP3    H132981   4.826   5.241   5.971  0.4817  1.3063 -0.1129
11008TIP3    H232982   4.738   5.254   5.848 -0.2717  0.4391  0.3185
11009TIP3   OH232983   1.981   2.133   3.690 -0.2650  0.1120 -0.7325
11009TIP3    H132984   2.004   2.080   3.614 -0.6293  1.4365 -1.7889
11009TIP3    H232985   1.998   2.075   3.765  0.9605 -0.8976 -1.7505
11010TIP3   OH232986   2.152   1.351   5.946  0.5333 -0.3358 -0.0324
11010TIP3    H132987   2.205   1.289   5.997 -0.4630 -0.7869  0.4812
11010TIP3    H232988   2.071   1.360   5.997  0.4104  0.9075 -0.4286
11011TIP3   OH232989   6.261   5.562   4.719  0.3177  0.1748  0.4936
11011TIP3    H132990   6.216   5.533   4.798  0.0765 -0.2557  0.2052
11011TIP3    H232991   6.219   5.513   4.648  0.6881  0.3784  0.1266
11012TIP3   OH232992   2.610   7.698   4.215  0.1813  0.0209  0.3156
11012TIP3    H132993   2.579   7.641   4.145 -2.4148  1.5805  0.0681
11012TIP3    H232994   2.580   7.786   4.190  0.0846  0.8052  2.8410
11013TIP3   OH232995   5.259   1.785   5.266 -0.4932 -0.3407 -0.5493
11013TIP3    H132996   5.303   1.702   5.250  0.1034 -0.0644 -0.3514
11013TIP3    H232997   5.326   1.852   5.251 -0.6094  0.0477  0.5185
11014TIP3   OH232998   7.091   0.793   1.370 -0.0182 -0.0859 -0.4076
11014TIP3    H132999   7.085   0.766   1.278 -2.6417 -0.6266 -0.1512
11014TIP3    H233000   7.098   0.711   1.419  0.6138  0.1654 -0.0618
11015TIP3   OH233001   0.200   5.741   4.412 -0.0703 -0.0865 -0.3207
11015TIP3    H133002   0.283   5.706   4.380 -0.7212  0.3406 -2.6256
11015TIP3    H233003   0.135   5.714   4.347 -1.6735  0.1093  1.1056
11016TIP3   OH233004   5.264   0.666   5.215  0.1720  0.2296 -0.3592
11016TIP3    H133005   5.314   0.747   5.213 -0.5684  0.6901 -0.7487
11016TIP3    H233006   5.294   0.621   5.294 -0.0864  1.3211  0.3817
11017TIP3   OH233007   4.782   3.337   2.423 -0.5607 -0.1094  0.0412
11017TIP3    H133008   4.771   3.322   2.329  0.1174  0.8872 -0.2155
11017TIP3    H233009   4.812   3.428   2.429  0.2988 -0.4526  1.1629
11018TIP3   OH233010   7.997   7.193   5.314 -0.2199  0.2514  0.4240
11018TIP3    H133011   8.070   7.142   5.279 -0.3271  0.7788 -0.6242
11018TIP3    H233012   8.014   7.283   5.285 -0.5246  0.6474  1.4364
11019TIP3   OH233013   3.028   3.162   0.695 -0.4396  0.1861 -0.6784
11019TIP3    H133014   2.950   3.214   0.714 -0.8011 -0.3382 -0.7049
11019TIP3    H233015   3.000   3.097   0.631 -0.5974 -1.4611  0.9443
11020TIP3   OH233016   7.627   3.705   1.928 -0.1190 -0.3690 -0.1362
11020TIP3    H133017   7.717   3.735   1.913 -0.9385  2.9804  0.6986
11020TIP3    H233018   7.600   3.668   1.844  1.6133 -0.2694 -0.7938
11021TIP3   OH233019   1.299   0.034   5.690 -0.4429 -0.1087 -0.5004
11021TIP3    H133020   1.346   0.080   5.760 -0.3223 -0.3654 -0.4110
11021TIP3    H233021   1.311   0.089   5.613 -1.0713  0.4798 -0.1906
11022TIP3   OH233022   7.861   1.859   1.162  0.0194 -0.4754  0.5471
11022TIP3    H133023   7.918   1.838   1.236 -0.1642 -0.3287  0.7347
11022TIP3    H233024   7.773   1.840   1.194 -0.0767 -0.2314  0.4337
11023TIP3   OH233025   6.865   5.873   6.659  0.0284 -0.5618 -0.3667
11023TIP3    H133026   6.781   5.867   6.704 -0.1399  2.1132 -0.1533
11023TIP3    H233027   6.845   5.852   6.568 -0.9539  0.2295 -0.3593
11024TIP3   OH233028   1.346   5.732   1.867  0.5523  0.3182  0.7061
11024TIP3    H133029   1.404   5.756   1.795  1.2823 -2.7654  0.1039
11024TIP3    H233030   1.404   5.710   1.939 -0.1384  2.1014  1.8818
11025TIP3   OH233031   1.385   5.170   0.564  0.4521  0.3643  0.2398
11025TIP3    H133032   1.441   5.100   0.532 -0.7135  0.2366 -1.7116
11025TIP3    H233033   1.373   5.228   0.488 -2.1763  0.2684  0.4697
11026TIP3   OH233034   4.049   5.880   1.787  0.3685 -0.5733 -0.1621
11026TIP3    H133035   4.047   5.918   1.699  1.6684 -4.4715 -2.1208
11026TIP3    H233036   3.959   5.852   1.803  0.3387 -0.8382 -0.7745
11027TIP3   OH233037   1.051   5.599   4.136 -0.5447  0.0063  0.4601
11027TIP3    H133038   0.998   5.581   4.213 -1.7109  0.0184 -0.3045
11027TIP3    H233039   1.004   5.556   4.064 -0.6516  1.7365 -0.5767
11028TIP3   OH233040   8.105   6.938   1.171  0.4416 -0.4808 -0.4487
11028TIP3    H133041   8.170   6.959   1.238 -0.8070  0.5861  0.4900
11028TIP3    H233042   8.049   6.873   1.212  0.3833 -0.7239 -0.9101
11029TIP3   OH233043   4.346   1.196   1.729  0.5390  0.3286  0.1177
11029TIP3    H133044   4.323   1.286   1.752  0.3392 -0.0088  1.2880
11029TIP3    H233045   4.426   1.205   1.676  0.1009  1.2292 -0.4273
11030TIP3   OH233046   5.841   2.517   1.250 -0.1449  0.0660 -0.2007
11030TIP3    H133047   5.872   2.484   1.334 -1.3632 -0.3348  0.1235
11030TIP3    H233048   5.771   2.457   1.226 -0.9440  1.1510 -0.6666
11031TIP3   OH233049   3.658   2.200   0.012 -0.0441 -0.1804 -0.1219
11031TIP3    H133050   3.689   2.163   0.095 -0.8584 -0.9570 -0.1465
11031TIP3    H233051   3.563   2.204   0.022 -0.0768  0.6904 -0.6394
11032TIP3   OH233052   5.740   5.114   2.423  0.1708 -0.3084 -0.4949
11032TIP3    H133053   5.719   5.200   2.460  1.0183 -0.4729  0.4189
11032TIP3    H233054   5.662   5.089   2.374 -0.3227  0.7069 -0.2542
11033TIP3   OH233055   4.853   4.693   0.412  0.3341 -0.1394  0.2983
11033TIP3    H133056   4.854   4.708   0.507  0.3050 -3.5893  0.9561
11033TIP3    H233057   4.939   4.656   0.393  0.0993 -0.0858 -0.9107
11034TIP3   OH233058   5.756   2.291   0.317  0.1325 -0.2507  0.3609
11034TIP3    H133059   5.807   2.284   0.236  0.2087  2.9624  0.0029
11034TIP3    H233060   5.819   2.323   0.381 -0.4557 -0.5169  1.0794
11035TIP3   OH233061   0.721   0.875   4.495  0.2506  0.0518  0.1332
11035TIP3    H133062   0.732   0.921   4.578 -3.3516 -1.0224  1.3578
11035TIP3    H233063   0.636   0.832   4.502  1.1899 -2.6579 -2.9258
11036TIP3   OH233064   4.813   7.464   5.627 -0.5954 -0.4110 -0.5636
11036TIP3    H133065   4.796   7.373   5.651 -0.6616 -0.6843 -1.6052
11036TIP3    H233066   4.757   7.479   5.551 -0.8541  0.6170 -0.1821
11037TIP3   OH233067   3.940   1.731   3.973 -0.3903 -0.5671  0.9256
11037TIP3    H133068   4.018   1.750   3.922 -0.2531  1.0001  1.6739
11037TIP3    H233069   3.973   1.706   4.059 -0.7052 -0.0047  1.2127
11038TIP3   OH233070   6.834   2.771   1.493  0.5850 -0.2746  0.3931
11038TIP3    H133071   6.813   2.680   1.473 -0.0535  0.0357 -0.3720
11038TIP3    H233072   6.852   2.811   1.408  0.2085  0.4760  0.6567
11039TIP3   OH233073   3.953   7.559   3.738  0.5480 -0.0357 -0.0616
11039TIP3    H133074   3.887   7.557   3.808  0.1370  2.2162 -0.3106
11039TIP3    H233075   3.996   7.644   3.749  0.5887  0.3028 -2.4432
11040TIP3   OH233076   1.562   3.229   0.751 -0.0698  0.1009  0.4433
11040TIP3    H133077   1.603   3.294   0.807 -1.6487 -0.1089  1.8984
11040TIP3    H233078   1.619   3.152   0.757  0.9167  0.7737  0.0038
11041TIP3   OH233079   8.317   7.634   2.882  0.2987  0.1167  0.1262
11041TIP3    H133080   8.239   7.578   2.881 -0.3474  0.9438  1.4044
11041TIP3    H233081   8.315   7.678   2.797 -0.5162 -0.0369  0.0495
11042TIP3   OH233082   7.220   2.625   4.969 -0.1991  0.0782 -0.2327
11042TIP3    H133083   7.162   2.590   4.902  1.5207 -0.1056 -1.7049
11042TIP3    H233084   7.171   2.699   5.007 -1.1288  0.3494 -1.8685
11043TIP3   OH233085   8.097   7.343   0.762 -0.0398  0.4069 -0.8330
11043TIP3    H133086   8.080   7.354   0.856  1.9131  0.2055 -0.4147
11043TIP3    H233087   8.167   7.405   0.743 -0.5065  0.5503 -2.2170
11044TIP3   OH233088   4.100   2.643   2.621  0.5799  0.2908  0.6694
11044TIP3    H133089   4.112   2.713   2.557 -0.5168 -0.7898 -0.8023
11044TIP3    H233090   4.172   2.654   2.683  1.7788  1.3227 -0.8213
11045TIP3   OH233091   0.677   3.714   4.137  0.1845 -0.3569 -0.0665
11045TIP3    H133092   0.688   3.629   4.094  0.6283 -0.7491  0.7907
11045TIP3    H233093   0.673   3.693   4.230  0.3420  0.5754  0.1603
11046TIP3   OH233094   2.192   2.802   3.672  0.2426 -0.6211  0.8443
11046TIP3    H133095   2.193   2.850   3.589 -1.8757 -1.8567  0.0407
11046TIP3    H233096   2.180   2.870   3.738 -0.5707  0.1755 -0.0826
11047TIP3   OH233097   5.305   5.047   3.363  0.1327 -0.6440  0.1927
11047TIP3    H133098   5.263   5.083   3.442  0.5894  2.5582 -0.8799
11047TIP3    H233099   5.393   5.085   3.363  0.9941 -2.5216 -0.6745
11048TIP3   OH233100   6.544   6.793   6.659  0.0749  0.4513 -0.3219
11048TIP3    H133101   6.530   6.708   6.618  0.7440  0.3204 -0.2931
11048TIP3    H233102   6.523   6.779   6.751  0.6070  0.2070 -0.2383
11049TIP3   OH233103   5.575   5.863   4.604  0.6226  0.1413 -0.3506
11049TIP3    H133104   5.607   5.800   4.539  0.2054 -1.1536  0.6568
11049TIP3    H233105   5.481   5.848   4.607  0.7397 -0.4074  1.1463
11050TIP3   OH233106   1.177   5.022   5.535 -0.2446  0.0020  0.1710
11050TIP3    H133107   1.119   5.098   5.536 -0.8394 -0.4148 -1.1408
11050TIP3    H233108   1.132   4.956   5.587  0.4547  0.6429  1.6478
11051TIP3   OH233109   6.524   0.184   2.406  0.3512 -0.1007  0.5483
11051TIP3    H133110   6.493   0.153   2.491 -0.2613 -1.7130 -0.2256
11051TIP3    H233111   6.528   0.106   2.352  0.6192  0.9148 -0.9596
11052TIP3   OH233112   1.076   4.487   2.943 -0.0714  0.2810 -0.6448
11052TIP3    H133113   1.136   4.555   2.913  0.5734 -0.6073 -1.4423
11052TIP3    H233114   1.040   4.520   3.025  1.0825  1.0752 -0.4433
11053TIP3   OH233115   4.752   2.685   4.045 -0.0560 -0.0391  0.3749
11053TIP3    H133116   4.839   2.720   4.025 -0.4830  1.0917  0.4301
11053TIP3    H233117   4.693   2.759   4.031 -0.8282 -0.3352  1.8986
11054TIP3   OH233118   3.670   4.777   0.442  0.2308 -0.1535  0.7784
11054TIP3    H133119   3.677   4.828   0.523 -0.7016  3.0567 -0.9653
11054TIP3    H233120   3.579   4.747   0.441 -0.0827  0.7746  0.4383
11055TIP3   OH233121   3.517   2.791   0.303  0.1984 -0.1939  0.2588
11055TIP3    H133122   3.497   2.755   0.389 -0.4950  1.2266  0.7209
11055TIP3    H233123   3.563   2.720   0.257  0.5316 -0.9874  1.7656
11056TIP3   OH233124   0.272   0.688   0.520  0.3935 -0.2165  0.1446
11056TIP3    H133125   0.360   0.651   0.529  0.6573  0.6325  1.2920
11056TIP3    H233126   0.251   0.676   0.427  0.6657 -2.7229  0.3435
11057TIP3   OH233127   7.507   2.150   1.787  0.3958 -0.0847 -0.3713
11057TIP3    H133128   7.477   2.139   1.878 -1.9414 -1.0021 -1.1698
11057TIP3    H233129   7.556   2.233   1.789  0.9667 -0.3959  1.8294
11058TIP3   OH233130   7.461   6.621   4.199 -0.3808  0.8688  0.4281
11058TIP3    H133131   7.498   6.537   4.225 -0.3691  0.0594 -1.9455
11058TIP3    H233132   7.368   6.604   4.187 -0.7680  1.7589  1.9746
11059TIP3   OH233133   0.935   3.490   6.333  0.5748  0.1278 -0.0359
11059TIP3    H133134   0.865   3.539   6.288  0.0852 -0.1106  0.4652
11059TIP3    H233135   1.016   3.534   6.305  0.1585  1.0705  0.2045
11060TIP3   OH233136   5.604   0.954   6.107 -0.1964 -0.5629  0.4182
11060TIP3    H133137   5.584   0.943   6.014 -0.0313 -0.7021  0.3984
11060TIP3    H233138   5.520   0.969   6.149 -0.1259  1.3469 -0.0127
11061TIP3   OH233139   0.776   1.275   0.734  0.2722  0.1410  0.0362
11061TIP3    H133140   0.826   1.313   0.662 -0.7774 -0.0447 -0.8144
11061TIP3    H233141   0.809   1.321   0.812  3.9376 -2.0638  0.0336
11062TIP3   OH233142   7.535   5.199   0.577  0.3413  0.4167 -0.6798
11062TIP3    H133143   7.546   5.289   0.546  0.3390 -0.0556 -2.1022
11062TIP3    H233144   7.622   5.172   0.604  0.3216  0.8727 -0.1382
11063TIP3   OH233145   4.880   6.043   6.631  0.5832 -0.5595 -0.0887
11063TIP3    H133146   4.801   6.010   6.674 -0.6787 -2.5122 -3.5043
11063TIP3    H233147   4.946   5.976   6.647  0.3258 -0.9343 -0.5750
11064TIP3   OH233148   5.164   4.826   3.339  0.7730 -0.0144 -0.0085
11064TIP3    H133149   5.177   4.916   3.309  0.1089  0.0147 -0.2388
11064TIP3    H233150   5.109   4.786   3.272 -1.1377  0.1950  1.3218
11065TIP3   OH233151   6.702   3.676   0.733 -0.0285  0.4886 -0.2399
11065TIP3    H133152   6.765   3.747   0.749  0.4919 -0.0236  0.0490
11065TIP3    H233153   6.651   3.705   0.657  2.4889 -0.2993 -2.3993
11066TIP3   OH233154   1.823   2.281   1.131  0.3817 -0.4957 -0.1017
11066TIP3    H133155   1.800   2.240   1.048  0.8179  0.2266 -0.5857
11066TIP3    H233156   1.741   2.319   1.163  0.5819  0.8882 -1.1534
11067TIP3   OH233157   5.744   3.157   3.074 -0.6632  0.2943 -0.1502
11067TIP3    H133158   5.800   3.207   3.015 -1.6254  0.5326 -0.8903
11067TIP3    H233159   5.700   3.094   3.017 -0.5928 -0.3787  0.5359
11068TIP3   OH233160   7.083   5.168   5.428 -0.2121  0.3497  0.4403
11068TIP3    H133161   7.109   5.102   5.492  0.1947  0.6168  0.5563
11068TIP3    H233162   7.156   5.173   5.367 -0.8367 -0.3047 -0.3782
11069TIP3   OH233163   4.572   3.754   4.594  0.1437 -0.1522 -0.1289
11069TIP3    H133164   4.524   3.800   4.663  1.8448  0.6291  0.5947
11069TIP3    H233165   4.633   3.820   4.560  1.8814 -1.5191  0.1641
11070TIP3   OH233166   0.118   4.914   0.515  0.6000  0.0046  0.3453
11070TIP3    H133167   0.118   4.848   0.584  0.0129 -0.7391 -0.3408
11070TIP3    H233168   0.031   4.953   0.520  0.7714  0.3791  0.4190
11071TIP3   OH233169   1.192   2.381   2.816  0.2541 -0.2831  0.3661
11071TIP3    H133170   1.272   2.329   2.801 -0.2110 -0.5149 -1.6325
11071TIP3    H233171   1.203   2.458   2.761 -0.8631 -0.2840  0.1241
11072TIP3   OH233172   7.108   0.982   6.083 -0.3966 -0.0275 -0.3312
11072TIP3    H133173   7.184   1.005   6.136 -0.3344  1.3071 -0.9509
11072TIP3    H233174   7.134   0.902   6.037 -0.3958 -1.1381  1.4786
11073TIP3   OH233175   2.242   0.612   3.423  0.0527 -0.3767  0.1325
11073TIP3    H133176   2.320   0.558   3.434  0.0530 -0.2800  0.5892
11073TIP3    H233177   2.186   0.590   3.497  0.6649  1.2946  1.1202
11074TIP3   OH233178   5.956   2.574   5.948 -0.3171  0.3218  0.0913
11074TIP3    H133179   5.902   2.500   5.976 -1.2845  0.4538 -1.2959
11074TIP3    H233180   5.892   2.643   5.929  0.3752  0.6637 -1.0659
11075TIP3   OH233181   6.504   7.731   2.653  0.2105 -0.5888  0.1599
11075TIP3    H133182   6.427   7.711   2.706 -1.1913  0.1001 -1.5108
11075TIP3    H233183   6.469   7.755   2.567  2.2449  0.6326 -0.4153
11076TIP3   OH233184   2.029   4.198   3.270  0.4551 -0.2762 -0.2111
11076TIP3    H133185   2.000   4.132   3.332  0.4260 -0.6693 -0.6340
11076TIP3    H233186   1.954   4.258   3.261 -0.2175 -1.2154 -1.2056
11077TIP3   OH233187   5.152   4.836   1.941 -0.0767 -0.0662 -0.2287
11077TIP3    H133188   5.202   4.785   1.877  1.0260  0.6229  0.0571
11077TIP3    H233189   5.100   4.896   1.888 -1.1613 -1.2467 -0.5560
11078TIP3   OH233190   4.202   4.707   2.190 -0.4831  0.3108 -0.6799
11078TIP3    H133191   4.135   4.663   2.243 -0.5283 -1.4538 -2.1309
11078TIP3    H233192   4.273   4.723   2.251 -0.7119 -1.2742  0.0522
11079TIP3   OH233193   1.747   3.797   4.114 -0.4590 -0.4749  0.3848
11079TIP3    H133194   1.754   3.850   4.194 -1.6164 -0.5753  0.5652
11079TIP3    H233195   1.753   3.860   4.042 -0.4649 -0.2582  0.5721
11080TIP3   OH233196   3.511   3.482   2.841  0.4225 -0.0873 -0.2433
11080TIP3    H133197   3.466   3.399   2.830 -0.2968  0.5018 -2.1345
11080TIP3    H233198   3.454   3.534   2.899  0.3792 -0.5407  0.1226
11081TIP3   OH233199   6.832   6.546   1.694  0.0052 -0.7315 -0.0628
11081TIP3    H133200   6.900   6.613   1.694 -1.0698  0.4999 -2.1188
11081TIP3    H233201   6.794   6.549   1.782 -0.4041  1.8686 -0.2449
11082TIP3   OH233202   6.291   1.590   3.576 -0.0081  0.0091  0.1582
11082TIP3    H133203   6.275   1.608   3.484  0.0499  0.7198  0.2859
11082TIP3    H233204   6.281   1.495   3.584 -0.9099  0.0541 -0.3944
11083TIP3   OH233205   4.187   5.446   6.677  0.5467 -0.1513  0.0872
11083TIP3    H133206   4.169   5.413   6.590 -0.1275  1.3153 -0.3603
11083TIP3    H233207   4.111   5.421   6.729  0.1209  0.5010 -0.2054
11084TIP3   OH233208   0.858   2.170   0.457  0.2623  0.2104  0.2508
11084TIP3    H133209   0.838   2.258   0.425  2.2026  0.5526 -0.1329
11084TIP3    H233210   0.831   2.171   0.549  1.4605  1.6622  0.6130
11085TIP3   OH233211   6.748   6.982   2.376  0.1553 -0.1821  0.2972
11085TIP3    H133212   6.804   7.039   2.324  1.2536 -0.8501  0.6993
11085TIP3    H233213   6.701   7.042   2.435 -0.7296  0.5253 -1.0876
11086TIP3   OH233214   0.689   2.662   1.925 -0.0855 -0.3599  0.1784
11086TIP3    H133215   0.672   2.747   1.966  1.7029  0.0424  0.1785
11086TIP3    H233216   0.689   2.680   1.831 -0.2373 -0.4808  0.1541
11087TIP3   OH233217   1.612   0.989   1.513  0.4891 -0.0854 -0.0942
11087TIP3    H133218   1.581   0.941   1.590 -0.1795  1.9340  0.9733
11087TIP3    H233219   1.640   0.921   1.452  0.1927 -1.7839  1.5703
11088TIP3   OH233220   1.753   4.425   3.933  0.1143  0.1569  0.2348
11088TIP3    H133221   1.806   4.382   3.866  0.4357 -0.5683  0.9390
11088TIP3    H233222   1.811   4.491   3.971 -0.7122  2.0517 -1.5862
11089TIP3   OH233223   8.282   0.357   3.548 -0.2821 -0.5352  0.2245
11089TIP3    H133224   8.230   0.306   3.486 -2.1235  0.4241  0.9382
11089TIP3    H233225   8.366   0.369   3.503 -1.1485 -0.8890 -1.5819
11090TIP3   OH233226   5.051   1.011   1.193 -0.0943 -0.6259 -0.0756
11090TIP3    H133227   5.118   1.052   1.139 -0.7184 -0.8683 -1.0778
11090TIP3    H233228   5.083   0.922   1.207  0.0559 -0.5729 -0.0790
11091TIP3   OH233229   6.979   3.066   3.425  0.1009  0.0454 -0.1188
11091TIP3    H133230   6.888   3.095   3.434 -0.1863 -0.1629 -1.9832
11091TIP3    H233231   7.027   3.118   3.490 -1.0799  1.4574 -0.3176
11092TIP3   OH233232   2.626   2.790   5.616  0.2157 -0.1124  0.1932
11092TIP3    H133233   2.669   2.730   5.555  1.3359  0.3543  0.4975
11092TIP3    H233234   2.569   2.844   5.562 -0.3757 -1.0652 -0.1562
11093TIP3   OH233235   1.832   5.611   6.367 -0.0923  0.1043  0.0652
11093TIP3    H133236   1.824   5.540   6.430 -0.6073 -0.5730 -0.7342
11093TIP3    H233237   1.838   5.691   6.420 -1.0923 -0.3911  0.9486
11094TIP3   OH233238   5.223   4.977   4.844 -0.4731 -0.3747  0.2939
11094TIP3    H133239   5.148   4.918   4.853 -1.2461  0.5302 -0.1951
11094TIP3    H233240   5.290   4.923   4.801 -0.4880 -1.4664  1.5391
11095TIP3   OH233241   1.242   6.210   6.261 -0.0103  0.7813 -0.2038
11095TIP3    H133242   1.318   6.263   6.238 -0.5241  1.7316  0.2537
11095TIP3    H233243   1.211   6.246   6.344 -0.6470  0.0600 -0.1132
11096TIP3   OH233244   7.630   0.041   3.436  0.1331  0.1813  0.9465
11096TIP3    H133245   7.675   0.043   3.521  0.8581  0.2657  0.5660
11096TIP3    H233246   7.699   0.059   3.372 -0.4580  0.3839  0.3572
11097TIP3   OH233247   2.529   2.031   1.988  0.3317  0.2768  0.1348
11097TIP3    H133248   2.596   2.094   1.962 -0.2150  1.4888  1.4924
11097TIP3    H233249   2.494   2.066   2.070  0.2694 -2.0277  1.1670
11098TIP3   OH233250   7.501   4.686   5.047 -0.3138 -0.5879 -0.4483
11098TIP3    H133251   7.473   4.638   5.125  0.2611 -0.4578 -0.1609
11098TIP3    H233252   7.476   4.630   4.973  0.1488 -1.2265 -0.1241
11099TIP3   OH233253   1.597   0.710   0.199 -0.5584  0.7727  0.0770
11099TIP3    H133254   1.656   0.784   0.187  0.3547  0.0021 -0.2521
11099TIP3    H233255   1.645   0.649   0.254 -1.8930  1.0563  1.6350
11100TIP3   OH233256   3.672   0.947   2.125  0.0040 -0.9425  0.9118
11100TIP3    H133257   3.707   0.868   2.166 -0.5633 -0.9957  1.2895
11100TIP3    H233258   3.591   0.965   2.172  0.2360 -0.0136  0.9684
11101TIP3   OH233259   1.558   0.967   5.065  0.4292  0.4976 -0.9537
11101TIP3    H133260   1.510   0.927   5.137 -1.2552  0.7254 -1.9073
11101TIP3    H233261   1.604   0.894   5.024 -0.6274 -0.0574 -1.1733
11102TIP3   OH233262   8.151   1.406   5.601  0.1718 -0.5146  0.4152
11102TIP3    H133263   8.184   1.344   5.536 -1.2489 -0.7744 -0.0792
11102TIP3    H233264   8.187   1.491   5.573  2.0670 -1.0449  1.0545
11103TIP3   OH233265   4.743   1.376   3.398 -0.4725  0.0549  0.1213
11103TIP3    H133266   4.753   1.420   3.482  1.7558  1.2737 -0.7083
11103TIP3    H233267   4.728   1.284   3.420 -0.3779  0.4316  1.8403
11104TIP3   OH233268   3.406   7.363   5.748 -0.3424 -0.2958  0.0321
11104TIP3    H133269   3.463   7.297   5.787  0.7600 -0.1029 -1.1730
11104TIP3    H233270   3.460   7.442   5.743 -1.0817  0.2132 -0.1034
11105TIP3   OH233271   0.124   1.225   4.344  0.1977 -0.4771 -0.0265
11105TIP3    H133272   0.070   1.263   4.275  0.3216 -0.8555 -0.3285
11105TIP3    H233273   0.188   1.171   4.299 -0.0012 -1.0839  0.4074
11106TIP3   OH233274   7.420   2.107   6.345 -0.7596 -0.1184 -0.7940
11106TIP3    H133275   7.436   2.198   6.320 -1.1529 -0.1741 -1.2550
11106TIP3    H233276   7.506   2.074   6.371 -0.6147  0.3839 -0.6142
11107TIP3   OH233277   5.878   2.520   4.877 -0.6925  0.0321 -0.4516
11107TIP3    H133278   5.878   2.570   4.795  1.3389  0.5901 -0.1721
11107TIP3    H233279   5.933   2.571   4.936 -0.9495 -1.0868  0.8095
11108TIP3   OH233280   7.673   2.299   4.539  0.2710  0.8742  0.4885
11108TIP3    H133281   7.648   2.259   4.456  0.8761  0.9781  0.2469
11108TIP3    H233282   7.644   2.236   4.606  0.4408  0.4382  0.1552
11109TIP3   OH233283   5.226   2.975   0.121  0.4073 -0.5939 -0.2385
11109TIP3    H133284   5.314   3.001   0.145  0.9976 -1.2623 -1.5808
11109TIP3    H233285   5.187   2.943   0.203  0.5054  1.9952  0.9017
11110TIP3   OH233286   5.972   3.845   2.881 -0.0483 -0.2209 -0.0831
11110TIP3    H133287   6.054   3.818   2.838 -0.6917 -3.2481  0.3757
11110TIP3    H233288   5.967   3.791   2.960 -1.2205  1.8569  1.3536
11111TIP3   OH233289   2.408   1.786   3.682  0.3769 -0.5095 -0.3394
11111TIP3    H133290   2.337   1.820   3.628 -0.5676 -0.7458  0.7064
11111TIP3    H233291   2.440   1.862   3.730  0.5771 -0.4744 -0.5269
11112TIP3   OH233292   1.758   2.502   2.588  0.0920 -0.0826 -0.3093
11112TIP3    H133293   1.732   2.411   2.577  0.2326 -0.0465 -0.9851
11112TIP3    H233294   1.851   2.498   2.608  0.3448 -0.0467 -1.4091
11113TIP3   OH233295   3.496   4.814   5.749 -0.4110 -0.0672  0.1187
11113TIP3    H133296   3.543   4.822   5.832 -2.0457  2.3778  0.9362
11113TIP3    H233297   3.552   4.859   5.685 -0.7630  1.2832  0.7198
11114TIP3   OH233298   5.529   0.152   2.145 -0.4935  0.5419  0.1061
11114TIP3    H133299   5.533   0.093   2.070 -3.4824 -2.0358  1.7117
11114TIP3    H233300   5.586   0.112   2.210 -1.6151  0.0170  0.7970
11115TIP3   OH233301   4.751   6.036   5.901 -0.3928  0.3894 -0.1212
11115TIP3    H133302   4.821   5.984   5.939  1.7448  2.0125 -1.5541
11115TIP3    H233303   4.748   6.116   5.954  0.8055  1.5106 -1.6395
11116TIP3   OH233304   5.188   7.332   2.134 -0.4747  0.1741  0.2466
11116TIP3    H133305   5.095   7.316   2.127 -0.1728 -1.3405 -0.5603
11116TIP3    H233306   5.216   7.283   2.211 -0.5371  1.6668  1.2622
11117TIP3   OH233307   2.263   6.005   0.424 -0.3781  0.6374 -0.0237
11117TIP3    H133308   2.253   5.949   0.347 -0.4797  0.3249  0.2148
11117TIP3    H233309   2.355   5.996   0.447 -0.4239  0.4539  0.0964
11118TIP3   OH233310   1.993   1.294   4.398  0.0687 -0.3648 -0.1847
11118TIP3    H133311   1.909   1.272   4.360 -1.1479  1.4992  1.2602
11118TIP3    H233312   2.036   1.209   4.412 -1.2603 -1.3094 -1.5407
11119TIP3   OH233313   7.596   2.298   2.020 -0.1354  0.0795 -0.2880
11119TIP3    H133314   7.537   2.298   2.096  1.7287 -0.3632  1.2482
11119TIP3    H233315   7.573   2.377   1.972 -1.6369  0.1766  0.5167
11120TIP3   OH233316   1.950   2.953   5.651 -0.0957  0.2455  0.4397
11120TIP3    H133317   1.930   3.047   5.643 -0.5988  0.1278  0.3205
11120TIP3    H233318   1.873   2.909   5.615  0.7095 -0.2093 -0.7804
11121TIP3   OH233319   5.660   1.784   5.852 -0.2890  0.5018 -0.1246
11121TIP3    H133320   5.705   1.831   5.782  1.9831 -1.7707 -0.3264
11121TIP3    H233321   5.581   1.749   5.811 -0.1740  1.1390 -0.9128
11122TIP3   OH233322   1.971   5.348   5.484  0.0711  0.4346  0.3031
11122TIP3    H133323   2.026   5.279   5.448  1.3240  1.0429  0.9652
11122TIP3    H233324   2.019   5.429   5.464 -0.6574  0.9965  0.7756
11123TIP3   OH233325   5.992   2.220   1.825  0.1429  0.5721 -0.6445
11123TIP3    H133326   6.046   2.280   1.774  0.0619 -0.8609 -2.5462
11123TIP3    H233327   5.932   2.182   1.761 -1.1011 -0.0952  0.8660
11124TIP3   OH233328   6.490   1.457   6.346  0.1870  0.3073  0.1647
11124TIP3    H133329   6.539   1.461   6.264  0.8995 -0.5465  0.5386
11124TIP3    H233330   6.552   1.487   6.412 -0.6451  1.8100  0.3005
11125TIP3   OH233331   8.026   0.880   6.679 -0.3304  0.0982  0.3474
11125TIP3    H133332   8.045   0.788   6.665  2.3917  0.6930 -0.5209
11125TIP3    H233333   8.010   0.888   6.773 -0.1836 -1.2013  0.4987
11126TIP3   OH233334   3.015   2.967   2.523  0.0398 -0.2711 -0.0164
11126TIP3    H133335   3.102   2.972   2.482 -0.0652 -0.6065 -0.2799
11126TIP3    H233336   2.964   2.910   2.466  0.1495 -1.4540  1.0139
11127TIP3   OH233337   8.197   5.310   6.291  0.6468  0.1317  0.6486
11127TIP3    H133338   8.185   5.401   6.318 -0.9184  0.3581 -0.6075
11127TIP3    H233339   8.178   5.311   6.197  0.8114 -1.4557  0.5791
11128TIP3   OH233340   0.788   3.946   5.990 -0.2125  0.1859 -0.0832
11128TIP3    H133341   0.749   3.994   5.917 -1.3422 -1.2101 -0.4452
11128TIP3    H233342   0.734   3.969   6.066 -1.0423 -0.8100 -0.3462
11129TIP3   OH233343   3.843   6.317   5.324  0.4070  0.5956 -0.6108
11129TIP3    H133344   3.840   6.285   5.414  1.8849  3.0143  0.4021
11129TIP3    H233345   3.759   6.362   5.311 -0.5702 -1.2752 -1.1446
11130TIP3   OH233346   1.389  -0.025   1.316  0.7529  0.2320 -0.3212
11130TIP3    H133347   1.388   0.067   1.342  0.6624  0.2666 -0.4473
11130TIP3    H233348   1.429  -0.026   1.229  0.7394  0.1551 -0.3270
11131TIP3   OH233349   5.512   3.074   1.419 -0.6638  0.4645  0.4912
11131TIP3    H133350   5.477   3.002   1.367  0.1804 -0.1079  0.6881
11131TIP3    H233351   5.552   3.031   1.495  0.9069  1.0243  0.0153
11132TIP3   OH233352   6.561   5.256   0.916  0.6338  0.0138 -0.8775
11132TIP3    H133353   6.548   5.171   0.959 -0.7013  0.2033 -0.8684
11132TIP3    H233354   6.608   5.309   0.980  0.8690 -0.4933 -0.6236
11133TIP3   OH233355   2.289   4.385   0.774 -0.2075 -0.0180 -0.8478
11133TIP3    H133356   2.267   4.298   0.740  0.2161 -0.3553 -0.2828
11133TIP3    H233357   2.339   4.426   0.703  1.3701 -1.0163 -0.3865
11134TIP3   OH233358   0.741   2.051   2.151  0.4298 -0.2536 -0.2440
11134TIP3    H133359   0.760   2.084   2.238  0.0031 -0.9866  0.1356
11134TIP3    H233360   0.776   1.962   2.150  1.6404  0.1989 -1.2828
11135TIP3   OH233361   1.407   5.241   6.380  0.4540 -0.2220 -0.5777
11135TIP3    H133362   1.493   5.255   6.420  0.4881  2.5860 -1.4606
11135TIP3    H233363   1.417   5.267   6.289 -1.0346 -1.1439 -1.0599
11136TIP3   OH233364   3.368   2.491   2.048 -0.4329 -0.4195  0.2312
11136TIP3    H133365   3.274   2.494   2.027 -0.1149  1.7016 -1.1746
11136TIP3    H233366   3.411   2.528   1.972  1.3634  1.2459  1.9478
11137TIP3   OH233367   1.202   6.212   1.304  0.1598 -0.2711 -0.3947
11137TIP3    H133368   1.246   6.162   1.373 -0.5573  0.0815  0.3300
11137TIP3    H233369   1.177   6.146   1.240 -0.5215 -0.8196  0.4157
11138TIP3   OH233370   0.022   0.430   2.475 -0.1890 -0.1954 -0.1924
11138TIP3    H133371   0.043   0.404   2.385  1.8201  0.3180  0.0773
11138TIP3    H233372   0.084   0.500   2.495 -0.9222  0.0350  1.4334
11139TIP3   OH233373   7.520   3.267   1.973 -0.1412  0.2624  0.3226
11139TIP3    H133374   7.431   3.298   1.954 -1.0603 -1.4502  1.6125
11139TIP3    H233375   7.509   3.178   2.005  2.2705 -1.0159 -1.9631
11140TIP3   OH233376   1.683   3.918   4.367  0.7847 -0.1204 -0.1901
11140TIP3    H133377   1.635   3.986   4.414  1.0376 -0.4699  0.5757
11140TIP3    H233378   1.621   3.844   4.362  0.7256 -0.0521 -0.4899
11141TIP3   OH233379   3.332   5.379   0.123  0.4443  0.2709 -0.4937
11141TIP3    H133380   3.278   5.329   0.061  0.5026 -0.0279 -0.3035
11141TIP3    H233381   3.418   5.383   0.082  1.1964 -2.1130  0.6978
11142TIP3   OH233382   6.161   0.969   2.166  0.3849 -0.1694  0.0585
11142TIP3    H133383   6.153   1.006   2.254 -0.8755  0.4046 -0.2849
11142TIP3    H233384   6.234   1.016   2.127  0.5399  0.0200  0.5634
11143TIP3   OH233385   1.930   6.895   0.481 -0.3363  0.2585  0.7685
11143TIP3    H133386   1.963   6.959   0.544  0.4304  0.5137  0.1313
11143TIP3    H233387   2.002   6.885   0.419 -0.7793 -0.5862  0.3862
11144TIP3   OH233388   1.441   6.596   2.100  0.4601 -0.0234  0.3473
11144TIP3    H133389   1.442   6.622   2.192  0.8747 -1.4030  0.7465
11144TIP3    H233390   1.348   6.588   2.079  0.2864  2.0856  0.0901
11145TIP3   OH233391   3.958   5.621   6.220  0.0025 -0.5557 -0.0817
11145TIP3    H133392   3.894   5.558   6.251 -0.3271 -0.2142 -0.0582
11145TIP3    H233393   3.960   5.611   6.125 -1.2958  0.5541 -0.2522
11146TIP3   OH233394   6.883   0.164   4.039 -0.2360  0.0538 -0.0443
11146TIP3    H133395   6.832   0.230   3.992 -2.6977 -0.1302  2.1551
11146TIP3    H233396   6.933   0.212   4.104  1.4631  0.0960 -1.3180
11147TIP3   OH233397   2.349   6.954   3.007 -0.2266  0.3572  0.0176
11147TIP3    H133398   2.267   6.917   2.973  0.5334  0.1562 -1.7077
11147TIP3    H233399   2.371   7.023   2.945  1.7205 -0.6516 -0.4780
11148TIP3   OH233400   5.172   6.961   3.056 -0.2746 -0.3738 -0.0983
11148TIP3    H133401   5.093   6.991   3.011 -0.3634  0.2683  0.4641
11148TIP3    H233402   5.221   6.914   2.990 -1.3447 -1.1951 -0.3440
11149TIP3   OH233403   3.549   1.086   3.801  0.9557  0.2234 -0.3501
11149TIP3    H133404   3.528   1.064   3.710  0.3091  0.3757 -0.2412
11149TIP3    H233405   3.637   1.123   3.797  0.6300  0.9718 -1.0377
11150TIP3   OH233406   2.631   7.101   5.340 -0.2892 -0.0397  0.3356
11150TIP3    H133407   2.547   7.064   5.316  0.7318 -0.5778 -2.9442
11150TIP3    H233408   2.638   7.182   5.289  0.4920  0.9652  1.9195
11151TIP3   OH233409   5.767   4.837   3.651  0.6262 -1.0741  0.2241
11151TIP3    H133410   5.752   4.773   3.581 -2.3070 -0.9222  0.5939
11151TIP3    H233411   5.712   4.912   3.627  0.9725 -0.2947  1.7701
11152TIP3   OH233412   4.509   3.238   5.549 -0.5192 -0.9745 -0.0166
11152TIP3    H133413   4.437   3.268   5.605 -0.1186  1.8498 -0.9051
11152TIP3    H233414   4.575   3.206   5.611 -0.9614  0.0176  1.0045
11153TIP3   OH233415   1.324   2.036   4.242 -0.4831  0.0137  1.5721
11153TIP3    H133416   1.341   1.954   4.287  0.7062  0.3032  1.6666
11153TIP3    H233417   1.358   2.104   4.300 -0.6116  0.5147  1.0780
11154TIP3   OH233418   6.021   7.558   0.577  0.4326  0.1311  0.0125
11154TIP3    H133419   5.985   7.490   0.633 -1.8493  0.7460 -0.6347
11154TIP3    H233420   6.054   7.511   0.500 -0.0518 -0.3373  0.0936
11155TIP3   OH233421   5.757   6.592   6.300  0.6666 -0.0871 -0.1059
11155TIP3    H133422   5.725   6.631   6.218 -0.5546 -1.8655 -0.5425
11155TIP3    H233423   5.678   6.566   6.346  1.3785  0.1516  1.2932
11156TIP3   OH233424   7.734   1.304   2.493  0.2231 -0.3329  0.2605
11156TIP3    H133425   7.645   1.270   2.489  0.5101 -1.0978 -0.0440
11156TIP3    H233426   7.779   1.244   2.553  0.7066 -0.4137 -0.1714
11157TIP3   OH233427   1.848   6.898   2.443 -0.3750 -0.2038  0.1551
11157TIP3    H133428   1.869   6.829   2.381  0.1821  0.3421 -0.2797
11157TIP3    H233429   1.795   6.855   2.511 -1.2241 -0.7524 -0.8271
11158TIP3   OH233430   3.962   4.113   2.400 -0.7470  0.1051 -0.7995
11158TIP3    H133431   3.928   4.191   2.442 -2.0200  0.0079 -1.6150
11158TIP3    H233432   4.046   4.140   2.362  0.2348  0.3037  1.3465
11159TIP3   OH233433   7.146   0.338   6.165  0.0301 -0.3130 -0.6923
11159TIP3    H133434   7.228   0.387   6.173  1.2302 -2.2401 -0.1837
11159TIP3    H233435   7.148   0.301   6.077  0.6076 -1.7650 -0.1040
11160TIP3   OH233436   8.187   4.378   0.769 -0.1479  0.1304 -0.4658
11160TIP3    H133437   8.168   4.435   0.695 -0.0580 -1.5957 -1.9048
11160TIP3    H233438   8.118   4.311   0.766  0.0152 -0.1294  0.8604
11161TIP3   OH233439   8.169   7.401   2.404 -0.3509 -0.4024 -0.2656
11161TIP3    H133440   8.124   7.433   2.482 -0.5738 -0.4616 -0.3674
11161TIP3    H233441   8.250   7.362   2.437 -0.0134  0.3763 -0.1551
11162TIP3   OH233442   0.312   1.508   5.915  0.5188  0.1574  0.0644
11162TIP3    H133443   0.338   1.527   5.825  1.2957  1.0205  0.4559
11162TIP3    H233444   0.346   1.581   5.967  0.5908 -0.6058  1.1448
11163TIP3   OH233445   1.448   2.833   3.257 -0.7019 -0.1264 -0.2075
11163TIP3    H133446   1.364   2.878   3.243 -0.7204 -0.7281 -2.2002
11163TIP3    H233447   1.473   2.859   3.346 -1.8975  1.8650 -0.3728
11164TIP3   OH233448   2.445   4.279   1.893 -0.1661 -0.4453  0.4892
11164TIP3    H133449   2.386   4.208   1.916  2.1115 -2.3474  0.8646
11164TIP3    H233450   2.395   4.359   1.909 -2.5243 -1.9338  0.8950
11165TIP3   OH233451   7.389   5.742   4.266 -0.2664 -0.0531 -0.2064
11165TIP3    H133452   7.329   5.758   4.339 -1.0546 -3.5527  0.1046
11165TIP3    H233453   7.352   5.791   4.193 -1.6709  0.4652  0.8185
11166TIP3   OH233454   2.071   4.558   6.395  0.0187 -0.0758  0.3896
11166TIP3    H133455   2.138   4.594   6.452 -0.1586 -0.2047  0.6841
11166TIP3    H233456   1.988   4.587   6.434 -0.1406 -1.0185  0.7988
11167TIP3   OH233457   5.927   1.375   2.778  0.1252 -0.0302 -0.1687
11167TIP3    H133458   5.934   1.470   2.791  1.2701 -0.2294  0.8023
11167TIP3    H233459   5.858   1.348   2.838  0.0007  0.1485 -0.2308
11168TIP3   OH233460   7.127   0.226   6.531 -0.1727  0.4725 -0.4158
11168TIP3    H133461   7.158   0.317   6.538 -0.7092  0.5440  1.5245
11168TIP3    H233462   7.091   0.206   6.617  1.6456 -2.2339 -0.1651
11169TIP3   OH233463   5.806   0.071   2.967 -0.1696 -0.1792 -0.5004
11169TIP3    H133464   5.806  -0.003   3.028  0.5430  0.2004 -0.0258
11169TIP3    H233465   5.823   0.148   3.023  1.8303  0.0347 -1.3188
11170TIP3   OH233466   4.947   5.790   2.730 -0.2694 -0.3334  0.4061
11170TIP3    H133467   4.961   5.806   2.636 -0.8345  1.1499  0.5482
11170TIP3    H233468   4.861   5.749   2.735 -0.2797 -0.3263  0.2875
11171TIP3   OH233469   3.988   6.287   2.781 -0.7439  0.1347  0.5191
11171TIP3    H133470   3.901   6.314   2.750  0.7283  2.5316 -2.0541
11171TIP3    H233471   4.013   6.215   2.724 -0.7138  0.0235  0.6728
11172TIP3   OH233472   8.221   3.326   6.025 -0.2174  0.6340 -0.1738
11172TIP3    H133473   8.259   3.357   5.943 -2.1461  0.7066 -1.0873
11172TIP3    H233474   8.138   3.372   6.032 -0.8761 -0.6408  0.9524
11173TIP3   OH233475   6.250   6.466   5.161 -0.3483  0.1666  0.0510
11173TIP3    H133476   6.234   6.449   5.254 -1.5213 -1.1386 -0.3616
11173TIP3    H233477   6.176   6.521   5.134 -0.6806 -0.4753 -0.3740
11174TIP3   OH233478   4.323   1.371   3.262 -0.2738 -0.2328  0.1960
11174TIP3    H133479   4.243   1.357   3.313 -0.7706 -1.3352 -0.8654
11174TIP3    H233480   4.308   1.325   3.180  1.4519 -0.4389 -0.0345
11175TIP3   OH233481   1.424   6.308   3.867  0.5638 -0.0349 -0.0043
11175TIP3    H133482   1.507   6.313   3.820  1.4523  0.0344  1.4866
11175TIP3    H233483   1.428   6.382   3.929  1.3591 -2.3933  3.0195
11176TIP3   OH233484   4.927   4.205   2.412  0.6312  0.3791  0.3469
11176TIP3    H133485   4.935   4.117   2.374 -0.1857  0.9098 -1.1751
11176TIP3    H233486   4.914   4.262   2.336  2.5029  2.0249  1.1830
11177TIP3   OH233487   2.602   2.024   1.226  0.2626 -0.1858  0.6484
11177TIP3    H133488   2.683   2.008   1.275  1.2448  1.0247 -0.5169
11177TIP3    H233489   2.563   1.937   1.216  1.1947 -0.7312  1.6103
11178TIP3   OH233490   3.086   3.254   0.221  0.3010  0.5164  0.5161
11178TIP3    H133491   2.996   3.272   0.195  0.2571 -0.6254 -0.2204
11178TIP3    H233492   3.138   3.275   0.143  0.1375 -3.2660 -0.8088
11179TIP3   OH233493   6.166   7.647   4.085 -0.6923  0.3258 -0.0860
11179TIP3    H133494   6.155   7.610   3.998 -4.0336  0.8348 -0.0350
11179TIP3    H233495   6.151   7.741   4.073 -2.5353  0.2439  1.1288
11180TIP3   OH233496   0.185   4.949   5.629 -0.9853  0.4100 -0.3749
11180TIP3    H133497   0.210   4.905   5.710 -1.6563 -0.3879 -0.5915
11180TIP3    H233498   0.194   5.043   5.649  0.1911  0.1938  0.1681
11181TIP3   OH233499   4.055   2.329   1.893 -0.1234  0.0685  0.1366
11181TIP3    H133500   4.074   2.372   1.976  2.4585 -0.3684 -0.1652
11181TIP3    H233501   4.042   2.237   1.916  0.7392 -0.0777  0.0418
11182TIP3   OH233502   0.911   4.347   3.986  0.5111 -0.2855 -0.0948
11182TIP3    H133503   0.929   4.370   4.078  0.8135 -2.4182  0.4307
11182TIP3    H233504   0.998   4.338   3.947  0.4072  1.9792 -1.0420
11183TIP3   OH233505   5.118   4.390   5.487 -0.4490  0.8705  0.1645
11183TIP3    H133506   5.060   4.347   5.424  1.4661  0.5924 -1.5165
11183TIP3    H233507   5.163   4.317   5.531 -1.3295  1.0809  1.4818
11184TIP3   OH233508   0.742   1.832   4.780  0.3282  0.2217 -0.3035
11184TIP3    H133509   0.797   1.805   4.706 -0.4141 -0.6450 -0.5564
11184TIP3    H233510   0.653   1.830   4.745 -0.1990 -1.6584  0.9853
11185TIP3   OH233511   3.785   5.285   2.716  0.5535  0.3132  0.1072
11185TIP3    H133512   3.795   5.376   2.743  0.6606 -0.0678  1.3906
11185TIP3    H233513   3.691   5.272   2.708  0.4864  0.2860  0.8552
11186TIP3   OH233514   1.877   6.406   3.727  0.4336  0.0721  0.0211
11186TIP3    H133515   1.836   6.339   3.672  1.4534 -0.2875 -0.3119
11186TIP3    H233516   1.969   6.382   3.729  0.3408 -0.3560  2.4722
11187TIP3   OH233517   4.932   7.437   5.260 -0.3078 -0.5496 -0.1855
11187TIP3    H133518   4.991   7.381   5.210  2.3238  1.9150 -0.1209
11187TIP3    H233519   4.882   7.483   5.193  1.2513  0.7238 -0.5532
11188TIP3   OH233520   0.181   0.224   6.021 -1.0674 -0.5906 -0.0004
11188TIP3    H133521   0.205   0.171   6.097 -0.4340 -0.0648  0.1686
11188TIP3    H233522   0.166   0.160   5.951 -0.2193 -0.9998  0.1777
11189TIP3   OH233523   0.500   5.572   5.962 -0.8105  0.0369 -0.3075
11189TIP3    H133524   0.497   5.620   5.879  0.7884  1.2111  0.2825
11189TIP3    H233525   0.417   5.524   5.964 -1.2570  0.6360 -2.1863
11190TIP3   OH233526   2.175   7.700   4.594 -0.4300 -1.4033  0.0021
11190TIP3    H133527   2.111   7.726   4.660 -1.7283  1.0406 -2.0126
11190TIP3    H233528   2.243   7.766   4.599 -2.1395  0.8869 -3.0251
11191TIP3   OH233529   7.237   3.948   0.964 -0.2322  0.0329 -0.2429
11191TIP3    H133530   7.329   3.966   0.943  0.4395 -1.5534  1.0501
11191TIP3    H233531   7.221   3.996   1.045 -0.2599 -0.3691 -0.0060
11192TIP3   OH233532   3.478   3.859   2.509 -0.0387 -0.1682 -0.2538
11192TIP3    H133533   3.472   3.879   2.415 -1.0207  0.6938 -0.0233
11192TIP3    H233534   3.444   3.936   2.552 -0.5210 -0.9448  0.7912
11193TIP3   OH233535   5.344   4.348   5.140  0.7210 -0.0646  0.4629
11193TIP3    H133536   5.250   4.359   5.126  1.1917  1.8313 -2.0046
11193TIP3    H233537   5.357   4.253   5.142 -1.1831 -0.3628  0.1995
11194TIP3   OH233538   3.654   2.711   4.666 -0.0642  0.0760 -0.1644
11194TIP3    H133539   3.673   2.796   4.627  1.3178 -0.1081  0.0554
11194TIP3    H233540   3.706   2.709   4.746  0.2183 -1.1278 -0.3626
11195TIP3   OH233541   0.160   2.603   0.308  0.5728  0.1591  0.4128
11195TIP3    H133542   0.101   2.650   0.366 -0.3231 -2.6570  1.9872
11195TIP3    H233543   0.112   2.595   0.225  0.4404  1.2844  0.3743
11196TIP3   OH233544   1.381   2.055   6.740 -0.4332 -0.3433  0.2384
11196TIP3    H133545   1.447   2.096   6.795 -1.3304  0.6524  0.5908
11196TIP3    H233546   1.420   1.972   6.714  0.3953 -0.4042  1.5930
11197TIP3   OH233547   2.958   0.881   2.127 -0.1349 -0.3908 -0.0926
11197TIP3    H133548   2.995   0.899   2.041 -0.2828  1.1978  0.1506
11197TIP3    H233549   2.867   0.907   2.120  0.1112  0.8186  0.8348
11198TIP3   OH233550   0.171   3.791   1.082  0.0829  0.3186  0.3603
11198TIP3    H133551   0.254   3.795   1.129  0.2535  0.5521  0.0480
11198TIP3    H233552   0.192   3.824   0.994  0.0979 -1.4751 -0.3574
11199TIP3   OH233553   3.279   7.307   4.704 -0.0723  0.2706 -0.0713
11199TIP3    H133554   3.363   7.278   4.668 -0.5139 -1.4977  0.2023
11199TIP3    H233555   3.297   7.392   4.743  1.4738  0.1453 -0.4497
11200TIP3   OH233556   7.257   3.270   2.399 -0.2616  0.4008 -0.0518
11200TIP3    H133557   7.210   3.324   2.336 -0.4142  1.2581  0.7784
11200TIP3    H233558   7.349   3.298   2.392  0.3144 -1.6724 -2.0892
11201TIP3   OH233559   6.330   7.032   6.381  0.3085  0.2049  0.2760
11201TIP3    H133560   6.345   6.938   6.393  1.9201  0.5503  1.3128
11201TIP3    H233561   6.307   7.064   6.468  1.4289  1.0221  0.2990
11202TIP3   OH233562   8.006   4.161   5.729 -0.1254 -0.7772  0.0090
11202TIP3    H133563   8.064   4.194   5.661 -0.9026 -0.9802 -0.7662
11202TIP3    H233564   7.942   4.231   5.743  0.8272 -0.1648  1.5257
11203TIP3   OH233565   7.210   3.587   5.479  0.0206  0.1987  0.4434
11203TIP3    H133566   7.292   3.637   5.475 -0.6123  1.2021 -0.5409
11203TIP3    H233567   7.233   3.500   5.447  0.2725  1.0890 -1.9581
11204TIP3   OH233568   3.238   7.614   5.228  0.0939  0.4668  0.0235
11204TIP3    H133569   3.164   7.667   5.197  0.1558  1.4190  1.4070
11204TIP3    H233570   3.252   7.643   5.318  1.4563 -0.4856  0.1474
11205TIP3   OH233571   3.959   1.905   2.808  0.0433  0.3630 -0.0131
11205TIP3    H133572   3.915   1.821   2.793  0.2159  0.6941 -3.0144
11205TIP3    H233573   3.901   1.970   2.767  0.4132  1.5942  1.3541
11206TIP3   OH233574   1.579   2.549   1.458 -0.3696 -0.1005  0.2588
11206TIP3    H133575   1.529   2.601   1.521 -1.5993 -0.9820  0.0484
11206TIP3    H233576   1.513   2.514   1.398  0.5829 -0.7794 -0.4206
11207TIP3   OH233577   3.136   2.903   0.830  0.1380 -0.3469  0.2227
11207TIP3    H133578   3.116   2.996   0.833  1.9359  0.0586  0.9700
11207TIP3    H233579   3.208   2.892   0.893  1.3269 -1.8727 -1.3260
11208TIP3   OH233580   4.170   2.550   0.960 -0.0818  0.4138  0.1135
11208TIP3    H133581   4.114   2.558   0.883 -1.1363 -1.1034  0.6727
11208TIP3    H233582   4.196   2.458   0.961 -1.5817 -0.0892  2.5022
11209TIP3   OH233583   6.154   2.743   5.993 -0.1289  0.2835  0.5300
11209TIP3    H133584   6.194   2.781   5.915  1.6164 -2.3607  0.0243
11209TIP3    H233585   6.084   2.687   5.959 -0.2760  0.2073  0.9523
11210TIP3   OH233586   7.479   0.492   4.284 -0.1793 -0.5438 -0.0157
11210TIP3    H133587   7.453   0.470   4.374 -0.6590 -1.2831 -0.3297
11210TIP3    H233588   7.397   0.490   4.234 -0.0294  0.5842 -0.3391
11211TIP3   OH233589   4.664   5.568   5.531 -0.3845 -0.5848 -0.2647
11211TIP3    H133590   4.710   5.594   5.611 -1.2237 -1.9318  0.6967
11211TIP3    H233591   4.728   5.519   5.481 -0.3594 -1.2767  0.4287
11212TIP3   OH233592   0.732   0.142   2.030  0.0764 -0.4028 -0.0685
11212TIP3    H133593   0.708   0.075   2.094  2.0317 -1.6237 -0.5427
11212TIP3    H233594   0.827   0.150   2.038  0.0550  1.2732 -1.0493
11213TIP3   OH233595   5.014   1.937   1.013 -0.4621  0.4148 -0.5514
11213TIP3    H133596   5.055   1.900   0.936 -0.0513  0.1997 -0.2332
11213TIP3    H233597   5.063   1.901   1.087 -1.3364  0.0011 -0.1518
11214TIP3   OH233598   2.685   0.792   1.197 -0.3761  0.0970 -0.0810
11214TIP3    H133599   2.776   0.817   1.178  0.1933 -0.2528  1.9747
11214TIP3    H233600   2.681   0.699   1.176  0.6905 -0.6752  2.6464
11215TIP3   OH233601   3.750   6.108   4.367 -0.7778  0.2313 -0.2295
11215TIP3    H133602   3.733   6.118   4.461 -0.5765 -2.0104  0.1057
11215TIP3    H233603   3.769   6.196   4.336 -1.4258  1.1009  1.7201
11216TIP3   OH233604   4.600   6.790   0.425 -0.7348  0.2044  0.1444
11216TIP3    H133605   4.631   6.876   0.397  1.1284 -0.8649 -1.3595
11216TIP3    H233606   4.542   6.762   0.354 -0.3934 -0.2507  0.0412
11217TIP3   OH233607   1.616   2.300   0.235  0.5138 -0.2023 -0.6019
11217TIP3    H133608   1.596   2.343   0.152 -0.4513 -0.4022 -0.4826
11217TIP3    H233609   1.678   2.231   0.212 -1.6436 -1.9273 -1.6087
11218TIP3   OH233610   4.467   6.080   2.442  0.9963 -0.0254  0.2681
11218TIP3    H133611   4.458   6.031   2.360  1.5962 -1.4106  0.9942
11218TIP3    H233612   4.528   6.150   2.422  1.1383 -0.3525 -0.4802
11219TIP3   OH233613   0.681   0.403   3.094  0.2823  0.0294 -0.5161
11219TIP3    H133614   0.609   0.406   3.158  1.4449  0.4147  0.8208
11219TIP3    H233615   0.690   0.494   3.065 -1.1890 -0.3506 -2.4012
11220TIP3   OH233616   4.173   5.798   1.088  0.1000  0.1668  0.5348
11220TIP3    H133617   4.254   5.774   1.132  0.3284 -0.8931 -0.4057
11220TIP3    H233618   4.194   5.878   1.040  1.1607 -1.0109 -1.0984
11221TIP3   OH233619   3.110   3.838   5.836  0.0623  0.2117  0.1988
11221TIP3    H133620   3.111   3.747   5.806  0.4577  1.1757 -3.1688
11221TIP3    H233621   3.040   3.841   5.901 -1.4952 -2.0620 -1.2254
11222TIP3   OH233622   7.599   3.091   2.228 -0.2013  0.5724  0.3117
11222TIP3    H133623   7.691   3.093   2.201 -0.3740  1.2260 -0.2799
11222TIP3    H233624   7.563   3.013   2.186 -0.5106  1.6770 -1.5983
11223TIP3   OH233625   6.560   3.821   3.318  0.7296 -0.3081  0.3136
11223TIP3    H133626   6.630   3.759   3.297  1.7919  1.5933 -2.3148
11223TIP3    H233627   6.600   3.907   3.306 -1.2662  0.8843  1.7199
11224TIP3   OH233628   6.349   3.798   4.519  0.1039  0.3323 -0.5262
11224TIP3    H133629   6.351   3.707   4.489  0.8983 -0.5902  2.0396
11224TIP3    H233630   6.425   3.838   4.477 -0.6144  0.0346 -2.1884
11225TIP3   OH233631   3.086   2.382   2.806  0.1218  0.2925 -0.0517
11225TIP3    H133632   3.162   2.339   2.767 -1.3501 -0.3740 -2.4170
11225TIP3    H233633   3.080   2.466   2.760  0.1792  0.9343  1.0847
11226TIP3   OH233634   6.636   5.746   4.496  0.3336 -0.0520 -0.3484
11226TIP3    H133635   6.656   5.793   4.414 -0.2016  0.8660  0.0349
11226TIP3    H233636   6.593   5.812   4.551 -0.3245 -0.9725  0.2518
11227TIP3   OH233637   1.948   3.728   1.004 -0.5105  0.1625  0.0111
11227TIP3    H133638   1.938   3.640   1.039 -0.7408  0.2574  0.1834
11227TIP3    H233639   2.016   3.768   1.058  1.3860 -0.7053 -1.5792
11228TIP3   OH233640   0.444   3.786   2.580  0.0738  0.5628 -0.5140
11228TIP3    H133641   0.426   3.723   2.511  2.0630  0.3182 -0.8786
11228TIP3    H233642   0.452   3.870   2.535  0.1880  0.6029 -0.4222
11229TIP3   OH233643   1.233   1.670   5.203 -0.4578  0.5203  0.1396
11229TIP3    H133644   1.143   1.646   5.227 -0.1625 -0.8429 -0.0391
11229TIP3    H233645   1.227   1.698   5.112 -0.5385 -0.7824 -0.2873
11230TIP3   OH233646   7.964   5.725   1.548 -0.2453  0.0773 -0.5138
11230TIP3    H133647   7.872   5.712   1.571 -0.2600  1.2990  0.1496
11230TIP3    H233648   7.999   5.780   1.617  0.9929 -0.3460 -0.7802
11231TIP3   OH233649   3.437   5.931   2.981 -0.5820  0.2888 -0.4176
11231TIP3    H133650   3.373   5.930   2.909 -1.4952  1.6769  0.3409
11231TIP3    H233651   3.410   5.858   3.037 -1.4454  0.7889 -0.1652
11232TIP3   OH233652   6.454   3.455   1.695  0.1091  0.1630 -0.3067
11232TIP3    H133653   6.446   3.392   1.623  2.0574 -0.0678 -0.3884
11232TIP3    H233654   6.386   3.428   1.757 -1.5259  0.2918 -1.9620
11233TIP3   OH233655   2.835   5.564   4.144  0.2415 -0.1895 -0.2691
11233TIP3    H133656   2.912   5.512   4.168 -0.8727 -1.4752  0.6987
11233TIP3    H233657   2.833   5.636   4.206  1.1005  0.3457 -0.8308
11234TIP3   OH233658   6.014   4.082   1.078 -0.0004  0.0149  0.6440
11234TIP3    H133659   6.065   4.157   1.048  0.3958 -0.4828  0.0542
11234TIP3    H233660   5.941   4.120   1.127 -1.3677  0.9522 -1.9435
11235TIP3   OH233661   3.320   1.439   3.216  0.1952 -0.2105  0.8308
11235TIP3    H133662   3.274   1.428   3.133  1.5674  0.4865 -0.0628
11235TIP3    H233663   3.310   1.355   3.261 -3.4964  0.4157  1.5883
11236TIP3   OH233664   4.309   7.758   6.029  0.0777 -0.2799  0.3769
11236TIP3    H133665   4.331   7.673   5.991  1.5785 -0.2784  1.1254
11236TIP3    H233666   4.216   7.770   6.012  0.3771 -0.9201 -1.9667
11237TIP3   OH233667   7.887   5.354   4.372 -0.0832  0.0622 -0.4962
11237TIP3    H133668   7.963   5.367   4.429 -1.0204  0.2347  0.7616
11237TIP3    H233669   7.875   5.259   4.371 -0.9772  0.1157  0.9182
11238TIP3   OH233670   1.546   5.270   3.477 -0.4882  0.1598 -0.2036
11238TIP3    H133671   1.611   5.325   3.521 -0.3259 -0.3934  0.2452
11238TIP3    H233672   1.508   5.328   3.410 -1.8164  1.5119  1.6097
11239TIP3   OH233673   7.192   2.090   0.468  0.4433 -0.2399 -0.9561
11239TIP3    H133674   7.098   2.099   0.485  0.6620 -0.0122  0.2300
11239TIP3    H233675   7.233   2.153   0.527  1.4315 -1.5396 -0.1970
11240TIP3   OH233676   5.026   3.613   6.528 -0.3022 -0.0400  0.7569
11240TIP3    H133677   5.120   3.605   6.516 -0.6109 -0.5148 -1.9534
11240TIP3    H233678   5.016   3.648   6.617  2.4696  1.8666  0.4380
11241TIP3   OH233679   4.402   1.326   3.928 -0.2449  0.4892 -0.2490
11241TIP3    H133680   4.461   1.399   3.945  0.4811 -0.4597  1.5573
11241TIP3    H233681   4.315   1.360   3.950  0.0365  0.9420  0.1856
11242TIP3   OH233682   0.033   0.968   4.104  0.3518  0.5268 -0.5446
11242TIP3    H133683   0.025   0.941   4.013  2.6103 -0.7092 -0.4481
11242TIP3    H233684   0.106   1.029   4.105  2.5478 -1.8877  0.7704
11243TIP3   OH233685   5.113   1.174   3.481 -0.0589 -0.4794  0.6934
11243TIP3    H133686   5.113   1.102   3.544 -1.2409  0.0193  1.2834
11243TIP3    H233687   5.098   1.132   3.396 -3.5432 -0.7792  1.3006
11244TIP3   OH233688   2.445   5.929   0.736  0.2132  0.9830 -0.1651
11244TIP3    H133689   2.469   5.889   0.652  1.6131  2.1520 -0.3547
11244TIP3    H233690   2.378   5.993   0.714  1.6134  2.3309 -0.6559
11245TIP3   OH233691   7.321   1.865   3.017 -0.5285 -0.7433 -0.1496
11245TIP3    H133692   7.406   1.826   2.997 -0.1461  0.9626 -2.3419
11245TIP3    H233693   7.321   1.878   3.112  1.0908 -1.9873  0.0509
11246TIP3   OH233694   6.288   2.999   6.141 -0.1487 -0.1337 -0.6926
11246TIP3    H133695   6.219   2.935   6.161 -0.0661  0.0094  0.0761
11246TIP3    H233696   6.310   3.037   6.226  1.4290 -0.7249 -0.8191
11247TIP3   OH233697   5.404   1.599   1.327  0.5378 -0.1944  0.2561
11247TIP3    H133698   5.347   1.636   1.259  0.1172 -2.0305 -0.4440
11247TIP3    H233699   5.346   1.582   1.401  0.8679  1.1623  0.8537
11248TIP3   OH233700   8.109   6.372   6.359 -1.1324  0.1988  0.2277
11248TIP3    H133701   8.147   6.321   6.431 -0.2408  0.6871  0.1208
11248TIP3    H233702   8.033   6.322   6.331 -0.9479 -0.4695  0.8988
11249TIP3   OH233703   4.454   5.365   2.741  0.7317 -0.8988 -0.3157
11249TIP3    H133704   4.380   5.372   2.680  0.6566 -0.7287 -0.2066
11249TIP3    H233705   4.532   5.375   2.686  0.6462  0.0795 -0.2726
11250TIP3   OH233706   2.174   1.633   0.913  0.0862 -0.1906 -0.2290
11250TIP3    H133707   2.111   1.700   0.940 -0.0323 -0.6118  0.5539
11250TIP3    H233708   2.204   1.593   0.994 -0.0050 -1.2373 -0.6904
11251TIP3   OH233709   1.765   3.648   2.893  0.0147  0.2441 -0.2769
11251TIP3    H133710   1.821   3.584   2.939 -1.2614 -1.1697 -0.5978
11251TIP3    H233711   1.824   3.720   2.872  0.8042  0.7853  3.1163
11252TIP3   OH233712   4.524   6.471   4.690  0.4093 -0.7501  0.0879
11252TIP3    H133713   4.558   6.388   4.657 -1.2014 -1.4904  0.2121
11252TIP3    H233714   4.574   6.538   4.642  1.1636 -1.7762 -0.6029
11253TIP3   OH233715   6.982   1.079   3.534  0.5619 -0.2133  0.2737
11253TIP3    H133716   6.938   1.095   3.618 -1.1375 -0.0219 -0.6045
11253TIP3    H233717   6.995   1.166   3.497  0.8968 -0.3227  0.1343
11254TIP3   OH233718   0.759   5.999   6.634  0.7345 -0.0624  0.1481
11254TIP3    H133719   0.753   6.074   6.693  2.3509  0.1327  0.1013
11254TIP3    H233720   0.675   5.953   6.645  0.3915  0.8152  1.4313
11255TIP3   OH233721   6.704   0.531   4.874  0.0621 -0.0216 -0.1035
11255TIP3    H133722   6.795   0.506   4.863  0.3863  1.5601 -1.5521
11255TIP3    H233723   6.655   0.470   4.818  0.2318 -0.8099  0.6010
11256TIP3   OH233724   2.920   1.584   5.554  0.0069 -0.6327  0.4032
11256TIP3    H133725   2.990   1.623   5.502 -1.0591  2.7149  1.2269
11256TIP3    H233726   2.839   1.616   5.514 -0.9121 -0.7744  2.0384
11257TIP3   OH233727   0.703   4.071   5.762  0.1671 -0.3954 -0.0498
11257TIP3    H133728   0.750   4.045   5.683  0.5744  2.9588 -1.0335
11257TIP3    H233729   0.611   4.072   5.736  0.1838 -0.4305 -0.1106
11258TIP3   OH233730   3.365   2.736   3.132  0.4701 -0.0345  0.1925
11258TIP3    H133731   3.410   2.723   3.049  0.5517 -0.2761  0.2719
11258TIP3    H233732   3.332   2.649   3.154  0.1906  0.0904  0.2636
11259TIP3   OH233733   1.154   1.959   1.292 -0.7189 -0.3831  0.1234
11259TIP3    H133734   1.249   1.956   1.281 -0.9026 -0.1681 -1.9551
11259TIP3    H233735   1.138   2.040   1.340  0.1046  0.2274 -0.5905
11260TIP3   OH233736   7.186   5.499   5.599 -0.6882  0.3351  0.9431
11260TIP3    H133737   7.203   5.427   5.660  1.4358 -0.1279 -0.0997
11260TIP3    H233738   7.111   5.469   5.547 -0.2092 -0.8625  0.9190
11261TIP3   OH233739   1.731   5.865   1.040 -0.5137 -0.5288  0.3129
11261TIP3    H133740   1.753   5.811   0.964 -0.6014  0.0684 -0.1415
11261TIP3    H233741   1.748   5.808   1.115 -0.2170 -1.0527 -0.1420
11262TIP3   OH233742   3.736   6.189   0.009  0.0273 -0.8448  0.0665
11262TIP3    H133743   3.814   6.234  -0.021  0.3397 -1.4146  0.0181
11262TIP3    H233744   3.761   6.097   0.014  0.0292 -0.7659  2.2064
11263TIP3   OH233745   1.550   1.523   6.650 -0.4693 -0.1376  0.5565
11263TIP3    H133746   1.485   1.509   6.720 -2.3000  1.2959 -0.7618
11263TIP3    H233747   1.615   1.581   6.689 -0.7412 -0.4222  1.4658
11264TIP3   OH233748   4.151   6.364   1.100 -0.2731 -0.9241 -0.0205
11264TIP3    H133749   4.141   6.459   1.091  0.1511 -0.9111 -0.4132
11264TIP3    H233750   4.245   6.349   1.094 -0.3223 -1.3524  0.2386
11265TIP3   OH233751   7.167   1.631   2.983  0.2522 -0.6269 -0.6441
11265TIP3    H133752   7.196   1.714   3.021  1.4601 -1.2068 -0.2773
11265TIP3    H233753   7.247   1.589   2.952 -0.4648 -1.1755 -1.8337
11266TIP3   OH233754   3.558   0.364   1.573 -0.2311  0.9502  0.3398
11266TIP3    H133755   3.613   0.292   1.604 -0.3992  0.2657 -0.8757
11266TIP3    H233756   3.619   0.436   1.558  0.6832 -0.2622 -2.4743
11267TIP3   OH233757   7.364   0.405   2.552 -0.3803  0.0290 -0.3324
11267TIP3    H133758   7.358   0.482   2.495  0.6523  1.6063  1.5534
11267TIP3    H233759   7.294   0.417   2.616 -0.5220 -0.8747 -0.3075
11268TIP3   OH233760   4.687   3.118   6.214 -0.0344 -0.2498  0.5716
11268TIP3    H133761   4.620   3.183   6.192  0.8612 -0.1977 -2.5174
11268TIP3    H233762   4.638   3.040   6.239 -1.1905  0.5200  0.7692
11269TIP3   OH233763   1.259   1.335   0.019 -0.3399 -0.3251  0.0104
11269TIP3    H133764   1.220   1.275   0.083  0.7972 -0.1651  0.9000
11269TIP3    H233765   1.354   1.322   0.030 -0.1117  0.5723 -0.8206
11270TIP3   OH233766   3.176   4.130   5.401  0.2664  0.1246  0.0791
11270TIP3    H133767   3.180   4.103   5.493 -1.7649  0.3267  0.2697
11270TIP3    H233768   3.105   4.079   5.364  1.5949 -0.5649 -1.6398
11271TIP3   OH233769   4.203   3.189   4.974  0.2664 -0.1237  0.6302
11271TIP3    H133770   4.232   3.280   4.962  1.9796 -0.8707 -1.6825
11271TIP3    H233771   4.128   3.181   4.915 -0.0965 -0.1175  1.0937
11272TIP3   OH233772   2.926   3.069   1.874 -0.0681  0.8282  0.3456
11272TIP3    H133773   2.861   3.059   1.806  0.5660  1.0202 -0.2985
11272TIP3    H233774   2.935   3.164   1.886  0.1811  0.8071  0.3429
11273TIP3   OH233775   8.106   3.538   2.343 -0.0529  0.0859 -0.8011
11273TIP3    H133776   8.014   3.552   2.365 -0.3403  0.2101 -1.9911
11273TIP3    H233777   8.105   3.463   2.284  0.3940  1.0999 -2.1683
11274TIP3   OH233778   1.039   5.344   4.570 -0.1264  0.1528  0.1565
11274TIP3    H133779   1.112   5.289   4.543  0.0951  0.2570  0.5377
11274TIP3    H233780   1.034   5.334   4.665 -0.4182  0.3775  0.1687
11275TIP3   OH233781   0.824   5.118   6.513 -0.5582 -0.0877  0.1392
11275TIP3    H133782   0.901   5.061   6.516 -1.1126 -1.1970 -2.9208
11275TIP3    H233783   0.763   5.073   6.454 -2.9869  1.4563  1.2948
11276TIP3   OH233784   3.698   4.489   0.869 -0.4698 -0.3076  0.7596
11276TIP3    H133785   3.733   4.448   0.949  0.7975 -1.8161 -0.4949
11276TIP3    H233786   3.707   4.583   0.884  0.9963 -0.5926  1.8793
11277TIP3   OH233787   6.861   6.406   0.852 -0.1464  0.0802 -0.3560
11277TIP3    H133788   6.872   6.492   0.893  0.5070  0.5331 -1.4293
11277TIP3    H233789   6.878   6.343   0.922  1.6749  0.8148 -0.0980
11278TIP3   OH233790   5.454   4.847   1.199  0.0120  0.1673 -0.3951
11278TIP3    H133791   5.426   4.800   1.278 -0.4856 -1.9865 -1.7636
11278TIP3    H233792   5.545   4.820   1.187 -0.2087 -0.3080 -1.0709
11279TIP3   OH233793   6.850   2.027   5.656 -0.1214  0.3113 -0.3350
11279TIP3    H133794   6.910   1.965   5.614  0.5164  0.8768 -0.2907
11279TIP3    H233795   6.813   2.077   5.584 -0.2541  0.2090 -0.3373
11280TIP3   OH233796   3.807   4.220   6.362  0.3198 -0.0261 -0.2403
11280TIP3    H133797   3.864   4.295   6.378  1.5897 -1.2466  1.2011
11280TIP3    H233798   3.755   4.212   6.442  0.4445 -0.8987 -0.2427
11281TIP3   OH233799   1.521   4.687   5.393 -0.1620 -0.5539  0.8939
11281TIP3    H133800   1.593   4.682   5.456 -0.4659 -2.4862  1.1322
11281TIP3    H233801   1.527   4.606   5.343 -0.8325  0.2806 -0.6077
11282TIP3   OH233802   2.614   3.844   4.846 -0.1500  0.1990  0.4020
11282TIP3    H133803   2.534   3.851   4.897  0.7078  2.5292  1.5647
11282TIP3    H233804   2.681   3.888   4.900  1.1601  1.3083 -1.9725
11283TIP3   OH233805   6.854   7.151   4.091  0.1926  0.2572  0.2084
11283TIP3    H133806   6.808   7.069   4.075 -2.3089  1.6461 -0.1221
11283TIP3    H233807   6.846   7.164   4.186 -0.1041  0.5034  0.1496
11284TIP3   OH233808   6.103   3.177   2.584 -0.2793 -0.4256  0.4812
11284TIP3    H133809   6.091   3.110   2.652 -1.4088  0.1976  0.9321
11284TIP3    H233810   6.014   3.211   2.569  0.2020  0.6003 -0.1159
11285TIP3   OH233811   0.265   4.477   6.258 -0.1737  0.2366 -0.0703
11285TIP3    H133812   0.335   4.454   6.319 -1.5125 -2.2244  0.6914
11285TIP3    H233813   0.198   4.517   6.313 -0.2973  0.5041 -0.4116
11286TIP3   OH233814   3.915   5.371   1.742  0.0197  0.5915  0.1359
11286TIP3    H133815   3.971   5.426   1.687  0.0650  0.3951 -0.0136
11286TIP3    H233816   3.969   5.354   1.820  0.2671  0.1932 -0.1183
11287TIP3   OH233817   0.694   3.151   2.485  0.0681  0.3321 -0.0962
11287TIP3    H133818   0.748   3.147   2.406  0.1008 -0.8777 -0.0341
11287TIP3    H233819   0.736   3.091   2.546 -1.5903 -1.0424 -0.2276
11288TIP3   OH233820   5.843   1.662   4.482  0.5087 -0.3062  0.0033
11288TIP3    H133821   5.772   1.622   4.532  0.4485 -0.8713 -0.5242
11288TIP3    H233822   5.835   1.625   4.395 -1.0441  2.6550 -1.2607
11289TIP3   OH233823   3.815   1.635   6.520  0.0594 -0.5519 -0.8229
11289TIP3    H133824   3.756   1.598   6.585 -0.9138 -1.6268 -2.2589
11289TIP3    H233825   3.759   1.693   6.468  0.6470 -0.3014 -1.1807
11290TIP3   OH233826   6.759   6.941   0.775  0.2146 -0.1914  0.3285
11290TIP3    H133827   6.847   6.937   0.737  0.5013  0.4510  0.8966
11290TIP3    H233828   6.705   6.981   0.706  0.7678  1.1241  0.6321
11291TIP3   OH233829   2.007   5.522   3.513 -0.7284 -0.8173  0.4164
11291TIP3    H133830   2.024   5.575   3.435 -1.1580 -0.3079  0.6623
11291TIP3    H233831   1.924   5.477   3.493  0.0895 -2.1166 -0.1629
11292TIP3   OH233832   4.154   2.549   3.955 -0.2499  0.1174  0.0712
11292TIP3    H133833   4.137   2.524   3.864 -1.1736  0.4198  0.1462
11292TIP3    H233834   4.140   2.644   3.956  4.0112  0.9220 -0.4108
11293TIP3   OH233835   8.057   1.440   6.112  0.1457  0.2082 -0.3249
11293TIP3    H133836   7.966   1.446   6.083 -0.1580 -0.2209  0.5025
11293TIP3    H233837   8.099   1.382   6.050 -0.7156 -1.4409  0.5741
11294TIP3   OH233838   2.796   6.453   3.085  0.7166  0.5021  0.0850
11294TIP3    H133839   2.798   6.477   2.992  0.2492 -0.0866 -0.0798
11294TIP3    H233840   2.837   6.367   3.089  1.1859  0.7438  0.4965
11295TIP3   OH233841   5.271   1.679   6.088  0.6698  0.8398 -0.3666
11295TIP3    H133842   5.318   1.717   6.162  0.7833 -0.6320  0.3562
11295TIP3    H233843   5.186   1.724   6.087 -0.3431 -0.7878  2.2439
11296TIP3   OH233844   8.286   7.280   1.443  0.1249 -0.5183  0.2807
11296TIP3    H133845   8.278   7.324   1.358 -0.7331 -0.0799  0.5805
11296TIP3    H233846   8.268   7.348   1.507  0.0966 -1.0030  0.7968
11297TIP3   OH233847   5.840   2.797   2.878 -0.5558 -0.5425 -0.2484
11297TIP3    H133848   5.824   2.727   2.815  0.9087 -0.5142 -0.6692
11297TIP3    H233849   5.838   2.753   2.963 -1.7661 -0.7066 -0.3361
11298TIP3   OH233850   3.795   1.649   1.246  0.0729 -0.0233  0.6012
11298TIP3    H133851   3.804   1.576   1.185  3.0815 -0.1163  1.0230
11298TIP3    H233852   3.742   1.615   1.318 -3.9152  0.1889 -1.9330
11299TIP3   OH233853   3.996   1.364   1.935 -0.0106 -0.3948 -0.2667
11299TIP3    H133854   3.929   1.314   1.982 -0.4881 -1.8987 -2.3952
11299TIP3    H233855   3.958   1.450   1.922 -0.7046 -0.6081  0.2796
11300TIP3   OH233856   7.910   5.279   1.930 -0.4582 -0.7560  0.1051
11300TIP3    H133857   8.002   5.299   1.946 -0.6774  0.0999  0.3371
11300TIP3    H233858   7.870   5.363   1.909 -1.2692 -1.0583  0.3970
11301TIP3   OH233859   1.144   6.521   5.048 -0.4970  0.4617  0.2754
11301TIP3    H133860   1.178   6.447   4.997  0.4595  1.1724 -0.1554
11301TIP3    H233861   1.083   6.481   5.110 -0.8588 -0.5588 -0.6858
11302TIP3   OH233862   0.638   0.564   0.796  0.4988 -0.0947 -0.3704
11302TIP3    H133863   0.682   0.649   0.791  0.3277 -0.0605 -1.4331
11302TIP3    H233864   0.696   0.510   0.851  0.6384  0.6742  0.2548
11303TIP3   OH233865   1.117   6.275   0.746 -0.2087 -0.1377  0.4813
11303TIP3    H133866   1.203   6.245   0.717 -0.2306  0.7973 -0.6216
11303TIP3    H233867   1.127   6.288   0.840  0.2707 -1.9306  0.7084
11304TIP3   OH233868   1.190   3.588   1.468  0.2313 -0.1910 -0.2041
11304TIP3    H133869   1.206   3.681   1.453 -1.8068  0.0112 -1.6940
11304TIP3    H233870   1.153   3.557   1.385  1.4740 -2.5156  0.0337
11305TIP3   OH233871   1.975   6.905   6.137 -0.2827  0.5365  0.0549
11305TIP3    H133872   2.028   6.929   6.061 -0.2159  1.2942  0.3369
11305TIP3    H233873   2.022   6.942   6.212  0.1044 -0.9285  0.5685
11306TIP3   OH233874   8.267   2.188   3.619  0.5149 -0.2059  0.1212
11306TIP3    H133875   8.247   2.244   3.544  0.4084  0.2404  0.4770
11306TIP3    H233876   8.197   2.206   3.682  1.1462  0.1775  0.7275
11307TIP3   OH233877   0.148   1.586   2.944  0.1462 -0.3498 -0.3699
11307TIP3    H133878   0.212   1.516   2.939  1.0836  0.4228  0.3148
11307TIP3    H233879   0.090   1.571   2.869  1.2203 -0.9742 -1.1144
11308TIP3   OH233880   5.062   0.296   0.630 -0.1774 -0.9278 -0.2695
11308TIP3    H133881   4.973   0.329   0.643  0.1612 -0.5581  1.4448
11308TIP3    H233882   5.051   0.215   0.581 -1.4453 -0.7700 -0.2788
11309TIP3   OH233883   6.742   2.533   4.987  0.1673 -0.4173  0.1117
11309TIP3    H133884   6.672   2.479   5.022 -2.4132  1.8552 -1.1839
11309TIP3    H233885   6.804   2.543   5.059 -1.0818 -2.0428  1.4806
11310TIP3   OH233886   2.154   7.250   5.554 -0.2305 -0.1130  0.0333
11310TIP3    H133887   2.208   7.275   5.629 -0.2020  1.3821 -0.4430
11310TIP3    H233888   2.073   7.300   5.565 -0.9771 -1.2777  0.0085
11311TIP3   OH233889   7.175   3.532   5.834  0.1362 -0.0633 -0.1508
11311TIP3    H133890   7.245   3.490   5.785 -0.4014 -1.0500 -0.1107
11311TIP3    H233891   7.207   3.534   5.924  0.1155 -0.5207 -0.1305
11312TIP3   OH233892   5.449   7.290   1.092 -0.3420  0.2533 -0.3378
11312TIP3    H133893   5.411   7.337   1.018  2.9553  0.5520 -1.9835
11312TIP3    H233894   5.505   7.355   1.135 -1.3823 -0.2166  1.8686
11313TIP3   OH233895   0.956   3.214   2.958  0.1980  0.0088  0.1121
11313TIP3    H133896   0.925   3.124   2.968  0.7244 -0.1832  0.0356
11313TIP3    H233897   1.036   3.218   3.012  0.6886  0.1687 -0.6156
11314TIP3   OH233898   0.796   5.476   3.298  0.3317 -0.0556 -0.1946
11314TIP3    H133899   0.872   5.522   3.263  0.3141  1.1322  1.2248
11314TIP3    H233900   0.825   5.386   3.308  1.3094  0.2299 -0.3725
11315TIP3   OH233901   1.727   6.813   6.122 -0.3073  0.1594  0.0420
11315TIP3    H133902   1.702   6.808   6.030 -2.4715  1.2075  0.5013
11315TIP3    H233903   1.811   6.859   6.122 -1.3839  2.2908 -1.3247
11316TIP3   OH233904   7.377   6.593   4.514 -0.2385 -0.4411  0.3085
11316TIP3    H133905   7.456   6.555   4.476 -0.0690 -0.3551  0.5717
11316TIP3    H233906   7.378   6.563   4.605 -0.3043 -0.1209  0.4153
11317TIP3   OH233907   5.209   3.171   4.607 -0.2130 -0.1912 -0.3046
11317TIP3    H133908   5.144   3.238   4.628  0.1858  0.6108 -1.5612
11317TIP3    H233909   5.249   3.200   4.526  0.9793 -1.2300 -0.1239
11318TIP3   OH233910   6.096   2.266   5.155 -0.0244  0.1096 -0.3377
11318TIP3    H133911   6.047   2.185   5.140 -0.9869  0.4724  0.7787
11318TIP3    H233912   6.105   2.272   5.250  1.8623  0.2632 -0.4921
11319TIP3   OH233913   2.349   0.868   4.631  0.0188  0.4043 -0.5674
11319TIP3    H133914   2.370   0.918   4.553 -0.1339  1.3064 -0.0542
11319TIP3    H233915   2.376   0.924   4.704 -2.5198  0.9271  0.0910
11320TIP3   OH233916   3.309   7.148   1.675  0.0915 -0.8890 -0.6823
11320TIP3    H133917   3.219   7.154   1.642  0.1951  1.1965 -0.7112
11320TIP3    H233918   3.299   7.147   1.770  0.0343 -0.8183 -0.6873
11321TIP3   OH233919   3.414   6.892   6.382 -0.7698 -0.2222  0.2166
11321TIP3    H133920   3.469   6.814   6.385 -1.0837 -0.4446  0.3162
11321TIP3    H233921   3.324   6.858   6.385 -0.9164  0.2134  2.0957
11322TIP3   OH233922   3.840   2.542   5.806 -0.0748 -0.1745  0.4894
11322TIP3    H133923   3.803   2.518   5.891  0.6763  1.8154  1.4451
11322TIP3    H233924   3.765   2.550   5.748 -0.5955 -1.6187  0.9253
11323TIP3   OH233925   2.993   4.243   0.553  0.0893 -0.2006  0.4640
11323TIP3    H133926   3.061   4.299   0.515 -0.0761  0.0123  0.4779
11323TIP3    H233927   2.965   4.289   0.633  2.3390 -1.9463  2.3862
11324TIP3   OH233928   5.506   2.433   6.090  0.2725 -0.4017  0.1012
11324TIP3    H133929   5.511   2.370   6.018  1.7176 -0.7866  0.5112
11324TIP3    H233930   5.518   2.380   6.169  0.3413  0.2410  0.5266
11325TIP3   OH233931   8.264   4.218   4.626  0.0144 -0.2322  0.4205
11325TIP3    H133932   8.205   4.274   4.576  1.2609 -0.3308 -1.2376
11325TIP3    H233933   8.248   4.130   4.590 -0.9498 -0.7646  2.0553
11326TIP3   OH233934   5.499   7.569   1.642 -0.0899 -0.2703  0.4342
11326TIP3    H133935   5.478   7.603   1.555  1.9406  0.1830  0.0703
11326TIP3    H233936   5.529   7.645   1.692 -1.7605 -0.4209  1.7464
11327TIP3   OH233937   4.085   4.320   6.087  0.1879 -0.2280 -0.3812
11327TIP3    H133938   4.111   4.228   6.075  2.5177  0.1556  1.1717
11327TIP3    H233939   4.050   4.323   6.176  0.5830  0.4622 -0.2421
11328TIP3   OH233940   7.918   4.945   5.468  0.0049 -0.3725  0.2175
11328TIP3    H133941   8.012   4.943   5.484  0.2360  1.1653 -0.6670
11328TIP3    H233942   7.907   4.898   5.385  0.0126 -0.4791  0.2777
11329TIP3   OH233943   6.761   4.378   2.741  0.1246  0.2394 -0.2511
11329TIP3    H133944   6.716   4.305   2.698  2.4422 -0.6731 -1.3080
11329TIP3    H233945   6.706   4.454   2.724 -1.5954 -0.9861 -0.4279
11330TIP3   OH233946   1.834   1.456   3.560  0.0232  0.0379 -0.8542
11330TIP3    H133947   1.772   1.386   3.543  0.2748  0.0010 -1.6707
11330TIP3    H233948   1.783   1.524   3.605 -0.4550 -0.2369 -0.9813
11331TIP3   OH233949   5.925   2.175   0.122  0.1451  0.1064 -0.4482
11331TIP3    H133950   6.007   2.140   0.155 -0.1290  0.8539  1.0863
11331TIP3    H233951   5.891   2.105   0.066  1.1065 -0.8099  0.0625
11332TIP3   OH233952   7.972   0.538   0.545 -0.0153  0.4199  0.2069
11332TIP3    H133953   8.023   0.475   0.494 -0.3039  0.2763  0.0954
11332TIP3    H233954   8.037   0.601   0.576  0.2229  0.2723  0.0161
11333TIP3   OH233955   4.803   7.600   2.793 -0.4012 -0.6857 -0.2335
11333TIP3    H133956   4.707   7.605   2.799 -0.2754  0.4107  2.1777
11333TIP3    H233957   4.832   7.691   2.802  0.8796 -1.0457 -0.6062
11334TIP3   OH233958   3.975   0.737   3.669  0.0459 -0.4065 -0.2974
11334TIP3    H133959   4.037   0.664   3.663  0.3357 -0.0563 -1.8492
11334TIP3    H233960   3.937   0.745   3.582 -1.9327 -0.3459  0.5148
11335TIP3   OH233961   4.232   3.816   5.048  0.0178  0.3853 -0.2618
11335TIP3    H133962   4.227   3.783   5.138 -0.8679  1.3370  0.0558
11335TIP3    H233963   4.191   3.902   5.052 -0.3762  0.2847 -1.6578
11336TIP3   OH233964   2.486   4.055   0.245 -0.3562 -0.4912 -0.3209
11336TIP3    H133965   2.401   4.026   0.212 -0.6884  0.3437 -0.2242
11336TIP3    H233966   2.521   3.979   0.291 -1.9258 -0.2792  1.3485
11337TIP3   OH233967   1.174   0.822   6.269  0.6736  0.0756 -0.4449
11337TIP3    H133968   1.255   0.871   6.284  0.5309  1.2092 -2.8886
11337TIP3    H233969   1.105   0.888   6.270  0.0303 -0.5853 -0.4479
11338TIP3   OH233970   4.849   5.888   5.562 -0.2580  0.6930 -0.4556
11338TIP3    H133971   4.868   5.814   5.620 -1.3858  0.2987 -0.5561
11338TIP3    H233972   4.856   5.965   5.619  0.0479  0.4373 -0.1403
11339TIP3   OH233973   8.059   0.605   5.980 -0.0300  0.0810  0.3561
11339TIP3    H133974   8.107   0.533   6.021 -0.8021  0.7334  2.5553
11339TIP3    H233975   7.982   0.616   6.036 -1.4717  0.6677 -1.6723
11340TIP3   OH233976   0.019   2.068   1.646 -0.3496 -0.1012  0.1876
11340TIP3    H133977   0.015   2.090   1.739 -0.4206  0.5456  0.0337
11340TIP3    H233978   0.005   2.151   1.601 -2.8615 -0.7725 -0.4265
11341TIP3   OH233979   5.034   3.957   2.304  0.2053 -0.0129  0.2185
11341TIP3    H133980   5.057   3.922   2.390  0.1731  0.8588  0.5992
11341TIP3    H233981   4.981   3.889   2.263 -3.0818  0.9864  2.3967
11342TIP3   OH233982   0.523   3.223   4.924  0.1962 -0.0439  0.1980
11342TIP3    H133983   0.533   3.226   5.019  0.4811  0.1189  0.1646
11342TIP3    H233984   0.431   3.202   4.910  0.3523 -0.9720  0.5154
11343TIP3   OH233985   7.035   7.582   3.996 -0.4347  0.0258  0.2745
11343TIP3    H133986   7.033   7.499   3.948  0.7731  0.0482  0.1500
11343TIP3    H233987   6.944   7.597   4.022 -1.0122 -0.3370 -1.4141
11344TIP3   OH233988   6.790   3.072   6.304 -0.4445 -0.3066 -0.2959
11344TIP3    H133989   6.720   3.127   6.267 -2.5485 -1.2531  1.9484
11344TIP3    H233990   6.758   2.983   6.293  1.6758 -0.9587 -1.5052
11345TIP3   OH233991   5.565   6.943   3.576  0.5139 -0.0682  0.4362
11345TIP3    H133992   5.603   7.026   3.608 -0.2470  0.5400 -0.2124
11345TIP3    H233993   5.614   6.875   3.623  1.0561  0.7493  1.0865
11346TIP3   OH233994   7.386   3.886   6.093 -0.4210 -0.3706  0.0219
11346TIP3    H133995   7.401   3.941   6.016  1.2488 -0.5640  0.1792
11346TIP3    H233996   7.454   3.912   6.155 -0.5271 -1.5667  0.6747
11347TIP3   OH233997   2.948   6.538   1.514  0.1557 -0.2231 -0.6843
11347TIP3    H133998   2.967   6.615   1.460 -0.6175 -0.0319 -0.6878
11347TIP3    H233999   2.853   6.530   1.512  0.2362 -1.2642 -0.7981
11348TIP3   OH234000   6.956   6.729   1.172  0.1058 -0.0272  0.1832
11348TIP3    H134001   6.901   6.807   1.173 -0.9497 -0.7001 -1.3636
11348TIP3    H234002   7.046   6.763   1.167 -0.3784  1.1244 -1.7259
11349TIP3   OH234003   4.551   0.459   0.454  0.0720  0.3155 -0.0270
11349TIP3    H134004   4.538   0.364   0.457  0.8876  0.1992  0.3355
11349TIP3    H234005   4.556   0.480   0.361  2.1306 -0.3632 -0.1331
11350TIP3   OH234006   7.284   4.614   1.473 -0.2549 -0.3287 -0.5827
11350TIP3    H134007   7.345   4.589   1.542 -1.8359 -2.2624  0.1980
11350TIP3    H234008   7.317   4.570   1.394 -0.4502 -1.0887 -0.2428
11351TIP3   OH234009   4.749   1.726   3.979 -0.3632 -0.6120 -0.3140
11351TIP3    H134010   4.819   1.785   4.008  0.8009 -2.2516  0.3899
11351TIP3    H234011   4.785   1.685   3.900 -1.0520 -0.5815 -0.6480
11352TIP3   OH234012   6.536   7.402   2.483  0.0337  0.0663  0.3981
11352TIP3    H134013   6.476   7.328   2.497  0.9667 -0.5474  1.3435
11352TIP3    H234014   6.495   7.454   2.414 -1.3360 -0.5896  0.6899
11353TIP3   OH234015   3.816   2.864   2.583 -0.2810 -0.2236  0.7285
11353TIP3    H134016   3.832   2.782   2.536  0.4797 -0.2729  1.0627
11353TIP3    H234017   3.836   2.843   2.674 -1.2062  0.0252  0.9970
11354TIP3   OH234018   5.348   4.082   2.467  0.1314  0.0616  0.4935
11354TIP3    H134019   5.289   4.007   2.477  1.7128 -0.9710  2.9257
11354TIP3    H234020   5.408   4.056   2.398 -1.4824  0.6787 -1.2402
11355TIP3   OH234021   0.925   4.352   6.679  0.2536  0.1176  0.2565
11355TIP3    H134022   0.906   4.268   6.719  0.0594 -1.3188 -2.5836
11355TIP3    H234023   1.009   4.340   6.635 -0.7382  0.6162 -1.9395
11356TIP3   OH234024   7.560   0.720   2.646 -0.1999 -0.6489 -0.5914
11356TIP3    H134025   7.582   0.682   2.561  1.9969 -0.2380 -0.2679
11356TIP3    H234026   7.614   0.799   2.651 -1.4358  0.1539  0.5684
11357TIP3   OH234027   6.366   3.057   0.973  0.2186  0.8523  1.0416
11357TIP3    H134028   6.370   3.153   0.972 -1.3560  0.9457 -0.1904
11357TIP3    H234029   6.306   3.036   1.044 -0.0274  0.8039  0.8171
11358TIP3   OH234030   3.351   3.149   6.401 -0.0513 -0.4731 -0.5335
11358TIP3    H134031   3.384   3.116   6.485 -0.1849  0.3187 -0.1567
11358TIP3    H234032   3.267   3.190   6.422  0.4508  0.7782 -0.8225
11359TIP3   OH234033   7.117   1.080   4.767  0.0149 -0.0938 -0.0235
11359TIP3    H134034   7.131   0.990   4.737 -0.7749 -0.7530  1.5169
11359TIP3    H234035   7.057   1.118   4.703 -0.7240 -1.1013  0.0557
11360TIP3   OH234036   3.099   7.476   2.130 -0.0479  0.0590  0.6913
11360TIP3    H134037   3.049   7.443   2.056 -1.2813  1.5101  0.8373
11360TIP3    H234038   3.135   7.398   2.172 -0.2817 -0.8494 -0.7537
11361TIP3   OH234039   2.923   6.720   4.378 -0.0498  0.3430 -0.1644
11361TIP3    H134040   2.893   6.707   4.288  0.5680  0.2130 -0.3588
11361TIP3    H234041   3.017   6.739   4.369 -0.1034  0.9040  0.4130
11362TIP3   OH234042   1.811   3.021   4.611  0.0337 -0.2613 -0.0365
11362TIP3    H134043   1.891   3.064   4.641 -0.1907 -0.6946  1.2514
11362TIP3    H234044   1.825   2.928   4.632 -1.2298 -0.1983  1.2170
11363TIP3   OH234045   0.592   4.102   1.307  0.4595  0.0819 -0.0557
11363TIP3    H134046   0.686   4.117   1.317  0.6584 -0.0842 -1.4598
11363TIP3    H234047   0.554   4.190   1.310  0.6352  0.1374  0.6897
11364TIP3   OH234048   0.691   6.251   6.013 -0.3176  0.1757 -0.4844
11364TIP3    H134049   0.620   6.290   5.962  2.0533  1.8133 -2.7660
11364TIP3    H234050   0.752   6.216   5.948  2.0809  0.9096  1.2096
11365TIP3   OH234051  -0.002   0.879   2.614  0.0740  0.1599 -0.0660
11365TIP3    H134052   0.046   0.797   2.598 -0.1439  0.0612 -0.2197
11365TIP3    H234053   0.055   0.929   2.672  0.2952 -0.0214 -0.1248
11366TIP3   OH234054   1.364   3.635   4.382  0.4457 -0.6860  0.1972
11366TIP3    H134055   1.455   3.617   4.355  0.8627 -0.8272  1.6412
11366TIP3    H234056   1.349   3.575   4.455 -0.5628 -0.1179  0.4624
11367TIP3   OH234057   7.112   7.270   4.087 -0.4040 -0.0165  0.5008
11367TIP3    H134058   7.016   7.273   4.083 -0.4412 -1.3178 -0.2294
11367TIP3    H234059   7.135   7.327   4.161 -1.8152 -0.6648  1.4861
11368TIP3   OH234060   2.817   0.312   4.364 -0.1556 -0.5010 -1.3440
11368TIP3    H134061   2.790   0.223   4.385 -0.8658 -0.3716 -1.6565
11368TIP3    H234062   2.776   0.367   4.431  2.5909 -0.6283  0.5870
11369TIP3   OH234063   3.147   1.423   0.613 -0.4072 -0.0212  0.0890
11369TIP3    H134064   3.232   1.460   0.587 -0.5841 -0.1309 -0.6768
11369TIP3    H234065   3.169   1.357   0.678 -0.0616  1.2349  1.3093
11370TIP3   OH234066   7.563   5.458   2.408 -0.2320  0.0371 -0.2006
11370TIP3    H134067   7.569   5.527   2.342 -0.2549  0.1337 -0.1025
11370TIP3    H234068   7.596   5.380   2.364 -0.7761 -0.0244 -0.5021
11371TIP3   OH234069   4.416   4.527   0.097 -0.0502  0.3856 -0.0050
11371TIP3    H134070   4.417   4.492   0.008 -0.3676  2.4060 -0.8750
11371TIP3    H234071   4.495   4.582   0.103  1.9927 -2.4722  2.2645
11372TIP3   OH234072   5.151   3.461   2.175  0.3046 -0.0312 -0.2254
11372TIP3    H134073   5.143   3.475   2.081  2.2820  2.1392 -0.1519
11372TIP3    H234074   5.115   3.373   2.190 -4.5524  1.2732 -2.2631
11373TIP3   OH234075   8.282   2.023   2.359 -0.1533 -0.3079  0.0755
11373TIP3    H134076   8.232   2.053   2.434 -1.8264 -1.0112 -0.7101
11373TIP3    H234077   8.261   1.930   2.351  0.0106 -0.2507 -1.2409
11374TIP3   OH234078   0.541   6.548   0.967  0.2381 -0.4309  0.2964
11374TIP3    H134079   0.609   6.505   0.915 -1.6711 -1.8413 -1.1830
11374TIP3    H234080   0.461   6.498   0.947 -1.6048  2.2515  0.5147
11375TIP3   OH234081   7.089   3.858   1.298  0.4948 -0.2664  0.7494
11375TIP3    H134082   7.121   3.947   1.285 -0.6712  0.2455  1.2012
11375TIP3    H234083   7.128   3.830   1.381  1.4423 -0.4648  0.2491
11376TIP3   OH234084   6.371   6.618   0.465  0.2851 -0.3742 -0.1723
11376TIP3    H134085   6.330   6.575   0.540  0.2303 -0.4344 -0.2376
11376TIP3    H234086   6.442   6.670   0.504  0.1991 -0.3337 -0.0692
11377TIP3   OH234087   1.697   6.106   3.318  0.1830 -0.4908  0.5206
11377TIP3    H134088   1.778   6.128   3.364 -0.0001 -0.1885  0.7036
11377TIP3    H234089   1.628   6.143   3.373 -0.0505 -0.3238  0.1133
11378TIP3   OH234090   4.188   0.246   0.401 -0.5091 -0.2070 -0.2393
11378TIP3    H134091   4.143   0.161   0.400 -0.6909 -0.1188 -1.7490
11378TIP3    H234092   4.143   0.296   0.470 -0.0771 -1.4685  1.0100
11379TIP3   OH234093   7.047   1.955   1.349  0.3628 -0.4226 -0.4500
11379TIP3    H134094   6.960   1.990   1.328  0.4581  1.3685  1.7104
11379TIP3    H234095   7.108   2.010   1.300  0.3733  0.1593  0.2085
11380TIP3   OH234096   5.720   5.666   1.575  0.0687 -0.1278 -0.0217
11380TIP3    H134097   5.766   5.700   1.499 -0.9568  0.8769 -0.2144
11380TIP3    H234098   5.728   5.735   1.641  1.9522 -1.4478  1.2418
11381TIP3   OH234099   7.086   2.926   5.679  0.3266 -0.2498 -0.2160
11381TIP3    H134100   7.065   2.943   5.771  1.9608 -1.7586  0.4909
11381TIP3    H234101   7.004   2.893   5.642 -0.6631  1.4077  0.3720
11382TIP3   OH234102   1.860   3.750   2.060 -0.0791 -0.0155 -0.0425
11382TIP3    H134103   1.772   3.734   2.026  0.2995  1.2673 -1.7539
11382TIP3    H234104   1.894   3.663   2.080 -1.0955 -0.6686 -1.0291
11383TIP3   OH234105   3.120   0.028   4.591 -0.4208 -0.3827 -0.4199
11383TIP3    H134106   3.112   0.006   4.684  0.1071  2.3646  0.3438
11383TIP3    H234107   3.077   0.113   4.582  1.4854  0.4596 -2.2371
11384TIP3   OH234108   2.189   5.061   3.583  0.6989  0.2354 -0.1348
11384TIP3    H134109   2.143   5.129   3.631  0.3493 -0.0610 -0.0455
11384TIP3    H234110   2.221   5.104   3.504  1.0224  0.6529  0.2191
11385TIP3   OH234111   4.541   7.011   4.322 -0.0337  0.0494  0.3142
11385TIP3    H134112   4.621   6.971   4.357 -0.1036 -0.2801  0.1116
11385TIP3    H234113   4.505   7.061   4.394  0.7743  0.8507  0.1838
11386TIP3   OH234114   3.636   1.032   2.573  0.3116  0.1154 -0.3796
11386TIP3    H134115   3.588   1.013   2.493 -1.1318  0.8102  0.2697
11386TIP3    H234116   3.568   1.039   2.641  1.3617  0.8258  0.6483
11387TIP3   OH234117   6.192   1.496   5.137 -0.3771  0.1863 -0.0007
11387TIP3    H134118   6.237   1.454   5.211 -0.1992  0.6603  0.1673
11387TIP3    H234119   6.203   1.435   5.064 -1.1327 -0.5946  0.5292
11388TIP3   OH234120   6.984   4.971   3.750  0.4182  0.3421  0.3250
11388TIP3    H134121   6.907   4.948   3.699  1.5007 -3.1702  0.0341
11388TIP3    H234122   7.036   5.026   3.692 -0.1821 -0.3244 -0.8742
11389TIP3   OH234123   0.401   3.740   1.417  0.2849  0.4558  0.3954
11389TIP3    H134124   0.430   3.763   1.329  1.7390  0.1759  0.7746
11389TIP3    H234125   0.480   3.709   1.461 -0.7255 -0.9302  1.3087
11390TIP3   OH234126   1.685   6.719   0.782  0.4026 -0.5549  0.0712
11390TIP3    H134127   1.715   6.658   0.715 -0.0299 -1.4575  0.6784
11390TIP3    H234128   1.632   6.783   0.735  0.3394 -1.0158 -0.4887
11391TIP3   OH234129   3.618   2.102   4.776 -0.0853 -0.3063  0.0657
11391TIP3    H134130   3.611   2.194   4.804  1.5605  0.0797 -0.6555
11391TIP3    H234131   3.542   2.087   4.721 -0.0326  0.8541 -0.3472
11392TIP3   OH234132   5.307   1.658   1.084 -0.1143  0.3498 -0.1573
11392TIP3    H134133   5.297   1.670   0.989  0.3511  0.2922 -0.2188
11392TIP3    H234134   5.387   1.607   1.093 -0.5633 -0.3017  0.2371
11393TIP3   OH234135   1.683   4.744   4.622  0.5365  0.2492  0.3938
11393TIP3    H134136   1.725   4.830   4.628  1.4823 -0.2904  2.7027
11393TIP3    H234137   1.711   4.699   4.702 -1.7717 -1.3884  0.3551
11394TIP3   OH234138   1.634   4.571   4.415 -0.2985  0.4404 -0.2152
11394TIP3    H134139   1.634   4.639   4.483 -2.4832 -0.3556  0.6456
11394TIP3    H234140   1.678   4.613   4.341  1.3903  1.6374  1.3422
11395TIP3   OH234141   0.967   4.180   6.204  0.8269  0.2407 -0.2768
11395TIP3    H134142   0.976   4.140   6.117 -1.1698 -1.2767  0.1463
11395TIP3    H234143   0.888   4.141   6.240  1.7544  0.6400  2.3739
11396TIP3   OH234144   0.813   7.671   6.718  0.0567 -0.1017 -0.0131
11396TIP3    H134145   0.839   7.699   6.630 -0.8083  1.9011  0.2945
11396TIP3    H234146   0.894   7.667   6.767  0.3148  1.4506 -0.2486
11397TIP3   OH234147   0.807   4.870   0.549 -1.0088 -0.0900 -0.9042
11397TIP3    H134148   0.893   4.828   0.547 -0.9449 -0.1777  1.4065
11397TIP3    H234149   0.823   4.959   0.580 -1.8651 -0.5503  0.9779
11398TIP3   OH234150   0.096   1.991   4.882 -0.2890 -0.3622  0.8452
11398TIP3    H134151   0.180   1.983   4.928 -0.0244 -1.1952  0.2448
11398TIP3    H234152   0.077   2.085   4.883  1.4570  0.0523 -0.3934
11399TIP3   OH234153   1.842   2.998   1.257  0.3455  0.3238 -0.7034
11399TIP3    H134154   1.840   2.943   1.178  1.3779 -0.0138 -0.5092
11399TIP3    H234155   1.765   2.970   1.306  1.3773 -1.7222 -0.1338
11400TIP3   OH234156   2.349   6.033   3.679 -0.1334 -0.2407  0.0912
11400TIP3    H134157   2.351   6.093   3.754  0.9533 -0.1044 -0.0326
11400TIP3    H234158   2.321   6.088   3.606  1.3855  0.2813 -0.1360
11401TIP3   OH234159   2.691   3.065   5.913  0.7314  0.0469 -0.4305
11401TIP3    H134160   2.724   3.128   5.977 -0.3610  2.3538 -1.9607
11401TIP3    H234161   2.688   3.115   5.831 -1.4654 -1.6008 -1.4462
11402TIP3   OH234162   3.795   3.902   2.351 -0.0107 -0.2810 -0.3292
11402TIP3    H134163   3.849   3.972   2.387 -0.6373  0.2594 -0.4182
11402TIP3    H234164   3.856   3.829   2.338  0.4293 -0.1724  0.9047
11403TIP3   OH234165   4.678   5.843   0.226  0.2327 -0.0745 -0.0777
11403TIP3    H134166   4.592   5.819   0.259 -0.6641  0.8376 -1.6316
11403TIP3    H234167   4.669   5.843   0.131  2.2682 -1.0266 -0.3187
11404TIP3   OH234168   1.483   2.762   5.413 -0.2311 -0.2540 -0.7270
11404TIP3    H134169   1.493   2.667   5.414  1.4180 -0.1787  1.7910
11404TIP3    H234170   1.536   2.792   5.487 -2.2647  2.4849 -0.2077
11405TIP3   OH234171   3.066   0.575   2.000 -0.0748  0.3195 -0.1189
11405TIP3    H134172   3.140   0.534   2.046 -0.1940  1.9177  1.6247
11405TIP3    H234173   3.103   0.605   1.917  0.7021 -0.7432 -0.1830
11406TIP3   OH234174   3.590   5.746   2.779  0.1559  0.0919 -0.6192
11406TIP3    H134175   3.514   5.738   2.836  0.0078 -0.1713 -0.8550
11406TIP3    H234176   3.561   5.801   2.707  0.0728 -0.3222 -0.9062
11407TIP3   OH234177   7.631   2.687   3.832 -0.2155  0.5447 -0.5362
11407TIP3    H134178   7.637   2.774   3.873  0.8486 -0.3058  1.2584
11407TIP3    H234179   7.682   2.695   3.751  0.6682  1.3548  0.0831
11408TIP3   OH234180   6.887   3.193   1.558  0.0399  0.5681  0.1812
11408TIP3    H134181   6.905   3.286   1.545 -1.1488  0.6715 -0.9230
11408TIP3    H234182   6.899   3.153   1.472  1.9880 -0.6108  0.9102
11409TIP3   OH234183   3.235   4.527   6.416 -0.1497 -0.1074  0.3376
11409TIP3    H134184   3.142   4.507   6.423 -1.1832  2.8258 -2.3907
11409TIP3    H234185   3.243   4.613   6.457  0.5907  1.1382 -2.2237
11410TIP3   OH234186   7.661   5.508   4.434 -0.2267  0.5214 -0.1304
11410TIP3    H134187   7.647   5.572   4.364  0.3907  1.1449  0.2948
11410TIP3    H234188   7.744   5.466   4.411 -0.0641  0.6707  0.1703
11411TIP3   OH234189   4.794   4.388   0.840 -0.4892  0.5561 -0.2274
11411TIP3    H134190   4.858   4.401   0.770 -0.0798  2.6106  0.4551
11411TIP3    H234191   4.774   4.476   0.871  0.3806 -0.2948  3.1594
11412TIP3   OH234192   6.588   5.666   6.058 -0.1117 -0.1261  0.7783
11412TIP3    H134193   6.607   5.573   6.048  0.6248  0.1377 -0.4670
11412TIP3    H234194   6.654   5.696   6.121  0.0020 -0.3445  0.7666
11413TIP3   OH234195   4.273   0.686   2.411  0.0122  0.6197 -0.5385
11413TIP3    H134196   4.268   0.696   2.506  1.2488  0.9746 -0.5032
11413TIP3    H234197   4.241   0.597   2.395 -1.7809  1.1216  0.0351
11414TIP3   OH234198   0.930   7.179   4.455 -0.1027  0.7164 -0.2396
11414TIP3    H134199   0.859   7.242   4.454 -0.2524  0.6070 -2.8210
11414TIP3    H234200   1.008   7.229   4.432  0.4616  0.5919  1.2873
11415TIP3   OH234201   0.785   7.318   5.319 -0.3835 -0.1412  0.1086
11415TIP3    H134202   0.714   7.263   5.350 -0.4907 -1.0504 -1.6145
11415TIP3    H234203   0.760   7.407   5.344 -0.5846 -0.7458  2.2479
11416TIP3   OH234204   7.978   1.042   3.366  0.0992  0.3391 -0.2703
11416TIP3    H134205   8.054   1.065   3.312  1.1034  1.2427  1.4365
11416TIP3    H234206   8.012   0.980   3.430 -0.3983  1.2587  0.9326
11417TIP3   OH234207   3.595   6.242   2.945 -0.2565 -0.5445  0.5332
11417TIP3    H134208   3.536   6.217   3.017 -0.5990  0.6465  0.6808
11417TIP3    H234209   3.641   6.320   2.978 -0.2623 -0.1156 -0.4615
11418TIP3   OH234210   5.883   1.052   0.600  0.4157 -0.1744 -0.4977
11418TIP3    H134211   5.923   1.064   0.686  1.1289  1.1417 -0.9915
11418TIP3    H234212   5.957   1.050   0.539 -0.0940 -0.8926 -1.1141
11419TIP3   OH234213   3.056   0.070   3.206 -0.5788  0.0048 -0.1042
11419TIP3    H134214   3.039   0.139   3.270 -0.4894  0.4277 -0.5271
11419TIP3    H234215   2.988   0.083   3.140 -0.2312  0.0278 -0.4581
11420TIP3   OH234216   7.621   0.817   1.507  0.2819 -0.2174 -0.5149
11420TIP3    H134217   7.699   0.872   1.506 -0.8635  1.4983  0.0009
11420TIP3    H234218   7.615   0.785   1.597  1.0625 -1.3929 -0.8660
11421TIP3   OH234219   2.744   5.039   4.753 -0.3075  0.2063 -0.1472
11421TIP3    H134220   2.668   5.007   4.802  0.2953 -0.2317  0.5253
11421TIP3    H234221   2.709   5.062   4.667 -1.5217  1.6161  0.6832
11422TIP3   OH234222   3.972   6.887   5.891  0.5494 -0.4035 -0.2821
11422TIP3    H134223   3.962   6.852   5.802 -1.0486 -1.4394  0.2743
11422TIP3    H234224   3.962   6.811   5.948  1.1831  0.3160  0.8139
11423TIP3   OH234225   1.650   5.266   6.492  0.3853 -0.1526  0.1501
11423TIP3    H134226   1.683   5.176   6.494  0.5108 -0.1023  0.4721
11423TIP3    H234227   1.693   5.309   6.567 -0.0555  0.0391  0.2980
11424TIP3   OH234228   1.505   6.005   1.130  0.4840 -0.8118 -0.7004
11424TIP3    H134229   1.575   5.979   1.070  0.2250  0.9658 -1.8228
11424TIP3    H234230   1.425   5.972   1.089  0.2407  0.9166 -1.7214
11425TIP3   OH234231   2.601   4.705   5.812  0.0940  0.0220  0.0212
11425TIP3    H134232   2.576   4.747   5.729  3.0035 -0.4915 -1.2388
11425TIP3    H234233   2.589   4.774   5.878  0.6358  1.4825 -1.3220
11426TIP3   OH234234   6.777   6.085   2.129 -0.0901  0.3038  0.6537
11426TIP3    H134235   6.792   6.054   2.040 -2.3149  0.9046  0.0065
11426TIP3    H234236   6.819   6.019   2.185  0.3361 -0.7003 -0.7950
11427TIP3   OH234237   2.492   4.046   1.526  0.2602 -0.7358  0.6074
11427TIP3    H134238   2.476   4.134   1.490  0.8226 -0.6303  0.6050
11427TIP3    H234239   2.538   4.062   1.608 -1.1030 -0.9720  1.4564
11428TIP3   OH234240   5.359   0.963   1.316 -0.4247  0.9095 -0.3444
11428TIP3    H134241   5.319   0.888   1.273  2.7166 -1.6494  0.7236
11428TIP3    H234242   5.451   0.959   1.291  0.7820  1.6728  3.2425
11429TIP3   OH234243   1.685   5.058   3.341 -0.0590  0.4332 -0.2417
11429TIP3    H134244   1.742   5.121   3.298  1.0662  1.6231  2.6989
11429TIP3    H234245   1.640   5.108   3.408 -1.2790 -1.3671  0.3735
11430TIP3   OH234246   3.298   0.303   1.235 -0.1963  0.6033  0.4836
11430TIP3    H134247   3.392   0.298   1.217  0.4636 -0.4698  3.6346
11430TIP3    H234248   3.266   0.214   1.224 -0.8154  0.9104 -0.2906
11431TIP3   OH234249   0.905   5.215   0.976 -0.3319 -0.0214 -0.1671
11431TIP3    H134250   0.937   5.234   1.065 -0.7922  0.1569 -0.0418
11431TIP3    H234251   0.928   5.292   0.925 -1.9805  0.8097  0.2854
11432TIP3   OH234252   1.602   6.162   1.545  0.1244  0.2336 -0.5415
11432TIP3    H134253   1.588   6.174   1.451  1.9797 -0.3668 -0.9263
11432TIP3    H234254   1.666   6.228   1.569 -0.8724  0.8704  0.4943
11433TIP3   OH234255   8.085   6.250   0.268  0.2926 -0.3122  0.2379
11433TIP3    H134256   7.999   6.218   0.297 -0.4155  2.1403  1.0555
11433TIP3    H234257   8.124   6.175   0.222 -1.0945 -2.3901  2.2382
11434TIP3   OH234258   5.193   4.608   4.680  0.2728 -0.5109  0.6089
11434TIP3    H134259   5.255   4.544   4.645 -0.9948 -1.5253  0.1530
11434TIP3    H234260   5.121   4.608   4.617 -0.2974  0.4723  1.2517
11435TIP3   OH234261   1.109   4.150   0.830 -0.2481  0.1680  0.1138
11435TIP3    H134262   1.059   4.150   0.749  0.7334 -2.9146 -0.6268
11435TIP3    H234263   1.138   4.240   0.841 -1.2725  0.8739 -2.3835
11436TIP3   OH234264   4.327   7.418   1.419  0.3033  0.6165 -0.0157
11436TIP3    H134265   4.315   7.512   1.430  1.9645  0.6872  1.8094
11436TIP3    H234266   4.414   7.401   1.456  1.4994 -1.1528 -3.2554
11437TIP3   OH234267   1.912   4.604   5.299 -0.3014 -0.1908  0.2594
11437TIP3    H134268   1.854   4.605   5.376 -1.3661 -0.4579 -0.5098
11437TIP3    H234269   2.000   4.601   5.335 -0.7803 -0.2420  1.4714
11438TIP3   OH234270   7.368   4.184   4.578 -0.0476  0.2517 -0.2503
11438TIP3    H134271   7.356   4.237   4.499  1.2454 -0.9592 -1.3078
11438TIP3    H234272   7.370   4.247   4.649  2.1229  1.7280 -1.5241
11439TIP3   OH234273   0.833   1.428   2.522  0.7257 -0.2107  0.2714
11439TIP3    H134274   0.887   1.502   2.496  1.0767  0.0131  1.5663
11439TIP3    H234275   0.749   1.467   2.547  0.9341 -0.2412  1.0207
11440TIP3   OH234276   4.224   6.545   2.566 -0.7720  0.3333  0.2504
11440TIP3    H134277   4.288   6.584   2.505  0.3208 -1.0360  0.4589
11440TIP3    H234278   4.227   6.452   2.546  0.8958 -0.4450  3.4652
11441TIP3   OH234279   1.936   4.225   1.690  0.0311  0.6734 -0.3742
11441TIP3    H134280   1.958   4.275   1.769  1.9645 -0.1983 -0.2969
11441TIP3    H234281   2.020   4.215   1.644 -0.3273 -2.1383 -0.5805
11442TIP3   OH234282   8.067   2.226   4.968 -0.0226  0.2037  0.4947
11442TIP3    H134283   8.029   2.280   4.899  0.2772 -0.1231  0.0746
11442TIP3    H234284   8.008   2.239   5.043 -1.7027 -1.2260 -0.4934
11443TIP3   OH234285   4.818   6.554   2.255  0.8433  0.8344 -0.3632
11443TIP3    H134286   4.771   6.573   2.174 -0.3845 -1.1437 -0.1741
11443TIP3    H234287   4.804   6.633   2.309 -1.0337  0.9078 -0.8875
11444TIP3   OH234288   5.179   0.693   6.566  0.1244  0.1735 -0.1152
11444TIP3    H134289   5.213   0.773   6.528 -1.1288  0.5001 -0.6022
11444TIP3    H234290   5.145   0.720   6.652  2.3326 -0.4324  1.0439
11445TIP3   OH234291   6.326   6.432   3.161  0.1248  0.2610  0.1174
11445TIP3    H134292   6.331   6.337   3.165  0.4380  0.3273  2.6680
11445TIP3    H234293   6.413   6.460   3.134 -0.5219 -0.1598 -2.7645
11446TIP3   OH234294   4.689   3.116   5.716 -0.3375 -0.7087  0.2969
11446TIP3    H134295   4.634   3.054   5.764 -0.8963  0.9792  1.9482
11446TIP3    H234296   4.758   3.141   5.778 -0.4224  0.6936 -0.1245
11447TIP3   OH234297   6.339   4.369   1.189  0.4204 -0.4348 -0.5773
11447TIP3    H134298   6.422   4.356   1.235 -0.4831 -0.9773  0.9627
11447TIP3    H234299   6.312   4.458   1.212  1.2004  0.2649 -2.1881
11448TIP3   OH234300   8.148   5.321   2.107  0.0188  0.7048 -0.5161
11448TIP3    H134301   8.169   5.331   2.200 -0.1961 -0.2390 -0.3518
11448TIP3    H234302   8.184   5.236   2.083  0.3960  1.0973 -1.4052
11449TIP3   OH234303   4.022   1.800   5.712  0.1956  0.1076 -0.3084
11449TIP3    H134304   3.930   1.823   5.701  0.2450  0.6953  0.4005
11449TIP3    H234305   4.068   1.884   5.707  1.0227 -0.3793 -3.4499
11450TIP3   OH234306   4.304   6.743   2.137 -0.2139  0.0674  0.5085
11450TIP3    H134307   4.354   6.815   2.097  2.6333 -1.0783  1.7040
11450TIP3    H234308   4.259   6.701   2.064  0.7311  1.0790 -0.7049
11451TIP3   OH234309   6.332   3.440   5.573 -0.0575  0.4138 -0.3617
11451TIP3    H134310   6.292   3.353   5.583 -0.4734  0.0557 -3.7953
11451TIP3    H234311   6.419   3.422   5.535  0.1466  1.4740 -0.4296
11452TIP3   OH234312   1.028   6.525   3.495 -0.0485  0.1381 -0.0376
11452TIP3    H134313   0.947   6.522   3.547 -0.4494 -1.9185 -0.6854
11452TIP3    H234314   1.020   6.605   3.443  0.2545  2.1528  2.7689
11453TIP3   OH234315   3.448   1.932   0.235  0.4765  0.2234  0.6439
11453TIP3    H134316   3.377   1.947   0.173  0.1530  1.3336  1.2466
11453TIP3    H234317   3.473   2.020   0.265  1.0125 -0.2468  1.6394
11454TIP3   OH234318   0.727   4.522   6.607 -0.5100  0.3618 -0.4404
11454TIP3    H134319   0.807   4.475   6.631 -0.9606 -0.9141 -1.3705
11454TIP3    H234320   0.747   4.563   6.523 -0.4377  1.0547 -0.0891
11455TIP3   OH234321   1.678   2.627   5.594  0.3005  0.1343  0.3484
11455TIP3    H134322   1.759   2.649   5.548 -0.8129  0.7814 -1.4273
11455TIP3    H234323   1.699   2.636   5.687  2.0547  0.9789 -0.0956
11456TIP3   OH234324   6.226   5.904   3.697  0.0919  0.5493 -0.2209
11456TIP3    H134325   6.153   5.954   3.661  0.1571  0.5654 -0.3337
11456TIP3    H234326   6.280   5.883   3.620 -0.6955 -0.9760 -0.4085
11457TIP3   OH234327   6.662   2.667   4.005 -0.5732 -0.1363 -0.3069
11457TIP3    H134328   6.603   2.591   4.007 -3.2840  1.8197 -0.1140
11457TIP3    H234329   6.656   2.698   3.915 -1.3470  1.1231  0.1493
11458TIP3   OH234330   4.396   3.352   4.041  0.1716 -0.5211  0.0050
11458TIP3    H134331   4.405   3.418   3.972 -1.4938 -0.3372 -0.0818
11458TIP3    H234332   4.330   3.388   4.100  0.7845 -1.1698  1.1318
11459TIP3   OH234333   7.742   5.441   5.303 -0.8255 -0.0509  0.4746
11459TIP3    H134334   7.721   5.426   5.211  1.3145 -0.6782  0.0398
11459TIP3    H234335   7.669   5.400   5.351 -0.9061 -1.6484 -0.9018
11460TIP3   OH234336   1.922   2.990   1.996  0.5105  0.1611  0.3582
11460TIP3    H134337   2.014   2.963   2.003 -0.4488 -3.3799  1.1859
11460TIP3    H234338   1.895   2.963   1.909  0.7611  3.4768 -0.8931
11461TIP3   OH234339   3.016   4.334   6.177 -0.1860 -0.6460 -0.0312
11461TIP3    H134340   3.047   4.374   6.096  2.3942  0.9012  1.5922
11461TIP3    H234341   2.923   4.357   6.181 -0.7875 -1.9584 -3.1427
11462TIP3   OH234342   0.920   1.395   2.820 -0.3237  0.1613  0.2126
11462TIP3    H134343   1.012   1.391   2.847 -0.5330 -0.2587  0.8818
11462TIP3    H234344   0.924   1.405   2.725  0.4115 -0.2959  0.1856
11463TIP3   OH234345   8.123   4.465   6.638 -0.3464  0.4129 -0.0461
11463TIP3    H134346   8.090   4.407   6.706 -1.9818  0.5108 -0.7077
11463TIP3    H234347   8.059   4.536   6.634  1.1877  1.8773  0.2108
11464TIP3   OH234348   0.744   5.769   0.749 -0.1988 -0.4272 -0.1056
11464TIP3    H134349   0.767   5.842   0.693 -0.5944 -0.2456 -0.0373
11464TIP3    H234350   0.786   5.787   0.833 -0.0507 -0.4288 -0.1804
11465TIP3   OH234351   3.297   7.648   3.031 -0.4462 -0.2549  1.0318
11465TIP3    H134352   3.365   7.644   3.098  0.0267 -0.3570  0.5522
11465TIP3    H234353   3.218   7.673   3.079 -0.3511 -1.3531  1.7969
11466TIP3   OH234354   4.085   3.984   1.601  0.1771 -0.0356 -0.2726
11466TIP3    H134355   4.169   3.960   1.563  0.0791 -1.3764  0.2697
11466TIP3    H234356   4.029   4.005   1.526  1.0416  1.0564 -0.6181
11467TIP3   OH234357   4.882   2.284   0.283 -0.1067  0.1032 -0.3004
11467TIP3    H134358   4.835   2.203   0.265 -0.5671 -0.2058  1.9702
11467TIP3    H234359   4.966   2.273   0.239 -0.8249 -0.8383 -1.4915
11468TIP3   OH234360   8.184   2.370   5.976  0.0403  0.0624  0.0482
11468TIP3    H134361   8.269   2.343   5.942  0.4603 -0.7414  1.6684
11468TIP3    H234362   8.177   2.463   5.952  1.1064 -0.0047 -0.5765
11469TIP3   OH234363   3.849   3.684   1.055  0.0651  0.2708  0.5549
11469TIP3    H134364   3.937   3.659   1.084  0.6789  2.0856  0.3726
11469TIP3    H234365   3.790   3.634   1.111  1.1391 -2.4416 -0.5476
11470TIP3   OH234366   0.870   4.161   0.420  0.7472 -0.4672  0.6005
11470TIP3    H134367   0.806   4.193   0.484 -0.2335 -0.7026 -0.2403
11470TIP3    H234368   0.848   4.069   0.409 -1.8573  0.3727 -3.0939
11471TIP3   OH234369   7.097   1.716   3.879  0.1880 -0.3003  0.3119
11471TIP3    H134370   7.164   1.769   3.836  0.3842 -1.5324 -0.9802
11471TIP3    H234371   7.083   1.642   3.819 -2.9988  0.3626  0.0860
11472TIP3   OH234372   0.584   0.557   1.870 -0.3369  0.1895 -0.1280
11472TIP3    H134373   0.583   0.602   1.955 -1.2338 -0.1192  0.0300
11472TIP3    H234374   0.665   0.506   1.872 -0.2020  0.4131  0.4224
11473TIP3   OH234375   6.008   2.812   3.692  0.4751  0.7045  0.4791
11473TIP3    H134376   6.007   2.763   3.774 -1.2797  0.4110  0.3213
11473TIP3    H234377   6.082   2.776   3.643  0.7825  0.0220  1.4171
11474TIP3   OH234378   3.663   1.262   6.518 -0.3338  0.0832 -0.3840
11474TIP3    H134379   3.652   1.167   6.521 -1.5705  0.2486  1.7326
11474TIP3    H234380   3.757   1.276   6.531  0.2238 -0.8614 -2.8503
11475TIP3   OH234381   2.544   5.590   5.741 -0.4787  0.3637  0.3000
11475TIP3    H134382   2.521   5.561   5.653  0.7105 -1.5574  0.5421
11475TIP3    H234383   2.531   5.512   5.796  0.6792  0.9410  1.4532
11476TIP3   OH234384   2.794   2.311   1.486  0.2083 -0.0593  0.2997
11476TIP3    H134385   2.842   2.389   1.456  0.2977 -0.3446 -0.3255
11476TIP3    H234386   2.726   2.299   1.420  0.0736 -0.3962  0.5028
11477TIP3   OH234387   1.560   7.404   2.701 -0.3554  0.1363 -0.4911
11477TIP3    H134388   1.526   7.453   2.775  1.0352  0.8774 -0.2985
11477TIP3    H234389   1.497   7.419   2.631 -0.9195  0.6517  0.1146
11478TIP3   OH234390   6.620   1.862   4.722 -0.2138 -0.3457 -0.1452
11478TIP3    H134391   6.612   1.865   4.626  0.4243  0.3504 -0.1905
11478TIP3    H234392   6.708   1.828   4.738  0.4335  1.3379  0.1393
11479TIP3   OH234393   0.882   0.003   5.424  0.0873 -0.2241 -0.2513
11479TIP3    H134394   0.975   0.009   5.400  0.3389 -1.9362  0.1482
11479TIP3    H234395   0.873   0.063   5.498  0.7142  0.4938 -0.7468
11480TIP3   OH234396   7.825   0.692   2.175 -0.1116  0.1732 -0.3479
11480TIP3    H134397   7.822   0.665   2.084  0.1058 -1.6195  0.1412
11480TIP3    H234398   7.767   0.768   2.180  0.0103  0.3895 -1.9941
11481TIP3   OH234399   2.086   4.377   1.879 -0.4053 -0.2097  0.3413
11481TIP3    H134400   2.111   4.416   1.963 -0.0709 -0.6715  0.4588
11481TIP3    H234401   2.103   4.284   1.890 -0.6784 -0.3167 -0.1269
11482TIP3   OH234402   3.421   6.763   1.847  0.6302  0.7814 -0.2755
11482TIP3    H134403   3.489   6.746   1.781  1.0156 -0.9932  0.5272
11482TIP3    H234404   3.464   6.818   1.912  0.9792  0.5065 -0.2755
11483TIP3   OH234405   1.896   1.725   0.763 -0.2570  0.0284 -0.5815
11483TIP3    H134406   1.830   1.787   0.733  0.6040 -0.0023 -2.6583
11483TIP3    H234407   1.933   1.766   0.841 -1.2092  1.0748 -0.6546
11484TIP3   OH234408   2.057   7.007   3.428  0.3532  0.1358 -0.3563
11484TIP3    H134409   2.070   7.053   3.344  0.7509  0.4669 -0.1197
11484TIP3    H234410   2.123   6.938   3.428  0.9150  0.6589  0.0402
11485TIP3   OH234411   6.757   6.929   6.576  0.1708 -0.0685  0.0813
11485TIP3    H134412   6.724   6.998   6.518  0.2118 -0.6952 -0.7008
11485TIP3    H234413   6.678   6.882   6.603  0.3360 -1.5329 -1.7450
11486TIP3   OH234414   7.045   4.962   2.458  0.1710  0.6009  0.1681
11486TIP3    H134415   7.048   4.909   2.378 -0.5438  0.5358  0.1822
11486TIP3    H234416   6.959   4.945   2.495 -0.0645  1.7659  0.1846
11487TIP3   OH234417   6.530   6.129   3.338  0.2097  0.6970  0.2305
11487TIP3    H134418   6.439   6.101   3.327  0.0813  1.0640  0.3430
11487TIP3    H234419   6.532   6.217   3.299  0.5572  0.6176  0.0682
11488TIP3   OH234420   6.881   4.037   4.257  0.5966  0.7808  0.0074
11488TIP3    H134421   6.974   4.054   4.247  1.0746 -1.2685  0.4889
11488TIP3    H234422   6.872   3.942   4.247 -1.2926  0.7937  0.9592
11489TIP3   OH234423   1.137   7.434   4.437 -0.1603  0.1114  0.0705
11489TIP3    H134424   1.059   7.468   4.482  1.2662  1.4907  1.6159
11489TIP3    H234425   1.204   7.429   4.505  1.1515 -1.0059 -1.2306
11490TIP3   OH234426   3.773   1.856   5.740  0.3315 -0.0691  0.3989
11490TIP3    H134427   3.772   1.946   5.706 -1.7865 -0.7640 -1.5995
11490TIP3    H234428   3.686   1.843   5.777  0.3724 -1.5392  0.0403
11491TIP3   OH234429   4.048   5.230   1.041  0.5718  0.1747 -0.3453
11491TIP3    H134430   4.006   5.315   1.058  0.5514  0.1323 -0.1735
11491TIP3    H234431   3.982   5.179   0.995 -0.1784 -0.4528  1.3355
11492TIP3   OH234432   5.025   3.106   3.940 -0.2643 -0.0898 -0.4686
11492TIP3    H134433   5.006   3.055   4.019 -0.3852  1.5379  0.6011
11492TIP3    H234434   5.112   3.078   3.913 -0.2745 -0.7562  0.1694
11493TIP3   OH234435   6.945   3.817   0.289 -0.3321 -0.3763 -0.0599
11493TIP3    H134436   6.902   3.756   0.350  1.5237 -2.0811 -0.3688
11493TIP3    H234437   6.962   3.764   0.211 -0.2652  1.0552 -1.0490
11494TIP3   OH234438   5.196   1.017   2.967  0.1326  0.1854 -0.4360
11494TIP3    H134439   5.141   0.939   2.977 -0.4799  0.8750  2.7998
11494TIP3    H234440   5.143   1.077   2.915 -0.8762 -0.3110 -0.0142
11495TIP3   OH234441   0.671   1.504   3.201  0.2134  0.0778  0.5197
11495TIP3    H134442   0.637   1.530   3.115 -1.1470 -0.1148  0.9829
11495TIP3    H234443   0.681   1.409   3.196  0.9222  0.1544  0.3173
11496TIP3   OH234444   4.172   4.439   3.654  0.7349 -0.1198 -0.0723
11496TIP3    H134445   4.077   4.427   3.654  0.1606  3.3569 -0.5361
11496TIP3    H234446   4.187   4.513   3.713  3.0624  0.0422 -0.7430
11497TIP3   OH234447   3.564   5.367   3.680 -0.0607 -0.0210 -0.2399
11497TIP3    H134448   3.621   5.324   3.743 -1.1815 -0.9962  0.1537
11497TIP3    H234449   3.492   5.305   3.667 -1.4478  1.4763 -0.0984
11498TIP3   OH234450   0.914   0.627   2.643 -0.2154 -0.0944  0.6966
11498TIP3    H134451   0.883   0.711   2.677  2.1220  0.4332  1.7188
11498TIP3    H234452   0.916   0.639   2.548  0.9080  1.3531  0.8687
11499TIP3   OH234453   5.123   5.986   4.804  0.8576  0.2301 -0.3065
11499TIP3    H134454   5.062   5.957   4.873  0.3923  0.4457 -0.6237
11499TIP3    H234455   5.202   5.933   4.819 -0.3079 -1.9875 -1.4733
11500TIP3   OH234456   3.532   5.693   2.194  0.1540 -0.4245  0.3263
11500TIP3    H134457   3.489   5.618   2.152  1.3509 -0.7753 -0.2871
11500TIP3    H234458   3.625   5.683   2.174  0.6464 -0.0628  2.2298
11501TIP3   OH234459   0.430   5.266   6.064 -0.0366 -0.0587  0.2151
11501TIP3    H134460   0.374   5.315   6.124  0.8041 -0.5398  1.4517
11501TIP3    H234461   0.376   5.248   5.988 -0.6521  1.9749  0.1267
11502TIP3   OH234462   6.066   3.557   4.672 -0.4144 -1.1005 -0.2657
11502TIP3    H134463   6.062   3.569   4.767  3.4439 -0.9551  0.0310
11502TIP3    H234464   6.066   3.646   4.636 -0.8355 -1.1294 -0.3446
11503TIP3   OH234465   6.388   3.452   0.173 -0.2203 -0.3364 -0.0455
11503TIP3    H134466   6.306   3.473   0.218  0.4068  0.6334  0.6883
11503TIP3    H234467   6.360   3.422   0.086 -1.2851  1.6120 -0.4279
11504TIP3   OH234468   3.678   4.187   3.674  0.0584 -0.0027 -0.1098
11504TIP3    H134469   3.647   4.144   3.594  1.0963 -0.3592 -0.3323
11504TIP3    H234470   3.601   4.233   3.707 -1.0510 -1.8527  0.0376
11505TIP3   OH234471   4.028   2.608   1.802  0.0692 -0.2636 -0.1918
11505TIP3    H134472   3.984   2.660   1.869  1.8622  1.1917 -0.0704
11505TIP3    H234473   4.002   2.518   1.821 -0.9199  0.2987  1.3267
11506TIP3   OH234474   5.948   3.034   5.932 -0.4334 -0.4839 -0.0473
11506TIP3    H134475   6.001   3.026   5.853 -1.4096 -0.5727 -0.7139
11506TIP3    H234476   5.858   3.037   5.900 -0.9816 -2.3855  1.1462
11507TIP3   OH234477   2.135   2.304   0.788  0.3079  0.4262 -0.2078
11507TIP3    H134478   2.155   2.392   0.755 -0.0525 -0.0072 -1.6237
11507TIP3    H234479   2.104   2.256   0.712  1.8913 -1.3886  0.2282
11508TIP3   OH234480   7.450   1.604   1.250 -0.0441  0.2616 -0.1192
11508TIP3    H134481   7.380   1.588   1.314 -1.1961  3.5738 -0.3507
11508TIP3    H234482   7.406   1.601   1.166 -0.0123  2.4088 -0.2681
11509TIP3   OH234483   5.597   5.428   5.232  0.2351 -0.0260  0.1388
11509TIP3    H134484   5.557   5.513   5.251 -1.6202 -0.8260  0.0467
11509TIP3    H234485   5.523   5.369   5.224  1.2948 -1.1197 -2.6955
11510TIP3   OH234486   6.068   6.236   3.113  0.1992  0.9082 -0.6668
11510TIP3    H134487   6.047   6.304   3.049  1.6233  0.8527 -1.2348
11510TIP3    H234488   6.153   6.202   3.085 -0.2596 -0.7906 -0.1196
11511TIP3   OH234489   2.102   5.022   3.102 -0.1425  0.3216 -0.1844
11511TIP3    H134490   2.124   4.993   3.190 -0.9095  1.8155  0.5301
11511TIP3    H234491   2.115   4.944   3.047  1.2114 -0.3866  1.0809
11512TIP3   OH234492   3.700   3.862   4.477  0.2476 -0.1784 -0.2555
11512TIP3    H134493   3.719   3.954   4.499  1.8006 -0.2885 -1.0125
11512TIP3    H234494   3.664   3.825   4.558 -0.1628  1.0244  0.1363
11513TIP3   OH234495   4.767   0.427   6.271  0.5175  0.2696 -0.2246
11513TIP3    H134496   4.693   0.370   6.249  0.9685 -0.2875 -0.3224
11513TIP3    H234497   4.758   0.502   6.212  0.9669 -0.5874 -1.4154
11514TIP3   OH234498   5.130   4.499   4.946  0.4314  0.0225  0.4868
11514TIP3    H134499   5.115   4.406   4.931  1.5513  0.0629 -1.2238
11514TIP3    H234500   5.198   4.523   4.883  0.9727  1.7677  1.6451
11515TIP3   OH234501   4.075   3.472   4.519 -0.2930  0.2864  0.3658
11515TIP3    H134502   4.160   3.494   4.480 -0.1234  0.3439  0.7600
11515TIP3    H234503   4.014   3.533   4.479 -0.7545 -1.7730 -2.3164
11516TIP3   OH234504   5.932   4.355   0.483 -0.4101  0.0260 -0.0002
11516TIP3    H134505   5.956   4.394   0.399 -0.7940 -0.4658 -0.3436
11516TIP3    H234506   5.967   4.416   0.549  1.0012 -0.2076 -0.4907
11517TIP3   OH234507   4.118   5.207   5.980 -0.2427  0.2802 -0.1865
11517TIP3    H134508   4.083   5.170   6.061 -1.2991  0.7857 -0.3876
11517TIP3    H234509   4.046   5.201   5.918  0.9995 -1.4229 -1.5461
11518TIP3   OH234510   1.559   4.464   4.725  0.1359  0.2721  0.4104
11518TIP3    H134511   1.635   4.420   4.687 -0.6756  0.6708 -1.7795
11518TIP3    H234512   1.495   4.394   4.737 -0.1034  0.3690 -0.2861
11519TIP3   OH234513   5.555   3.533   2.713  0.2910 -0.0680  0.0337
11519TIP3    H134514   5.527   3.552   2.803  0.0419 -0.7208  0.1018
11519TIP3    H234515   5.524   3.607   2.662  3.1135  1.8822  0.9459
11520TIP3   OH234516   5.507   1.676   1.713 -0.0402 -0.0182 -0.3163
11520TIP3    H134517   5.600   1.672   1.733 -0.0921  0.2762 -0.0050
11520TIP3    H234518   5.503   1.701   1.620  0.2245 -2.7363 -1.1344
11521TIP3   OH234519   1.005   6.066   4.943 -0.2873  0.2169  0.2589
11521TIP3    H134520   1.052   5.986   4.968  0.3678  0.8622  1.1389
11521TIP3    H234521   0.918   6.035   4.916  0.1517 -0.8463  0.0172
11522TIP3   OH234522   2.453   4.817   0.159 -0.2375 -0.3903 -0.0826
11522TIP3    H134523   2.374   4.868   0.143 -0.5924 -1.1331 -0.8433
11522TIP3    H234524   2.514   4.877   0.201 -0.2349  0.9876 -1.9232
11523TIP3   OH234525   0.414   4.817   2.459 -0.5698  0.0378 -1.1598
11523TIP3    H134526   0.379   4.842   2.374 -1.4349  0.4018 -0.7088
11523TIP3    H234527   0.411   4.898   2.511  0.9767  0.0932 -1.1063
11524TIP3   OH234528   6.852   5.917   5.323  0.1603 -0.5417 -0.1945
11524TIP3    H134529   6.888   5.835   5.357 -0.7270 -1.1447 -0.6603
11524TIP3    H234530   6.866   5.980   5.393  0.3389 -1.2297  0.4051
11525TIP3   OH234531   6.225   4.089   3.082 -0.6174  0.3506 -0.0472
11525TIP3    H134532   6.192   4.176   3.060 -1.2972 -0.0283 -0.5499
11525TIP3    H234533   6.151   4.045   3.122 -0.6183 -0.3825 -0.8364
11526TIP3   OH234534   5.541   2.137   3.227  0.0800  0.2972  0.8016
11526TIP3    H134535   5.506   2.050   3.243  1.7503 -0.8743 -1.4097
11526TIP3    H234536   5.603   2.152   3.299 -1.9561  0.7897  2.5701
11527TIP3   OH234537   3.310   0.287   2.300  0.5991  0.7273  0.0336
11527TIP3    H134538   3.349   0.337   2.228  0.9378 -0.0425 -0.3348
11527TIP3    H234539   3.283   0.204   2.260 -0.3015  0.7601  0.5476
11528TIP3   OH234540   0.972   6.834   1.919 -0.0956  0.3927 -0.3377
11528TIP3    H134541   0.895   6.780   1.898  0.6749 -1.6297  1.5744
11528TIP3    H234542   1.045   6.789   1.877  0.3723  0.8198  0.0034
11529TIP3   OH234543   4.852   1.783   3.307 -0.0700 -0.1720  0.2819
11529TIP3    H134544   4.925   1.825   3.262  1.0273 -0.7081  1.5094
11529TIP3    H234545   4.860   1.690   3.285 -0.8175 -0.1509 -0.1342
11530TIP3   OH234546   6.127   4.047   5.752 -0.7239 -0.3754  0.5912
11530TIP3    H134547   6.181   3.982   5.708 -3.2498 -1.2143 -1.5370
11530TIP3    H234548   6.188   4.097   5.806  1.8241 -2.3436 -0.2893
11531TIP3   OH234549   7.901   1.466   0.276  0.3683 -0.0276  0.1263
11531TIP3    H134550   7.815   1.488   0.312  0.2152 -1.3728  0.6467
11531TIP3    H234551   7.930   1.392   0.329  2.5166  1.3200  0.9386
11532TIP3   OH234552   1.363   7.511   4.164 -0.3450 -0.1770 -0.3484
11532TIP3    H134553   1.363   7.451   4.090 -0.8518  0.1734 -0.6335
11532TIP3    H234554   1.283   7.563   4.154 -2.1662 -2.2383  2.1521
11533TIP3   OH234555   2.415   6.335   5.215  0.2835  0.3862  0.0180
11533TIP3    H134556   2.406   6.320   5.309 -0.9470  0.4030 -0.0786
11533TIP3    H234557   2.508   6.324   5.197  0.2064 -2.1337  0.8188
11534TIP3   OH234558   3.477   3.057   2.635 -0.1038  0.0483  0.5877
11534TIP3    H134559   3.468   2.973   2.681 -2.1965 -0.2242 -0.2030
11534TIP3    H234560   3.496   3.033   2.544  0.0089  0.4585  0.5014
11535TIP3   OH234561   8.095   0.628   6.627 -0.0474  0.8528  0.5499
11535TIP3    H134562   8.187   0.604   6.635 -0.6913 -1.6200  1.1763
11535TIP3    H234563   8.066   0.584   6.547 -1.7193 -2.2472  2.6841
11536TIP3   OH234564   1.175   7.321   0.340 -0.0118 -0.0816 -0.6274
11536TIP3    H134565   1.219   7.361   0.415 -0.0910  1.2017 -1.2512
11536TIP3    H234566   1.141   7.394   0.289 -0.8752 -0.9725 -1.3777
11537TIP3   OH234567   7.917   2.478   3.165  0.2512 -0.6797 -0.2969
11537TIP3    H134568   7.937   2.449   3.076  0.3602 -2.0688  0.1531
11537TIP3    H234569   7.837   2.432   3.187  0.6216 -0.9190  0.5811
11538TIP3   OH234570   1.892   7.563   3.822 -0.2275 -0.0422  0.4708
11538TIP3    H134571   1.880   7.493   3.758 -0.2901 -1.2011  1.7078
11538TIP3    H234572   1.958   7.620   3.783  0.3426 -1.1743 -0.2646
11539TIP3   OH234573   3.922   3.969   1.373 -0.4915 -0.2136  0.2343
11539TIP3    H134574   3.898   3.966   1.280  0.5898 -0.4459 -0.0508
11539TIP3    H234575   3.864   4.036   1.410  0.7689  1.7784 -1.1612
11540TIP3   OH234576   7.440   2.865   4.940  0.1700 -0.3399  0.4300
11540TIP3    H134577   7.494   2.788   4.957 -0.1381 -0.4563  0.9365
11540TIP3    H234578   7.501   2.938   4.937  0.2653 -0.3132  2.1056
11541TIP3   OH234579   7.976   5.050   2.726 -0.4230  0.5467  0.2582
11541TIP3    H134580   8.070   5.035   2.739 -0.7401 -1.5421  0.5907
11541TIP3    H234581   7.956   5.005   2.644 -1.2817  0.2235  0.6385
11542TIP3   OH234582   0.574   1.870   3.004  0.3628  0.9171 -0.2487
11542TIP3    H134583   0.626   1.844   3.080 -0.1200  0.7951  0.0467
11542TIP3    H234584   0.578   1.966   3.004  1.3704  0.8804 -0.7885
11543TIP3   OH234585   0.648   4.963   6.373 -0.2193 -0.3133 -0.1676
11543TIP3    H134586   0.562   4.931   6.398  0.1698  0.0293  1.7939
11543TIP3    H234587   0.636   4.998   6.284 -2.0943 -0.2411  0.0754
11544TIP3   OH234588   6.599   7.050   2.059  0.1912  0.1231  0.0204
11544TIP3    H134589   6.543   6.987   2.104 -0.5670 -0.9367 -2.2945
11544TIP3    H234590   6.574   7.045   1.967  1.4457  2.4351 -0.5475
11545TIP3   OH234591   7.460   2.917   3.667  0.2712  0.0920  0.6154
11545TIP3    H134592   7.498   2.847   3.615 -0.6042 -0.8944  1.2498
11545TIP3    H234593   7.534   2.975   3.687  1.2480 -1.2349  0.9951
11546TIP3   OH234594   2.848   0.066   5.397 -0.3736 -0.4921 -0.5782
11546TIP3    H134595   2.924   0.108   5.437 -0.7806  0.4405 -0.7473
11546TIP3    H234596   2.787   0.139   5.380 -1.2579 -1.2045 -0.5368
11547TIP3   OH234597   7.486   4.794   0.645  0.2708 -0.1186 -0.3318
11547TIP3    H134598   7.480   4.868   0.706 -1.5444 -1.2506  0.9747
11547TIP3    H234599   7.427   4.817   0.573 -0.7833 -0.5144  0.3773
11548TIP3   OH234600   2.195   6.828   0.764  0.0032  0.4351 -0.2456
11548TIP3    H134601   2.122   6.766   0.770  0.1278  0.3162  0.0565
11548TIP3    H234602   2.252   6.793   0.695  0.0704  0.2182 -0.0791
11549TIP3   OH234603   1.331   7.778   5.784 -0.0774 -0.4146  0.4940
11549TIP3    H134604   1.286   7.807   5.705  1.6285  0.1066 -0.3291
11549TIP3    H234605   1.307   7.843   5.851  1.4813  1.3737 -0.6054
11550TIP3   OH234606   3.318   2.133   6.215 -0.3589 -0.0336  0.0996
11550TIP3    H134607   3.335   2.054   6.266 -0.3270 -0.6081 -0.7719
11550TIP3    H234608   3.333   2.106   6.124 -0.2750  0.9974 -0.2060
11551TIP3   OH234609   2.359   4.325   4.117  0.2531  0.1121  0.7223
11551TIP3    H134610   2.338   4.309   4.025  0.6397  0.4465  0.5732
11551TIP3    H234611   2.397   4.413   4.118  0.8592 -0.1478  1.1048
11552TIP3   OH234612   7.755   6.295   2.530 -0.2716  0.4736 -0.6694
11552TIP3    H134613   7.838   6.344   2.527 -0.2252  0.5793  1.2511
11552TIP3    H234614   7.705   6.337   2.601 -0.7367 -1.4494  0.1993
11553TIP3   OH234615   4.992   1.556   2.138  0.8233 -0.1205 -0.6951
11553TIP3    H134616   4.917   1.548   2.198 -0.1265 -0.7733 -1.9209
11553TIP3    H234617   5.043   1.477   2.152  0.6426 -0.2385 -0.6984
11554TIP3   OH234618   6.171   2.120   2.014 -0.0953 -0.4130 -0.5907
11554TIP3    H134619   6.103   2.116   1.946  0.2517 -0.5431 -0.9303
11554TIP3    H234620   6.128   2.087   2.093  0.0251 -2.0129 -1.1611
11555TIP3   OH234621   7.306   2.115   6.621  0.3504 -0.0540  0.2835
11555TIP3    H134622   7.257   2.099   6.541  0.7518 -0.7627  0.1658
11555TIP3    H234623   7.239   2.117   6.690  0.2376 -3.3125  0.4569
11556TIP3   OH234624   5.709   5.816   3.054 -0.4224 -0.5125  0.3529
11556TIP3    H134625   5.643   5.870   3.011  0.1887  0.2011  0.2826
11556TIP3    H234626   5.792   5.843   3.013 -0.0773 -1.3383  0.4869
11557TIP3   OH234627   5.243   1.295   0.561 -0.2360 -0.3660 -0.0739
11557TIP3    H134628   5.287   1.219   0.597 -0.0805  0.3006  1.1793
11557TIP3    H234629   5.297   1.322   0.486  0.8634 -0.2256  0.7609
11558TIP3   OH234630   2.112   5.701   6.235 -0.2961  0.0922  0.0353
11558TIP3    H134631   2.038   5.652   6.272  0.3806 -0.6065  0.4781
11558TIP3    H234632   2.187   5.675   6.288  0.3333  0.5652 -0.6079
11559TIP3   OH234633   0.275   1.197   0.164 -0.2878  0.2999 -0.3525
11559TIP3    H134634   0.353   1.176   0.112  0.9056 -2.5625  2.2887
11559TIP3    H234635   0.202   1.190   0.102  1.2489 -0.2009 -2.1968
11560TIP3   OH234636   3.293   2.638   2.838 -0.6375  0.2379 -0.6011
11560TIP3    H134637   3.329   2.725   2.819  1.0048  0.2486  2.0709
11560TIP3    H234638   3.201   2.654   2.859 -0.1819  1.5149  0.6053
11561TIP3   OH234639   6.512   3.453   2.179 -0.5653 -0.9738 -0.2463
11561TIP3    H134640   6.580   3.408   2.229  1.6588  1.3061 -0.9810
11561TIP3    H234641   6.538   3.440   2.088 -1.9012 -1.1561 -0.6146
11562TIP3   OH234642   0.910   6.476   2.602  0.2376 -0.6018 -0.0385
11562TIP3    H134643   0.857   6.556   2.600  0.3489 -0.5353 -0.3274
11562TIP3    H234644   0.947   6.468   2.514  1.1345 -0.3583  0.2981
11563TIP3   OH234645   4.716   2.041   0.732  0.6222 -0.6973  0.1532
11563TIP3    H134646   4.763   1.964   0.703  1.1125 -0.1685 -0.4858
11563TIP3    H234647   4.740   2.109   0.669  0.7580  0.1616  1.1030
11564TIP3   OH234648   2.108   6.119   3.935 -0.3286 -0.3139 -0.2748
11564TIP3    H134649   2.042   6.085   3.995  1.2227 -1.4257  0.8994
11564TIP3    H234650   2.178   6.053   3.937  0.8143  0.7998 -1.4725
11565TIP3   OH234651   0.051   7.763   6.699  0.0807 -0.2469  0.2407
11565TIP3    H134652   0.073   7.757   6.606  0.4674 -0.0136  0.3155
11565TIP3    H234653   0.017   7.676   6.721 -0.4871 -0.1520 -0.2360
11566TIP3   OH234654   3.513   4.469   0.655  0.4358  0.5532 -0.3109
11566TIP3    H134655   3.490   4.561   0.637  0.3208  0.9055  1.4633
11566TIP3    H234656   3.592   4.474   0.708  0.5305 -0.3942 -0.3491
11567TIP3   OH234657   5.334   3.472   5.494  0.3515 -0.7662  0.2964
11567TIP3    H134658   5.241   3.447   5.498  0.1454  0.0469  0.6784
11567TIP3    H234659   5.356   3.464   5.401 -0.5080  0.4384 -0.0386
11568TIP3   OH234660   1.730   2.008   5.066 -0.4389  0.0301  0.2557
11568TIP3    H134661   1.768   2.045   5.145  0.4426 -1.3447  0.5160
11568TIP3    H234662   1.677   1.935   5.097  0.7656 -1.2035 -0.4377
11569TIP3   OH234663   5.056   6.922   3.631  0.1563  0.8393 -0.1653
11569TIP3    H134664   5.142   6.883   3.649 -0.0630  0.7791  0.8004
11569TIP3    H234665   5.058   7.006   3.676 -0.9804  0.0097  1.5509
11570TIP3   OH234666   2.800   1.856   3.761 -0.7321  0.2939  0.2067
11570TIP3    H134667   2.776   1.822   3.674  0.2456 -0.1422  0.0978
11570TIP3    H234668   2.847   1.937   3.743 -2.3683  1.3313  0.4368
11571TIP3   OH234669   0.072   2.124   1.962  0.4485 -0.3047 -0.2684
11571TIP3    H134670   0.095   2.208   1.920  1.0013 -0.2208  0.1921
11571TIP3    H234671  -0.018   2.136   1.992  0.2835 -0.1218 -0.8195
11572TIP3   OH234672   6.352   2.977   3.034  0.4984  0.2031  0.5709
11572TIP3    H134673   6.425   2.919   3.052  1.0602  0.6382 -0.2278
11572TIP3    H234674   6.274   2.921   3.039  1.0882 -0.8297 -1.0266
11573TIP3   OH234675   7.598   4.039   4.933 -0.4022  0.4715  0.2533
11573TIP3    H134676   7.577   3.984   5.008 -0.6980  0.1194 -0.0786
11573TIP3    H234677   7.664   3.988   4.885 -0.0620  0.7882  0.3840
11574TIP3   OH234678   5.897   2.884   0.092 -0.7103 -0.0732 -0.1111
11574TIP3    H134679   5.825   2.945   0.079 -0.5668 -0.0871 -0.9725
11574TIP3    H234680   5.855   2.805   0.125 -0.8205  0.7217  1.8216
11575TIP3   OH234681   4.984   4.701   4.093  0.1965  0.6093 -0.0542
11575TIP3    H134682   5.078   4.694   4.079  0.2659  1.2956  0.0521
11575TIP3    H234683   4.973   4.781   4.145 -0.3099 -0.2908  1.2711
11576TIP3   OH234684   6.781   6.670   1.463 -0.2354 -0.4817  0.0531
11576TIP3    H134685   6.828   6.614   1.401 -1.3619 -0.6373 -0.6868
11576TIP3    H234686   6.797   6.630   1.549  0.1794 -1.0731 -0.2943
11577TIP3   OH234687   1.601   4.102   5.782 -0.3338  0.0528  0.6487
11577TIP3    H134688   1.690   4.070   5.763 -0.6856  0.0273 -1.0824
11577TIP3    H234689   1.547   4.064   5.713 -1.6751  0.2255  1.5741
11578TIP3   OH234690   0.679   5.542   1.561 -0.3868  0.0815 -0.0364
11578TIP3    H134691   0.684   5.483   1.486  1.6100 -1.3176  1.1171
11578TIP3    H234692   0.750   5.605   1.547  0.1808 -0.3613  0.7991
11579TIP3   OH234693   7.738   7.448   2.661 -0.3142  0.5683 -0.5279
11579TIP3    H134694   7.694   7.429   2.578  0.2189  1.2839 -0.9878
11579TIP3    H234695   7.768   7.538   2.653  0.9182  0.2321 -0.0916
11580TIP3   OH234696   4.195   3.563   6.011  0.2596 -0.2431  0.0404
11580TIP3    H134697   4.283   3.601   6.014 -1.0450  3.3672 -1.5905
11580TIP3    H234698   4.166   3.579   5.921 -2.3845 -0.5119  0.7793
11581TIP3   OH234699   4.961   6.796   6.725  0.4826  0.1483  0.3305
11581TIP3    H134700   4.936   6.811   6.816  0.4996 -2.2491  0.7974
11581TIP3    H234701   4.896   6.845   6.674 -0.3122  0.4699  1.6042
11582TIP3   OH234702   3.357   1.153   6.483 -0.3919 -0.0221 -0.3901
11582TIP3    H134703   3.437   1.104   6.468 -1.2363 -0.9628 -2.1425
11582TIP3    H234704   3.298   1.126   6.413 -1.4669  2.3387 -0.5193
11583TIP3   OH234705   0.503   0.110   3.306 -0.2437 -0.4901  0.1450
11583TIP3    H134706   0.490   0.173   3.377  1.1203  0.0325 -0.0330
11583TIP3    H234707   0.471   0.154   3.228 -0.5655 -0.5675  0.2313
11584TIP3   OH234708   0.792   3.613   2.540  0.3024 -0.6137  0.1033
11584TIP3    H134709   0.823   3.636   2.453  1.1242  0.3041  0.6194
11584TIP3    H234710   0.755   3.694   2.575 -0.1668 -1.0116  0.5548
11585TIP3   OH234711   7.635   7.186   6.295 -0.2347 -0.3598 -0.4399
11585TIP3    H134712   7.648   7.200   6.201  2.9385  0.4363  0.0138
11585TIP3    H234713   7.674   7.100   6.312 -1.0606 -0.6357  0.1345
11586TIP3   OH234714   7.970   7.131   2.284 -0.5443 -0.0504  0.3172
11586TIP3    H134715   7.928   7.202   2.333  0.3906  0.4993  0.3494
11586TIP3    H234716   8.041   7.102   2.341 -1.4072 -1.5702  0.6535
11587TIP3   OH234717   0.217   6.975   1.844 -0.2816 -0.1874  0.0446
11587TIP3    H134718   0.157   6.949   1.774 -0.1679 -0.5119  0.0662
11587TIP3    H234719   0.263   6.894   1.868 -0.1092 -0.0186  0.2911
11588TIP3   OH234720   7.624   4.759   2.721  0.3397  0.4251 -0.7164
11588TIP3    H134721   7.555   4.697   2.746 -0.6364  0.7048 -2.5338
11588TIP3    H234722   7.602   4.839   2.770 -0.6272  0.4807 -1.1950
11589TIP3   OH234723   6.556   6.898   1.186 -0.3091 -0.2538  0.0662
11589TIP3    H134724   6.642   6.929   1.157  0.6854 -0.5833  2.3845
11589TIP3    H234725   6.508   6.977   1.209 -0.0982 -0.1332  0.0908
11590TIP3   OH234726   7.966   0.695   0.216 -0.2525  0.2085 -0.5358
11590TIP3    H134727   8.020   0.773   0.222 -1.1932  0.8366  0.0084
11590TIP3    H234728   7.965   0.660   0.305  1.7154 -1.5399 -1.1123
11591TIP3   OH234729   3.535   0.886   5.332  0.2744 -0.1025 -0.8561
11591TIP3    H134730   3.495   0.803   5.356 -0.6266  0.5423 -0.0601
11591TIP3    H234731   3.503   0.904   5.243 -0.4837 -0.0302 -0.5711
11592TIP3   OH234732   3.820   5.132   1.923 -0.1598 -0.0682  0.4669
11592TIP3    H134733   3.748   5.075   1.950 -0.1299 -0.2427  0.1828
11592TIP3    H234734   3.783   5.185   1.852 -0.3521  0.6558  1.0939
11593TIP3   OH234735   3.827   1.201   1.048 -0.5194 -0.1196  0.5427
11593TIP3    H134736   3.857   1.161   1.130  0.1843 -0.5372  0.0925
11593TIP3    H234737   3.875   1.284   1.044 -0.7582  0.0270  0.6808
11594TIP3   OH234738   0.859   7.642   4.260  0.5166  0.3252 -0.6006
11594TIP3    H134739   0.945   7.633   4.219  0.3876 -1.2081 -0.5983
11594TIP3    H234740   0.805   7.686   4.195  1.1652  0.8305 -0.7992
11595TIP3   OH234741   1.564   4.604   4.988  0.1817 -0.6945  0.6448
11595TIP3    H134742   1.528   4.547   4.920 -1.3865  0.5241  0.4095
11595TIP3    H234743   1.513   4.583   5.066  2.1029 -2.2238  1.5667
11596TIP3   OH234744   5.583   1.880   2.686 -0.5103  0.2694 -0.1517
11596TIP3    H134745   5.667   1.917   2.714 -0.8418  0.7441  0.2414
11596TIP3    H234746   5.538   1.953   2.643 -0.5232 -0.1186 -0.7938
11597TIP3   OH234747   6.148   4.553   0.681 -0.0078  0.0586 -0.3220
11597TIP3    H134748   6.113   4.611   0.614 -0.4749 -0.6521 -0.7050
11597TIP3    H234749   6.242   4.552   0.666 -0.2962 -1.7592 -2.3407
11598TIP3   OH234750   2.608   3.047   5.460  0.2886 -0.2617 -0.3987
11598TIP3    H134751   2.640   3.137   5.450  1.1802 -0.5283 -0.0243
11598TIP3    H234752   2.612   3.010   5.372  0.1421 -0.0101 -0.5123
11599TIP3   OH234753   1.602   2.766   0.473 -0.0341 -0.1843 -0.3017
11599TIP3    H134754   1.542   2.840   0.484 -0.0994 -0.1989 -0.5529
11599TIP3    H234755   1.551   2.689   0.500 -0.3594 -0.2822 -1.1513
11600TIP3   OH234756   6.426   5.044   5.433  0.6397  0.3444 -0.3876
11600TIP3    H134757   6.373   4.967   5.409  0.0779  0.1638  1.3073
11600TIP3    H234758   6.499   5.008   5.483  2.2836  0.6308 -2.4517
11601TIP3   OH234759   5.320   0.033   5.528  0.2021 -0.5951  0.4343
11601TIP3    H134760   5.258   0.052   5.458  0.0742 -3.4438 -0.3844
11601TIP3    H234761   5.266   0.016   5.605  0.2926  1.5568  1.0292
11602TIP3   OH234762   5.562   1.371   2.789 -0.4121  0.1325  0.4374
11602TIP3    H134763   5.582   1.432   2.718 -0.5078 -0.2534  0.0727
11602TIP3    H234764   5.621   1.396   2.860  0.2900 -0.0117 -0.0797
11603TIP3   OH234765   4.384   6.325   5.639 -0.6121 -0.0178  0.0168
11603TIP3    H134766   4.421   6.253   5.690  0.6705 -1.3065 -2.5550
11603TIP3    H234767   4.293   6.300   5.623 -0.9484  0.2658  1.3000
11604TIP3   OH234768   0.160   6.163   3.694  0.5671 -0.1374  0.3557
11604TIP3    H134769   0.164   6.206   3.608 -1.9998  0.2996  0.3766
11604TIP3    H234770   0.110   6.083   3.678  1.0475 -0.6297  1.2483
11605TIP3   OH234771   6.899   4.388   4.178 -0.2133 -0.0244 -0.1281
11605TIP3    H134772   6.952   4.309   4.187 -1.4350 -1.1404 -1.9977
11605TIP3    H234773   6.897   4.404   4.083  0.7764  2.8375  0.2379
11606TIP3   OH234774   6.251   3.808   0.387  0.5700  0.5571 -0.3492
11606TIP3    H134775   6.237   3.717   0.413 -1.6770  0.2723 -2.2643
11606TIP3    H234776   6.173   3.854   0.415  0.9754  1.5604 -0.8060
11607TIP3   OH234777   4.222   1.282   2.285 -0.6160  0.2001  0.1358
11607TIP3    H134778   4.242   1.221   2.356 -0.4529 -0.8012 -0.7364
11607TIP3    H234779   4.255   1.366   2.316 -2.3442  0.2341  2.0835
11608TIP3   OH234780   2.792   3.293   0.121 -0.2178 -0.1838  0.2765
11608TIP3    H134781   2.780   3.219   0.061 -0.2604  0.3166 -0.3465
11608TIP3    H234782   2.725   3.279   0.188  0.3762 -1.2032  0.6791
11609TIP3   OH234783   6.527   4.728   0.079 -0.1597 -0.2180  0.3048
11609TIP3    H134784   6.476   4.654   0.110  2.1064 -0.6662  3.4144
11609TIP3    H234785   6.592   4.689   0.020 -2.4030  0.2137 -2.7257
11610TIP3   OH234786   0.693   2.880   3.776 -0.4363 -0.7058  0.6127
11610TIP3    H134787   0.671   2.944   3.708 -3.0832 -2.2450 -0.1189
11610TIP3    H234788   0.783   2.853   3.755  0.8063  2.6555  0.9800
11611TIP3   OH234789   4.978   5.263   6.492 -0.2881 -0.5035  0.7076
11611TIP3    H134790   5.038   5.284   6.564  0.1403  0.6100  0.0504
11611TIP3    H234791   4.894   5.247   6.535  0.2484 -1.1032  1.5554
11612TIP3   OH234792   0.485   6.516   3.095 -0.6325 -0.3646 -0.3078
11612TIP3    H134793   0.537   6.526   3.015  0.4584  1.5464  0.5707
11612TIP3    H234794   0.427   6.592   3.095  0.3234  0.4205  1.3329
11613TIP3   OH234795   7.503   3.361   6.183 -0.1735  0.1750  0.2613
11613TIP3    H134796   7.544   3.280   6.214 -1.5465 -0.2047  1.1829
11613TIP3    H234797   7.518   3.360   6.088 -1.0596 -1.7203  0.0806
11614TIP3   OH234798   1.750   6.576   1.478  0.6106  0.3893 -0.2079
11614TIP3    H134799   1.768   6.498   1.426  0.1797 -0.3029  0.6629
11614TIP3    H234800   1.746   6.545   1.568 -2.1947  0.9498 -0.0591
11615TIP3   OH234801   4.021   6.897   0.285  0.0496 -0.2842  0.4644
11615TIP3    H134802   3.957   6.826   0.299  0.1723 -0.5091 -0.0879
11615TIP3    H234803   4.100   6.852   0.256  0.2785  0.0431  0.5858
11616TIP3   OH234804   4.545   3.534   1.717 -0.5594 -0.1317 -0.2751
11616TIP3    H134805   4.478   3.479   1.758 -0.9013  0.3185 -0.2206
11616TIP3    H234806   4.609   3.549   1.786 -0.7798  0.0434 -0.1056
11617TIP3   OH234807   2.520   4.856   5.595  0.3910 -0.5298 -0.1008
11617TIP3    H134808   2.470   4.877   5.516 -2.6825 -0.3818  1.7192
11617TIP3    H234809   2.490   4.920   5.660  1.8849 -1.4117  1.5505
11618TIP3   OH234810   0.168   3.913   3.812 -0.2529 -0.3779  0.6223
11618TIP3    H134811   0.144   3.911   3.720 -0.8355 -0.0789  0.7585
11618TIP3    H234812   0.231   3.985   3.819 -0.7182  0.0435  0.5643
11619TIP3   OH234813   2.919   7.083   6.577 -0.0332 -0.7206  0.2984
11619TIP3    H134814   2.967   7.114   6.654  2.3173 -1.1150 -0.9073
11619TIP3    H234815   2.957   7.131   6.504 -0.1470 -2.4364 -0.9571
11620TIP3   OH234816   7.819   3.197   6.541 -0.1570 -0.3160  0.3525
11620TIP3    H134817   7.853   3.223   6.626  3.9774 -0.7987 -0.9519
11620TIP3    H234818   7.783   3.109   6.555 -0.5383  0.0464  1.7655
11621TIP3   OH234819   5.051   2.496   3.262 -0.2468 -0.3626  1.2106
11621TIP3    H134820   5.080   2.419   3.310 -0.2412 -0.2202  1.4354
11621TIP3    H234821   5.131   2.534   3.227 -0.4627 -2.1513 -1.5010
11622TIP3   OH234822   5.567   7.561   3.380 -0.1910 -0.1196 -0.0037
11622TIP3    H134823   5.532   7.474   3.361  0.0204 -0.0720 -0.6613
11622TIP3    H234824   5.656   7.559   3.346 -0.6905  0.8386 -1.4841
11623TIP3   OH234825   4.178   7.074   6.740  0.4927  0.1551 -0.3119
11623TIP3    H134826   4.154   7.104   6.652 -0.2440  1.1352  0.2057
11623TIP3    H234827   4.269   7.101   6.751  0.3238  0.7915 -0.4520
11624TIP3   OH234828   7.593   6.959   6.533  0.4159 -0.1421 -0.0294
11624TIP3    H134829   7.549   7.008   6.602  0.6898  1.7811 -1.1477
11624TIP3    H234830   7.596   7.019   6.459  2.4730 -1.1727 -0.8742
11625TIP3   OH234831   0.518   1.379   1.211  0.2062 -0.4934 -0.1321
11625TIP3    H134832   0.599   1.386   1.260  0.6313 -0.3581 -0.8357
11625TIP3    H234833   0.486   1.469   1.203  0.2496 -0.4917 -0.2872
11626TIP3   OH234834   0.343   0.272   0.588 -0.1596 -0.6956 -0.1168
11626TIP3    H134835   0.306   0.226   0.512 -0.0800  0.8268 -1.1165
11626TIP3    H234836   0.267   0.314   0.630 -0.0256 -0.4014 -0.1656
11627TIP3   OH234837   4.269   3.311   0.547  0.1820  0.3429  0.2003
11627TIP3    H134838   4.356   3.292   0.583 -1.0449 -2.0502  2.2510
11627TIP3    H234839   4.209   3.292   0.619 -2.0674  1.9834 -1.1328
11628TIP3   OH234840   7.498   5.810   0.969  0.0077 -0.1014  0.2129
11628TIP3    H134841   7.473   5.896   1.003  0.4521 -0.0459  0.4051
11628TIP3    H234842   7.418   5.777   0.928 -0.2823  0.2224  0.5043
11629TIP3   OH234843   1.819   6.492   4.378  0.1417  0.1221  0.1137
11629TIP3    H134844   1.783   6.547   4.448 -0.8433 -0.7954  0.3533
11629TIP3    H234845   1.909   6.475   4.406 -1.0147 -2.5794  2.7177
11630TIP3   OH234846   3.870   0.057   4.687 -0.0868  0.2069  0.9741
11630TIP3    H134847   3.802   0.120   4.711 -0.9409 -0.0704 -0.5434
11630TIP3    H234848   3.827  -0.028   4.698 -0.5187  0.0631 -1.3032
11631TIP3   OH234849   2.577   4.407   2.104 -0.7154  0.0418  0.1834
11631TIP3    H134850   2.577   4.342   2.174  1.4572 -0.5758 -0.3054
11631TIP3    H234851   2.557   4.358   2.025  0.4364  0.0246 -0.1168
11632TIP3   OH234852   8.038   5.009   1.427  0.0448 -0.1614  0.0163
11632TIP3    H134853   8.061   5.064   1.352 -0.8696  0.5837  0.2668
11632TIP3    H234854   7.950   5.037   1.451 -1.3313 -3.0986 -1.1117
11633TIP3   OH234855   6.680   7.362   0.705 -0.0422  0.1712 -0.9027
11633TIP3    H134856   6.766   7.355   0.663  0.1546 -1.9478 -0.2490
11633TIP3    H234857   6.629   7.291   0.667 -1.1050  0.6081 -0.3418
11634TIP3   OH234858   5.646   2.299   6.354  0.1480 -0.1031 -0.1145
11634TIP3    H134859   5.645   2.219   6.303  0.7520 -0.1314 -0.0813
11634TIP3    H234860   5.729   2.298   6.401  0.0265  0.3920  0.1255
11635TIP3   OH234861   6.200   0.548   6.093 -0.0393  0.2615  0.2662
11635TIP3    H134862   6.128   0.603   6.124 -0.8177  0.1034 -1.1815
11635TIP3    H234863   6.256   0.607   6.043 -0.6887 -0.1580 -0.9919
11636TIP3   OH234864   3.512   1.110   3.208 -0.6822  0.1728  0.1892
11636TIP3    H134865   3.538   1.041   3.147 -2.1503 -1.9103  1.7631
11636TIP3    H234866   3.582   1.175   3.203  1.6670 -2.2252 -0.1411
11637TIP3   OH234867   0.865   0.725   1.651  0.1748  0.0941  0.6275
11637TIP3    H134868   0.839   0.780   1.578  0.2579 -0.0444  0.4939
11637TIP3    H234869   0.872   0.637   1.614  0.2398  0.0282  0.7957
11638TIP3   OH234870   4.062   0.303   4.331  0.6102  0.2313 -0.1156
11638TIP3    H134871   4.135   0.279   4.389  0.9741  1.9520  0.1961
11638TIP3    H234872   4.042   0.393   4.355 -0.2798  0.4476 -1.6059
11639TIP3   OH234873   5.524   7.051   2.101  0.3395  0.0695  0.5753
11639TIP3    H134874   5.582   7.012   2.036 -0.9547 -0.2277 -0.4503
11639TIP3    H234875   5.485   7.126   2.056 -1.9228 -1.1738  0.3452
11640TIP3   OH234876   5.338   5.177   1.982 -0.2803  0.0823  0.3068
11640TIP3    H134877   5.318   5.265   1.951 -1.0167 -0.5421 -1.0977
11640TIP3    H234878   5.366   5.130   1.904 -1.1941 -1.2825  0.7657
11641TIP3   OH234879   5.786   3.745   6.474 -0.1027  0.5388  0.5872
11641TIP3    H134880   5.693   3.733   6.495  0.0974  0.8040  1.6688
11641TIP3    H234881   5.805   3.675   6.412 -0.8264 -0.0293  0.9873
11642TIP3   OH234882   0.512   3.196   5.898 -0.1863 -0.3524  0.3413
11642TIP3    H134883   0.566   3.227   5.970  0.7361 -0.2675 -0.3655
11642TIP3    H234884   0.489   3.106   5.922 -0.0279 -0.2713  0.8080
11643TIP3   OH234885   7.494   1.548   4.620 -0.2676 -0.1215 -0.3758
11643TIP3    H134886   7.413   1.562   4.572 -0.7920  1.5861  0.8741
11643TIP3    H234887   7.561   1.590   4.566 -0.3306 -0.8024 -1.0044
11644TIP3   OH234888   7.374   2.607   3.778 -0.2266  0.5021  0.1872
11644TIP3    H134889   7.395   2.514   3.776 -0.4983  0.4513 -0.9554
11644TIP3    H234890   7.453   2.649   3.811 -0.1141 -0.1313  0.7487
11645TIP3   OH234891   4.010   7.311   0.404  0.6783  0.2500  0.4907
11645TIP3    H134892   4.047   7.397   0.425  0.0200  0.5136  0.5925
11645TIP3    H234893   3.976   7.278   0.487 -0.4218  0.5610  0.1846
11646TIP3   OH234894   5.628   0.760   6.511  0.1751  0.3349 -0.0077
11646TIP3    H134895   5.603   0.780   6.602  4.5516  1.6127  1.1232
11646TIP3    H234896   5.636   0.846   6.469 -0.9398 -0.2107 -1.4142
11647TIP3   OH234897   5.931   5.273   3.251  0.0431 -0.0454 -0.0236
11647TIP3    H134898   5.990   5.284   3.325 -1.1656  1.1033  0.8204
11647TIP3    H234899   5.958   5.341   3.189 -0.5293  0.6684  0.4847
11648TIP3   OH234900   6.208   5.081   2.405  0.0851 -0.1906 -0.0645
11648TIP3    H134901   6.131   5.073   2.461  1.2431  0.5736  1.7435
11648TIP3    H234902   6.282   5.077   2.466  1.3985  1.1210 -1.4999
11649TIP3   OH234903   0.884   3.713   2.304 -0.1280  0.1255 -0.3282
11649TIP3    H134904   0.827   3.783   2.272  0.4907  1.3347  1.1102
11649TIP3    H234905   0.954   3.708   2.239 -0.1077  0.9301 -0.3796
11650TIP3   OH234906   8.120   1.481   6.399  0.0089 -0.4554 -0.2491
11650TIP3    H134907   8.126   1.388   6.376 -0.9377  0.0170 -2.7026
11650TIP3    H234908   8.044   1.513   6.349  0.1065  1.5737  0.8091
11651TIP3   OH234909   6.507   1.598   5.766  0.0902  0.1994 -0.2805
11651TIP3    H134910   6.481   1.530   5.704  1.1364 -0.2376 -0.2607
11651TIP3    H234911   6.542   1.668   5.711 -0.9015  0.7050 -0.2950
11652TIP3   OH234912   7.493   0.976   0.897  0.1220 -0.4174  0.0390
11652TIP3    H134913   7.500   1.070   0.912 -0.2215 -0.2419 -0.8529
11652TIP3    H234914   7.446   0.943   0.973 -1.2746  0.3863 -0.4459
11653TIP3   OH234915   2.807   5.407   1.969  0.2699 -0.5657 -0.0871
11653TIP3    H134916   2.885   5.352   1.977  1.1324  0.7848  1.3874
11653TIP3    H234917   2.793   5.441   2.057 -0.8425  0.7320 -0.7386
11654TIP3   OH234918   5.877   7.471   5.580 -0.1704 -0.1431 -0.0918
11654TIP3    H134919   5.781   7.468   5.587 -0.4374 -1.4796 -2.7444
11654TIP3    H234920   5.900   7.387   5.538  2.1940  0.0664  0.6396
11655TIP3   OH234921   0.017   4.639   2.696  0.4589 -0.0932  0.4211
11655TIP3    H134922   0.040   4.611   2.608 -0.1931 -0.3439  0.3262
11655TIP3    H234923   0.098   4.630   2.746  0.6696 -0.5647  0.0002
11656TIP3   OH234924   5.191   0.821   2.689 -0.5649 -0.1852 -0.2255
11656TIP3    H134925   5.248   0.770   2.746 -1.2029 -2.3334 -1.4019
11656TIP3    H234926   5.239   0.902   2.674  1.5072 -1.2917  0.0346
11657TIP3   OH234927   5.433   3.832   3.306  0.4353 -0.0059  0.0087
11657TIP3    H134928   5.345   3.834   3.344  0.3779  0.5619 -0.1554
11657TIP3    H234929   5.453   3.738   3.298 -0.4927 -0.1536 -0.7386
11658TIP3   OH234930   4.848   7.332   2.827  0.4988  0.3504  0.0266
11658TIP3    H134931   4.838   7.427   2.834 -1.8229  0.5649 -3.5875
11658TIP3    H234932   4.759   7.299   2.810  1.2500 -2.4928  0.9797
11659TIP3   OH234933   1.537   5.767   2.948 -0.0768  0.3678 -0.3799
11659TIP3    H134934   1.488   5.746   3.028 -2.4587  2.8001 -1.0534
11659TIP3    H234935   1.474   5.814   2.893  2.4873  1.9342 -2.1853
11660TIP3   OH234936   1.036   2.618   6.604  0.2211 -0.3569 -0.5830
11660TIP3    H134937   1.015   2.659   6.521  0.1660 -0.7229 -0.7522
11660TIP3    H234938   0.952   2.603   6.646  0.2394 -0.3156 -0.5318
11661TIP3   OH234939   5.909   3.922   2.368  0.0934 -0.3024 -0.2040
11661TIP3    H134940   5.982   3.877   2.327 -0.7262 -1.1203 -0.8025
11661TIP3    H234941   5.833   3.899   2.315 -0.4477  1.3439 -0.1968
11662TIP3   OH234942   7.454   0.439   4.954 -0.1397 -0.6639  0.1853
11662TIP3    H134943   7.488   0.435   5.044  0.0411  0.6689  0.1972
11662TIP3    H234944   7.481   0.525   4.922 -0.3149 -1.0723 -1.1109
11663TIP3   OH234945   6.685   0.031   5.639  0.1448 -0.0660  0.0681
11663TIP3    H134946   6.664   0.124   5.654  0.8863  0.3272 -1.1858
11663TIP3    H234947   6.780   0.027   5.646  0.2228 -0.4944 -1.0661
11664TIP3   OH234948   2.398   6.782   3.808  0.0869 -0.0253 -0.1932
11664TIP3    H134949   2.315   6.809   3.767 -0.3527  0.0497  0.7379
11664TIP3    H234950   2.461   6.785   3.736 -0.4899  0.9727 -0.6871
11665TIP3   OH234951   4.918   2.833   5.294  0.5037  0.7317 -0.0098
11665TIP3    H134952   4.846   2.850   5.234 -1.6833  0.0597  2.2137
11665TIP3    H234953   4.956   2.919   5.312  0.8102  1.0047 -1.8094
11666TIP3   OH234954   3.937   4.804   6.658 -0.1126  0.1166 -0.1255
11666TIP3    H134955   3.885   4.782   6.735  0.7597  0.2579  0.5242
11666TIP3    H234956   3.883   4.865   6.608 -2.0273 -2.3269 -1.2554
11667TIP3   OH234957   5.302   1.064   2.616  0.4759  0.0871 -0.5093
11667TIP3    H134958   5.387   1.020   2.615 -0.2153 -1.3218 -0.3975
11667TIP3    H234959   5.318   1.148   2.573  2.1524  0.3343  0.5238
11668TIP3   OH234960   0.291   5.369   0.485  0.5410  0.1366  0.0021
11668TIP3    H134961   0.374   5.402   0.519  1.4691 -0.0904 -1.9368
11668TIP3    H234962   0.295   5.385   0.391 -1.7186  0.3195 -0.1373
11669TIP3   OH234963   0.590   1.394   2.786 -0.7417  0.0187 -0.6691
11669TIP3    H134964   0.595   1.431   2.698  0.6823  0.2896 -0.4894
11669TIP3    H234965   0.643   1.453   2.840 -0.9105 -0.6147  0.2028
11670TIP3   OH234966   4.137   0.122   4.770  0.1406 -0.4991 -0.8885
11670TIP3    H134967   4.050   0.083   4.760 -0.2045  0.4316 -1.7927
11670TIP3    H234968   4.156   0.160   4.684  1.4250 -0.6280 -0.6866
11671TIP3   OH234969   7.937   5.935   2.106 -0.5337 -0.4934  0.2495
11671TIP3    H134970   7.852   5.938   2.062 -1.2104  0.1389  1.5274
11671TIP3    H234971   7.916   5.919   2.198  0.7069  0.1650  0.6743
11672TIP3   OH234972   2.980   1.018   3.343  0.0012 -0.0956 -0.5037
11672TIP3    H134973   2.915   1.048   3.406  0.9327  0.1266  0.3807
11672TIP3    H234974   3.007   0.932   3.375  0.2160 -0.1448 -0.8079
11673TIP3   OH234975   7.337   0.403   5.503  0.9496 -0.0215 -0.0232
11673TIP3    H134976   7.373   0.352   5.430 -0.5743 -3.2788  1.3281
11673TIP3    H234977   7.397   0.386   5.575  0.1976 -0.2637  0.5554
11674TIP3   OH234978   3.180   3.747   6.449  0.3498 -0.0087  0.1029
11674TIP3    H134979   3.238   3.687   6.401  0.8343  0.7918 -0.3266
11674TIP3    H234980   3.238   3.817   6.479 -0.4514  1.0147 -0.6683
11675TIP3   OH234981   0.064   6.227   4.019  0.1516 -0.1312 -0.5321
11675TIP3    H134982   0.051   6.234   3.925  0.0847  2.3266 -0.3956
11675TIP3    H234983   0.158   6.210   4.030  0.3755  0.7581 -1.0232
11676TIP3   OH234984   4.465   2.035   4.302 -0.3981 -0.7384 -0.0652
11676TIP3    H134985   4.373   2.050   4.280  0.1099  1.1232 -1.1215
11676TIP3    H234986   4.514   2.066   4.226  1.2105  0.8213  1.4988
11677TIP3   OH234987   0.172   3.645   1.983 -0.2361 -0.4880  0.1625
11677TIP3    H134988   0.155   3.708   1.913  1.0659  0.1430  0.3957
11677TIP3    H234989   0.234   3.583   1.946 -0.5734 -0.9421  0.3367
11678TIP3   OH234990   1.283   1.214   1.867 -0.4624 -0.6443  0.1180
11678TIP3    H134991   1.266   1.257   1.784 -0.9196  1.7688  1.3857
11678TIP3    H234992   1.373   1.184   1.861 -0.4212 -0.3063 -1.1436
11679TIP3   OH234993   7.909   6.103   4.718  0.1197  0.1718  0.1584
11679TIP3    H134994   7.922   6.198   4.717 -0.8156  0.3262 -1.4885
11679TIP3    H234995   7.821   6.090   4.752 -0.3399  0.0220 -1.0334
11680TIP3   OH234996   7.376   5.176   4.987 -0.0080 -0.6435 -0.0729
11680TIP3    H134997   7.457   5.212   5.024 -0.1354 -0.7502  0.3110
11680TIP3    H234998   7.399   5.088   4.958  0.1125 -0.5302 -0.3230
11681TIP3   OH234999   0.398   4.580   5.157  0.4135  0.3835  0.0859
11681TIP3    H135000   0.314   4.545   5.184 -0.0488  1.3115 -0.1239
11681TIP3    H235001   0.454   4.503   5.146 -1.0732 -0.4589 -2.1376
11682TIP3   OH235002   0.070   3.320   1.050 -0.5080 -0.2840 -0.0569
11682TIP3    H135003   0.113   3.236   1.036 -2.1609 -1.3874  1.0614
11682TIP3    H235004  -0.023   3.298   1.057 -1.0733  1.7534 -0.5394
11683TIP3   OH235005   5.989   1.076   0.861  0.0372  0.0147 -0.0167
11683TIP3    H135006   6.029   0.997   0.897  1.3078  0.7056  0.1423
11683TIP3    H235007   6.063   1.132   0.836 -0.7991  1.5555  0.7650
11684TIP3   OH235008   7.509   5.405   1.547 -0.2849 -0.6143  0.5297
11684TIP3    H135009   7.415   5.388   1.559 -0.0359 -1.1486  1.8595
11684TIP3    H235010   7.552   5.341   1.603  0.8115  1.3273  2.0142
11685TIP3   OH235011   3.157   5.857   4.008  0.4006 -0.0398  0.3077
11685TIP3    H135012   3.082   5.844   4.065  0.7715  0.0910  0.8326
11685TIP3    H235013   3.227   5.888   4.066 -0.0965  3.2817 -0.6721
11686TIP3   OH235014   2.013   3.119   4.749 -0.2592  0.1802 -0.1809
11686TIP3    H135015   2.039   3.193   4.804  0.1738 -0.0412 -0.0780
11686TIP3    H235016   2.096   3.082   4.719 -0.4473 -0.6473  0.2801
11687TIP3   OH235017   3.037   1.983   6.433 -0.2035  0.7393 -0.7923
11687TIP3    H135018   2.995   2.069   6.434 -2.8814 -0.4616 -1.4341
11687TIP3    H235019   3.029   1.951   6.523  0.5016  1.0142 -0.6275
11688TIP3   OH235020   0.502   2.182   2.355 -0.3592  0.5463 -0.4574
11688TIP3    H135021   0.507   2.138   2.440  1.6055  1.1019 -0.2221
11688TIP3    H235022   0.424   2.146   2.313 -1.1727 -0.0102  1.4246
11689TIP3   OH235023   2.354   2.567   6.439  0.0956 -0.2090 -0.0840
11689TIP3    H135024   2.374   2.531   6.526  1.4824  1.9400  0.5855
11689TIP3    H235025   2.434   2.555   6.389 -0.2735 -0.2993 -0.6594
11690TIP3   OH235026   7.289   0.185   5.183 -0.1213  0.0364 -0.1894
11690TIP3    H135027   7.299   0.161   5.275  1.1434 -1.1644 -0.6081
11690TIP3    H235028   7.374   0.168   5.144 -0.6782  0.3752 -1.6285
11691TIP3   OH235029   7.344   7.126   4.741 -0.0920 -0.0473  0.2080
11691TIP3    H135030   7.429   7.084   4.728 -0.1624  0.3736 -1.9725
11691TIP3    H235031   7.342   7.198   4.678 -2.0554 -0.0219  0.2257
11692TIP3   OH235032   1.621   1.719   5.150 -0.3152  0.3679 -0.1878
11692TIP3    H135033   1.694   1.672   5.192  2.1844  3.7822 -0.2980
11692TIP3    H235034   1.580   1.768   5.221 -0.0632  1.3365 -0.6924
11693TIP3   OH235035   6.939   3.498   0.731  0.2184  0.0032 -0.1642
11693TIP3    H135036   6.972   3.547   0.656  0.0531 -1.3610 -1.1687
11693TIP3    H235037   6.861   3.547   0.759 -0.1978  0.0908 -1.4120
11694TIP3   OH235038   5.455   7.364   0.140 -0.0874 -0.1894 -0.1411
11694TIP3    H135039   5.489   7.279   0.113  0.4412 -0.2755  0.7578
11694TIP3    H235040   5.493   7.426   0.079 -0.5916 -0.5967 -0.8996
11695TIP3   OH235041   8.223   6.747   2.721 -0.4832  0.6531  0.0839
11695TIP3    H135042   8.165   6.814   2.686 -0.4481  1.0342  0.7431
11695TIP3    H235043   8.197   6.737   2.813 -0.6206 -0.3770 -0.0500
11696TIP3   OH235044   1.786   3.829   0.092  0.0884  0.1072  0.2602
11696TIP3    H135045   1.740   3.912   0.104 -1.4623 -0.6080 -0.3852
11696TIP3    H235046   1.768   3.805   0.001  0.3744 -0.9926  0.4795
11697TIP3   OH235047   3.381   2.194   0.050  0.0108  0.1056  0.4225
11697TIP3    H135048   3.290   2.221   0.039  0.2646  1.1749  0.7672
11697TIP3    H235049   3.425   2.272   0.084  1.0499 -0.4028  0.2964
11698TIP3   OH235050   1.933   7.334   5.039 -0.1793  0.5256  0.1564
11698TIP3    H135051   1.856   7.323   4.984  0.6875 -1.2980 -0.8033
11698TIP3    H235052   1.928   7.262   5.102  0.3308  0.8792  0.6145
11699TIP3   OH235053   0.807   0.276   6.063 -0.4163  0.2930  0.0132
11699TIP3    H135054   0.872   0.208   6.081  0.6360  1.8037  2.5197
11699TIP3    H235055   0.740   0.262   6.129 -2.8256 -1.2579 -2.5525
11700TIP3   OH235056   4.508   2.070   1.749  0.5212  0.3241  0.6581
11700TIP3    H135057   4.564   2.062   1.826  0.6033  1.0868  0.6835
11700TIP3    H235058   4.478   2.160   1.750 -1.2020 -0.2225  0.9649
11701TIP3   OH235059   7.442   0.384   6.629 -0.1472 -0.0719  0.1488
11701TIP3    H135060   7.457   0.384   6.534 -1.0864  1.3634 -0.0220
11701TIP3    H235061   7.371   0.446   6.642  0.5263  0.3760  1.8939
11702TIP3   OH235062   6.908   5.026   2.994 -0.0791 -0.3526 -0.3178
11702TIP3    H135063   6.983   5.019   2.936 -0.9610  0.8648 -1.6746
11702TIP3    H235064   6.835   4.988   2.944 -0.4374 -1.3248  0.8865
11703TIP3   OH235065   0.864   0.731   0.814  0.0882 -0.3831 -0.2379
11703TIP3    H135066   0.868   0.646   0.856  1.3223 -1.3142 -2.1521
11703TIP3    H235067   0.926   0.785   0.863  1.0154 -1.2469 -0.4450
11704TIP3   OH235068   4.039   2.553   1.529  0.2920 -0.3365 -0.4962
11704TIP3    H135069   3.967   2.593   1.481  0.8542  0.5650 -0.6163
11704TIP3    H235070   4.021   2.572   1.620 -0.0823 -0.8997 -0.4451
11705TIP3   OH235071   6.083   1.422   0.138 -0.1426  0.2263 -1.0311
11705TIP3    H135072   6.072   1.477   0.060  2.1502 -0.0235 -1.6138
11705TIP3    H235073   6.130   1.345   0.106  1.5025  0.4454  0.6679
11706TIP3   OH235074   4.494   3.736   4.286 -0.0452 -0.1398  0.3179
11706TIP3    H135075   4.563   3.670   4.281  1.3865  1.3071 -0.3426
11706TIP3    H235076   4.529   3.802   4.346  0.6220  2.1378 -2.3459
11707TIP3   OH235077   6.562   4.147   2.991 -0.0135  0.5679 -0.5301
11707TIP3    H135078   6.565   4.054   2.971  2.0397  0.9344 -2.4240
11707TIP3    H235079   6.651   4.178   2.975  0.1325  2.3765  2.8750
11708TIP3   OH235080   2.458   0.630   5.320  0.0574 -0.3504  0.4561
11708TIP3    H135081   2.366   0.604   5.323  0.5162 -2.0707  0.8474
11708TIP3    H235082   2.480   0.647   5.412  0.2436 -0.3969  0.4198
11709TIP3   OH235083   5.251   1.539   5.493 -0.5001 -0.1643  0.0122
11709TIP3    H135084   5.299   1.526   5.411 -0.7444 -1.5060  0.0531
11709TIP3    H235085   5.302   1.491   5.558 -0.2695  0.9584  0.6674
11710TIP3   OH235086   1.036   1.393   6.546 -0.4995  0.4217  0.6362
11710TIP3    H135087   1.117   1.416   6.590 -0.7662  0.3445  1.1737
11710TIP3    H235088   1.036   1.446   6.466  0.9872 -0.9772 -0.3561
11711TIP3   OH235089   8.194   6.869   0.862 -0.0295 -0.2892  0.0505
11711TIP3    H135090   8.175   6.895   0.772  0.4237  0.4010  0.1472
11711TIP3    H235091   8.125   6.909   0.915 -0.2323 -0.6012  0.0213
11712TIP3   OH235092   2.358   5.243   6.406 -0.0162 -0.2241  0.0825
11712TIP3    H135093   2.344   5.314   6.469 -0.6500 -1.6859  1.6697
11712TIP3    H235094   2.283   5.248   6.347 -1.3395 -0.9770  1.6232
11713TIP3   OH235095   7.657   0.546   1.014  0.2071 -0.1104 -0.2688
11713TIP3    H135096   7.570   0.512   0.993 -0.3916 -0.1420  1.9781
11713TIP3    H235097   7.664   0.627   0.964 -1.0339 -0.2208 -0.6533
11714TIP3   OH235098   6.593   2.347   4.667 -0.3986 -0.1641  0.1465
11714TIP3    H135099   6.656   2.283   4.636  0.7110 -0.2028  2.3047
11714TIP3    H235100   6.590   2.414   4.598  0.0196 -1.4384 -1.1502
11715TIP3   OH235101   3.022   1.566   3.988  0.1271  0.2080 -0.2773
11715TIP3    H135102   3.103   1.611   3.965  0.5037 -1.5420 -2.7766
11715TIP3    H235103   2.963   1.583   3.914 -0.4926 -1.4662 -0.2291
11716TIP3   OH235104   0.017   7.819   2.352  0.0152  0.4818 -0.8005
11716TIP3    H135105   0.104   7.851   2.327  0.9998 -1.4556  0.0149
11716TIP3    H235106  -0.002   7.749   2.289 -0.9312  0.7922 -0.8862
11717TIP3   OH235107   5.634   0.543   6.031 -0.6481  0.2939 -0.0179
11717TIP3    H135108   5.551   0.590   6.029 -1.7377 -1.5288  0.6188
11717TIP3    H235109   5.641   0.503   5.945 -1.6495 -1.5000  0.6831
11718TIP3   OH235110   8.055   6.649   2.922 -0.3199  0.3067 -0.1004
11718TIP3    H135111   8.043   6.676   3.013 -0.3899  1.0334 -0.3195
11718TIP3    H235112   7.978   6.683   2.876 -2.3449 -3.3323  0.2210
11719TIP3   OH235113   6.203   7.330   6.576 -0.0891  0.1478  0.1498
11719TIP3    H135114   6.127   7.306   6.523  0.9574  0.1187 -1.3960
11719TIP3    H235115   6.255   7.386   6.518  0.5772  1.0131  1.5352
11720TIP3   OH235116   0.290   1.319   4.555 -0.6142  0.2219  0.2792
11720TIP3    H135117   0.238   1.267   4.494  2.4318  0.4931 -2.8892
11720TIP3    H235118   0.359   1.259   4.584  0.7759  1.3814 -0.4938
11721TIP3   OH235119   6.445   7.211   5.568  0.3988  0.1134  0.3959
11721TIP3    H135120   6.484   7.124   5.561  0.2425 -0.1326  2.1874
11721TIP3    H235121   6.513   7.270   5.537  1.1142 -0.5281  0.7121
11722TIP3   OH235122   3.824   5.139   1.542  0.0088 -0.8415  0.0743
11722TIP3    H135123   3.915   5.130   1.515  0.3570 -0.5831  1.1015
11722TIP3    H235124   3.825   5.211   1.605 -1.0499 -0.2643 -0.5385
11723TIP3   OH235125   1.913   7.775   5.473  0.5164  0.3187  0.3312
11723TIP3    H135126   1.938   7.822   5.552 -0.1436  1.5294 -0.1346
11723TIP3    H235127   1.829   7.815   5.448  1.3285  0.8931 -1.6740
11724TIP3   OH235128   6.505   3.442   3.156 -0.1354 -0.6218  0.2175
11724TIP3    H135129   6.511   3.347   3.142 -0.1764 -0.8886  1.8413
11724TIP3    H235130   6.588   3.476   3.123  0.1897 -1.3270  0.2819
11725TIP3   OH235131   2.360   7.056   6.662 -0.2080  0.4984 -0.2104
11725TIP3    H135132   2.434   7.060   6.723 -0.1066 -0.0341 -0.2910
11725TIP3    H235133   2.283   7.052   6.719 -0.1043 -0.1955 -0.0982
11726TIP3   OH235134   0.433   4.810   6.443 -0.1543  0.3875  0.0083
11726TIP3    H135135   0.368   4.824   6.374  0.9593  0.4958 -1.0458
11726TIP3    H235136   0.400   4.733   6.491 -1.7577  1.2642  0.3827
11727TIP3   OH235137   1.436   6.910   1.523 -0.0530 -0.1929  0.0476
11727TIP3    H135138   1.421   7.000   1.551  0.2681 -0.1347  0.0318
11727TIP3    H235139   1.357   6.887   1.474 -0.5884 -0.2644  0.9120
11728TIP3   OH235140   0.926   1.288   3.133  0.0634  0.1722  0.0849
11728TIP3    H135141   0.940   1.238   3.052 -3.0718 -0.7904  0.0102
11728TIP3    H235142   0.953   1.377   3.112  3.5733 -0.8852 -0.5193
11729TIP3   OH235143   0.872   2.121   2.502 -0.1652  0.8617 -0.6668
11729TIP3    H135144   0.840   2.148   2.588  1.0246  0.9740 -0.2419
11729TIP3    H235145   0.844   2.191   2.443 -1.4324  0.5333 -0.4810
11730TIP3   OH235146   4.626   0.693   5.880  0.6185 -0.6124 -0.2585
11730TIP3    H135147   4.673   0.623   5.834  1.8052  0.0115 -0.0335
11730TIP3    H235148   4.647   0.679   5.972 -0.2141 -0.7255 -0.0765
11731TIP3   OH235149   5.871   4.551   6.050  0.7939  0.1639 -0.9825
11731TIP3    H135150   5.955   4.597   6.059  1.6708 -1.3631 -1.0238
11731TIP3    H235151   5.847   4.529   6.140  0.4299  0.5958 -0.9723
11732TIP3   OH235152   7.822   4.626   4.676 -0.0035  0.7059  0.0237
11732TIP3    H135153   7.855   4.540   4.702 -0.1315  0.9431  1.0331
11732TIP3    H235154   7.822   4.677   4.758 -0.6729  1.4180 -0.4055
11733TIP3   OH235155   4.685   2.532   1.519  0.8965 -0.5537 -0.3766
11733TIP3    H135156   4.620   2.579   1.467 -1.0352 -0.4699  1.9629
11733TIP3    H235157   4.749   2.501   1.454 -0.1485  1.4011 -2.5068
11734TIP3   OH235158   5.386   7.288   5.356 -0.2524  0.0511 -0.6903
11734TIP3    H135159   5.434   7.206   5.365 -0.5110  0.0862  1.4663
11734TIP3    H235160   5.453   7.351   5.328  0.7591 -0.1640  1.0786
11735TIP3   OH235161   0.341   0.950   0.413 -0.6368  0.1661  0.1556
11735TIP3    H135162   0.262   1.001   0.397 -1.1295  0.1461  2.2138
11735TIP3    H235163   0.309   0.863   0.436 -0.0073  0.0638  0.6736
11736TIP3   OH235164   2.539   5.518   4.787 -0.5586 -0.2574 -0.1974
11736TIP3    H135165   2.565   5.559   4.705  0.0222  1.5117  0.8060
11736TIP3    H235166   2.529   5.591   4.848  0.8261 -1.6167  1.7922
11737TIP3   OH235167   4.866   6.661   0.425 -0.5984  0.3738 -0.0773
11737TIP3    H135168   4.838   6.714   0.500  1.0353  0.7425  0.2986
11737TIP3    H235169   4.846   6.716   0.349 -0.4018  0.8544  0.2105
11738TIP3   OH235170   0.951   5.234   4.187 -0.0895 -0.4411 -0.0370
11738TIP3    H135171   1.042   5.262   4.173 -0.6746  1.3160 -0.6919
11738TIP3    H235172   0.957   5.164   4.252  1.7677 -0.7506 -0.4709
11739TIP3   OH235173   5.777   0.098   1.396 -0.3482  0.3193  0.3839
11739TIP3    H135174   5.739   0.118   1.310 -0.9930 -0.6264  0.4331
11739TIP3    H235175   5.756   0.175   1.450  0.0314  0.9053 -0.2792
11740TIP3   OH235176   2.838   6.099   1.981 -0.7467  0.0659  0.0830
11740TIP3    H135177   2.814   6.078   1.891 -1.0363  0.0859  0.1531
11740TIP3    H235178   2.885   6.022   2.012  0.8685  0.7299 -0.6241
11741TIP3   OH235179   0.013   7.642   5.300 -0.3616 -0.7786 -0.3554
11741TIP3    H135180   0.095   7.625   5.254 -0.7658 -0.1338 -1.3257
11741TIP3    H235181   0.034   7.716   5.359 -0.3845 -0.2435 -1.0074
11742TIP3   OH235182   5.093   7.549   6.746  0.0662 -0.1722 -0.2692
11742TIP3    H135183   5.132   7.558   6.833 -1.9947 -1.8305  0.9236
11742TIP3    H235184   5.164   7.513   6.692  1.2406  0.3845  0.8278
11743TIP3   OH235185   3.110   1.353   1.399  0.3062 -0.2131 -0.0096
11743TIP3    H135186   3.162   1.386   1.472  1.1194 -0.4746 -0.4597
11743TIP3    H235187   3.160   1.279   1.365  0.1568  0.1617 -1.0960
11744TIP3   OH235188   6.539   6.244   2.133 -0.4561  0.0779  0.2714
11744TIP3    H135189   6.556   6.262   2.040 -0.8214 -0.4012  0.1088
11744TIP3    H235190   6.623   6.213   2.167 -0.4354 -0.1738 -0.0039
11745TIP3   OH235191   4.250   0.636   2.689  0.4031 -0.0516 -0.1217
11745TIP3    H135192   4.332   0.588   2.682  1.0433  0.8516  0.8580
11745TIP3    H235193   4.199   0.588   2.754  1.1459  0.6789  1.0454
11746TIP3   OH235194   7.728   2.737   6.420  0.2433  0.0110  0.1779
11746TIP3    H135195   7.784   2.669   6.383  0.1995  0.3376 -0.4956
11746TIP3    H235196   7.688   2.779   6.344  0.4331  0.9354  0.5817
11747TIP3   OH235197   3.263   2.965   2.099 -0.1689  0.0745  0.0311
11747TIP3    H135198   3.238   2.998   2.013 -0.5650  0.2761  0.2168
11747TIP3    H235199   3.314   3.035   2.138  2.3534 -1.0153 -1.0439
11748TIP3   OH235200   3.097   6.092   1.377 -0.6589 -0.6226 -0.0474
11748TIP3    H135201   3.121   6.183   1.362 -0.0268 -0.9394 -1.0389
11748TIP3    H235202   3.029   6.074   1.312 -1.0922 -0.7383  0.4316
11749TIP3   OH235203   6.361   7.785   0.368 -0.1066 -0.4402 -0.1013
11749TIP3    H135204   6.289   7.801   0.307  0.5659 -0.8101 -1.0173
11749TIP3    H235205   6.437   7.824   0.325  0.0774  0.8759  1.3211
11750TIP3   OH235206   3.195   2.318   2.511 -0.3900 -0.3024  0.2152
11750TIP3    H135207   3.171   2.401   2.468 -1.6105 -0.5930  0.3175
11750TIP3    H235208   3.119   2.261   2.499 -0.5795 -0.5762  2.2972
11751TIP3   OH235209   5.457   6.353   1.095  0.2972  0.3644 -0.3074
11751TIP3    H135210   5.496   6.295   1.029 -1.6016 -1.5357  0.1444
11751TIP3    H235211   5.509   6.337   1.174 -0.4679 -1.1122 -0.0708
11752TIP3   OH235212   5.454   1.370   0.415  0.9720  0.1372  0.0955
11752TIP3    H135213   5.507   1.311   0.361 -0.3933 -0.0611 -1.1147
11752TIP3    H235214   5.516   1.434   0.449  2.1979 -0.8967 -0.0853
11753TIP3   OH235215   1.335   5.652   3.106  0.0670  0.2194  0.3270
11753TIP3    H135216   1.243   5.679   3.108 -0.7614 -1.6521 -3.3881
11753TIP3    H235217   1.347   5.599   3.185 -2.3773 -0.3434  0.3945
11754TIP3   OH235218   6.302   1.076   4.843  0.3495  0.3202  0.5925
11754TIP3    H135219   6.318   1.171   4.843  0.4734  0.3004  0.5736
11754TIP3    H235220   6.355   1.043   4.770  1.2975  0.0759  1.3741
11755TIP3   OH235221   2.304   7.115   3.865  0.0559  0.0400 -0.1027
11755TIP3    H135222   2.359   7.129   3.788 -0.7607 -0.7170 -0.8451
11755TIP3    H235223   2.233   7.179   3.855  0.4614  0.6008  0.5360
11756TIP3   OH235224   7.070   6.987   6.265 -0.0651 -0.4285  0.5666
11756TIP3    H135225   7.020   7.054   6.220  0.9498  0.0408  0.0914
11756TIP3    H235226   7.058   7.006   6.358 -0.1373  0.1536  0.4426
11757TIP3   OH235227   3.041   1.327   1.983 -0.1612  0.1265  0.3869
11757TIP3    H135228   3.015   1.373   1.903 -0.1289 -0.1544  0.2118
11757TIP3    H235229   2.959   1.307   2.027 -0.3796 -1.8606 -0.7763
11758TIP3   OH235230   2.296   1.856   4.018  0.6718 -0.0115 -0.1215
11758TIP3    H135231   2.284   1.762   4.028  0.5493 -0.0212 -0.3851
11758TIP3    H235232   2.389   1.866   3.997  0.8795 -0.0129  0.7214
11759TIP3   OH235233   1.921   6.078   1.590  0.3066 -0.1778 -0.0195
11759TIP3    H135234   1.920   6.070   1.685  0.3845 -2.3472 -0.1519
11759TIP3    H235235   1.886   6.165   1.572 -1.1465 -0.3076  1.9359
11760TIP3   OH235236   7.565   3.860   3.683 -0.2582  0.1461 -0.1423
11760TIP3    H135237   7.647   3.818   3.708  0.4726  1.1733 -0.7611
11760TIP3    H235238   7.590   3.947   3.653 -1.6592  0.7477  0.3504
11761TIP3   OH235239   8.134   7.102   3.074 -0.3379 -0.4558  0.1354
11761TIP3    H135240   8.080   7.101   2.996  0.0888 -2.9879 -0.2271
11761TIP3    H235241   8.072   7.107   3.147 -0.8985 -0.6685 -0.3210
11762TIP3   OH235242   3.084   6.002   3.418 -0.3993 -0.2148  0.2370
11762TIP3    H135243   3.030   5.962   3.486 -1.3610  2.7200  1.3597
11762TIP3    H235244   3.174   5.992   3.450 -0.7763  0.2905  1.4983
11763TIP3   OH235245   4.304   4.555   6.702  0.5597  0.5428 -0.0247
11763TIP3    H135246   4.356   4.560   6.782  1.4855 -1.1492 -0.4783
11763TIP3    H235247   4.368   4.556   6.631  0.0977 -2.0215 -0.5754
11764TIP3   OH235248   0.048   6.298   2.802  0.4730 -0.1161 -0.0412
11764TIP3    H135249   0.052   6.254   2.717  0.4049  0.6274 -0.4325
11764TIP3    H235250   0.117   6.364   2.799  1.6867 -1.2435  1.1707
11765TIP3   OH235251   2.596   3.778   1.579 -0.9758 -0.2388 -0.4855
11765TIP3    H135252   2.616   3.786   1.672 -0.7307  0.7323 -0.6071
11765TIP3    H235253   2.602   3.868   1.546  1.6699 -0.8846 -1.9857
11766TIP3   OH235254   3.590   2.095   0.694  0.1989 -0.4974  0.1201
11766TIP3    H135255   3.651   2.084   0.767  0.3179  1.7222  0.4199
11766TIP3    H235256   3.587   2.009   0.652  1.7461 -1.2628  1.4709
11767TIP3   OH235257   1.437   6.763   1.801 -0.1603 -0.1780  0.0283
11767TIP3    H135258   1.485   6.831   1.848 -0.6591 -1.2994  2.3118
11767TIP3    H235259   1.454   6.781   1.708  1.9345  1.4065  0.6424
11768TIP3   OH235260   2.595   7.027   6.164  0.1917  0.1861 -0.1949
11768TIP3    H135261   2.670   7.078   6.195  0.7361  1.0063 -2.6331
11768TIP3    H235262   2.520   7.086   6.176  0.4108  0.5374 -0.5252
11769TIP3   OH235263   5.045   5.453   3.313 -0.2111  0.4926  0.5440
11769TIP3    H135264   4.950   5.443   3.312 -0.0988 -1.0051 -1.4831
11769TIP3    H235265   5.072   5.438   3.223  1.8745  2.0882  0.8141
11770TIP3   OH235266   5.253   0.033   0.823  0.0522  0.4324  0.0577
11770TIP3    H135267   5.239  -0.039   0.762 -0.3766  2.3863 -2.3277
11770TIP3    H235268   5.192   0.101   0.794 -0.4095  1.3792  2.9278
11771TIP3   OH235269   4.125   6.926   6.487 -0.4466 -0.1990 -0.6009
11771TIP3    H135270   4.038   6.947   6.519 -0.5173  1.0797 -1.5333
11771TIP3    H235271   4.154   6.852   6.541 -1.2571  0.6898  1.1176
11772TIP3   OH235272   1.409   7.503   2.911  0.6147 -0.3643 -0.1858
11772TIP3    H135273   1.409   7.582   2.965  1.0044 -0.1349 -0.5241
11772TIP3    H235274   1.370   7.436   2.968  1.9058 -0.3660  0.7304
11773TIP3   OH235275   7.587   5.354   1.908  0.4139 -0.1586 -0.1684
11773TIP3    H135276   7.526   5.313   1.970  1.2570 -0.3224  0.5607
11773TIP3    H235277   7.665   5.372   1.959  1.2341 -0.5436 -1.2529
11774TIP3   OH235278   5.293   1.809   2.765 -0.0141 -0.5261  0.0250
11774TIP3    H135279   5.279   1.887   2.711  1.3513  1.0111  1.7234
11774TIP3    H235280   5.380   1.779   2.740 -0.5648 -1.5958 -0.6708
11775TIP3   OH235281   6.995   1.551   4.812  0.1948  0.0732  0.1086
11775TIP3    H135282   7.040   1.634   4.827  2.0392 -0.9646  0.5838
11775TIP3    H235283   7.058   1.499   4.762 -0.7858 -1.1716  0.1341
11776TIP3   OH235284   2.719   4.540   0.513 -0.8478  0.1081 -0.0121
11776TIP3    H135285   2.684   4.620   0.475 -0.4812 -0.0697 -0.7311
11776TIP3    H235286   2.718   4.476   0.442  2.1318  0.4440 -0.4742
11777TIP3   OH235287   7.137   0.860   0.872  0.0956 -0.0876 -0.3173
11777TIP3    H135288   7.085   0.813   0.938  0.2458 -0.9118 -0.7630
11777TIP3    H235289   7.223   0.871   0.912 -0.0046 -0.0016 -0.1251
11778TIP3   OH235290   7.624   0.282   3.997  0.4010  0.2081  0.1883
11778TIP3    H135291   7.537   0.243   3.999  1.3827 -2.2403 -0.9567
11778TIP3    H235292   7.651   0.288   4.088  0.4920 -2.6554  0.4219
11779TIP3   OH235293   1.687   2.251   2.667  0.5208  0.4533  0.7221
11779TIP3    H135294   1.745   2.185   2.705  0.0722 -0.0418  0.5660
11779TIP3    H235295   1.633   2.280   2.740 -0.0665 -0.2060  0.5718
11780TIP3   OH235296   3.698   5.599   2.420  0.2786 -0.2123 -0.0178
11780TIP3    H135297   3.738   5.570   2.502 -0.4800 -2.2026 -0.3161
11780TIP3    H235298   3.720   5.692   2.415  2.7708 -0.6709  1.0146
11781TIP3   OH235299   0.128   7.421   0.118  0.0660  0.2678  0.4058
11781TIP3    H135300   0.092   7.351   0.064 -0.2176  0.9378 -0.2969
11781TIP3    H235301   0.220   7.397   0.130  0.1906  0.1937 -0.5529
11782TIP3   OH235302   1.245   0.092   0.618 -0.4185 -0.4786  0.3026
11782TIP3    H135303   1.228  -0.002   0.608 -2.3227 -0.2289  0.7755
11782TIP3    H235304   1.226   0.110   0.710  1.8986  0.0516  0.7437
11783TIP3   OH235305   0.857   7.626   0.682  0.1859  0.9126 -0.3521
11783TIP3    H135306   0.883   7.599   0.770 -1.4482  0.9060  0.1427
11783TIP3    H235307   0.765   7.650   0.689  0.0544  1.0490 -2.0348
11784TIP3   OH235308   2.858   6.405   1.148 -0.4763  0.6013  0.3459
11784TIP3    H135309   2.800   6.330   1.164 -0.3004  0.3307 -0.2507
11784TIP3    H235310   2.803   6.481   1.168 -0.4590  0.3102  1.5725
11785TIP3   OH235311   6.080   7.425   2.356 -0.0656  0.2211  0.0635
11785TIP3    H135312   6.002   7.387   2.315 -0.6248 -2.0732  2.9614
11785TIP3    H235313   6.153   7.384   2.309 -0.6812 -1.8634  0.8020
11786TIP3   OH235314   4.115   1.486   0.925 -0.1085  0.1443 -0.0859
11786TIP3    H135315   4.028   1.468   0.890  0.2486 -0.1527 -0.8433
11786TIP3    H235316   4.101   1.556   0.989 -0.9887 -0.3504  0.2751
11787TIP3   OH235317   2.630   4.531   2.989  1.0783  0.2264  0.5059
11787TIP3    H135318   2.652   4.502   2.900  1.2389 -0.1576  0.6694
11787TIP3    H235319   2.563   4.469   3.019 -0.0431  1.2141  0.1215
11788TIP3   OH235320   2.714   2.209   1.930 -0.2887  0.0111 -0.4537
11788TIP3    H135321   2.765   2.222   2.010 -0.8596 -0.2981 -0.0335
11788TIP3    H235322   2.757   2.265   1.866 -0.2641  0.8394  0.2584
11789TIP3   OH235323   4.486   2.563   3.844 -0.5289  0.1902  0.1080
11789TIP3    H135324   4.449   2.501   3.907 -1.1045  1.0193  0.6108
11789TIP3    H235325   4.421   2.633   3.839  0.0811  0.7267 -0.4893
11790TIP3   OH235326   4.164   5.031   0.619  0.8193  0.0273  0.0218
11790TIP3    H135327   4.149   5.095   0.551  1.9179  0.1722 -0.0970
11790TIP3    H235328   4.221   4.965   0.579 -1.4572 -1.8739 -0.3545
11791TIP3   OH235329   4.261   1.797   6.237  0.4944  0.4924  0.1235
11791TIP3    H135330   4.185   1.831   6.284 -0.0304  0.8287 -0.9337
11791TIP3    H235331   4.264   1.705   6.260 -0.0471  0.5492  0.4360
11792TIP3   OH235332   2.932   1.000   1.713  0.5042 -0.2554  0.0063
11792TIP3    H135333   2.951   1.087   1.678  2.3188 -0.9302 -0.7941
11792TIP3    H235334   2.865   0.965   1.655 -1.0909  1.0008  1.0141
11793TIP3   OH235335   6.994   2.620   1.010 -0.0941 -0.0729 -0.1859
11793TIP3    H135336   6.997   2.524   1.012  2.0962 -0.0439  1.5780
11793TIP3    H235337   6.901   2.640   1.022 -0.4573 -2.0050  0.7793
11794TIP3   OH235338   0.203   6.185   5.702 -0.3360 -0.1507 -0.1792
11794TIP3    H135339   0.111   6.163   5.686 -0.2004 -0.2522 -0.8690
11794TIP3    H235340   0.203   6.277   5.729 -0.6868 -0.3064  0.3598
11795TIP3   OH235341   6.725   4.972   4.504  0.5981  0.2848  0.6343
11795TIP3    H135342   6.784   4.897   4.507  0.1740 -0.1160 -0.5830
11795TIP3    H235343   6.752   5.021   4.426 -0.3793  0.3354  0.3170
11796TIP3   OH235344   5.325   4.367   1.359  0.3674  0.3505 -0.3414
11796TIP3    H135345   5.234   4.392   1.378  0.4128  0.4452 -0.2523
11796TIP3    H235346   5.359   4.335   1.442  0.4725  0.4857 -0.3325
11797TIP3   OH235347   2.173   1.776   3.163  0.2260  0.1639  0.1318
11797TIP3    H135348   2.229   1.764   3.240  0.2587  0.6627  0.1924
11797TIP3    H235349   2.193   1.702   3.106  0.3944 -0.0655  0.4909
11798TIP3   OH235350   0.860   2.941   2.693 -0.0518 -0.0185  0.1538
11798TIP3    H135351   0.814   2.927   2.776 -1.0188  1.3887 -0.1083
11798TIP3    H235352   0.867   2.853   2.654 -1.1697 -0.4611  0.9079
11799TIP3   OH235353   7.174   2.047   4.817 -0.6785 -0.2964 -0.2982
11799TIP3    H135354   7.265   2.051   4.786 -0.1659 -1.5932  0.9172
11799TIP3    H235355   7.138   2.133   4.797  0.8582  0.2798 -0.7141
11800TIP3   OH235356   7.291   7.766   0.267  0.0332 -0.7288  0.0027
11800TIP3    H135357   7.212   7.731   0.227  1.9796 -3.6542 -1.6676
11800TIP3    H235358   7.309   7.846   0.218 -1.5629 -0.2992  0.0696
11801TIP3   OH235359   7.894   3.406   1.593 -0.2666  0.3514 -0.3975
11801TIP3    H135360   7.836   3.438   1.662  0.4894 -2.7997  1.9436
11801TIP3    H235361   7.836   3.390   1.519 -1.7933  0.5610  0.6975
11802TIP3   OH235362   7.799   6.079   4.198 -0.0021  0.5497  0.1819
11802TIP3    H135363   7.879   6.114   4.158  0.3928 -0.2921  0.2076
11802TIP3    H235364   7.813   5.985   4.201 -0.4910  0.4905  1.2898
11803TIP3   OH235365   5.430   3.148   5.627 -0.8448 -0.2456 -0.7584
11803TIP3    H135366   5.485   3.103   5.692 -2.2133  0.9735  1.3413
11803TIP3    H235367   5.357   3.088   5.613 -0.1303 -0.8876 -1.8779
11804TIP3   OH235368   7.987   2.135   6.288 -0.9310 -0.6666 -0.0012
11804TIP3    H135369   7.988   2.226   6.259 -0.2962 -1.1200 -1.5047
11804TIP3    H235370   7.969   2.140   6.382  0.0255  1.0647  0.1430
11805TIP3   OH235371   6.307   3.282   1.513 -0.7282 -0.6925 -0.7355
11805TIP3    H135372   6.323   3.264   1.420 -2.6680 -0.1010 -1.2199
11805TIP3    H235373   6.264   3.367   1.514  0.2494 -0.1799  0.8185
11806TIP3   OH235374   7.771   1.095   0.788 -0.4580 -0.0699 -0.3191
11806TIP3    H135375   7.720   1.146   0.851 -1.4694 -1.5698  0.1514
11806TIP3    H235376   7.838   1.052   0.841 -0.5892 -0.4318 -0.4392
11807TIP3   OH235377   4.624   2.889   2.421  0.0161  0.9010  0.3227
11807TIP3    H135378   4.619   2.831   2.497 -0.4287  0.9712  0.3454
11807TIP3    H235379   4.675   2.964   2.452  1.9137 -0.1217 -0.1231
11808TIP3   OH235380   0.905   0.951   3.701 -0.0755 -0.8073  0.1215
11808TIP3    H135381   0.943   0.902   3.775  1.8341 -0.6761 -0.7154
11808TIP3    H235382   0.977   0.961   3.639 -0.3234  2.9733  0.1713
11809TIP3   OH235383   3.760   4.254   5.744  0.4772 -0.5508  0.3961
11809TIP3    H135384   3.700   4.310   5.794 -2.3149 -2.8974 -0.0518
11809TIP3    H235385   3.797   4.195   5.808  0.7998 -0.3590  0.3877
11810TIP3   OH235386   7.401   6.442   2.032 -0.1707  0.0673  0.2452
11810TIP3    H135387   7.311   6.441   2.002 -0.2178 -2.6088  0.2615
11810TIP3    H235388   7.431   6.531   2.015 -2.5524  0.8031 -0.4699
11811TIP3   OH235389   1.433   0.113   0.115 -1.3665 -0.3784  0.2413
11811TIP3    H135390   1.462   0.052   0.047  0.3690 -0.9237  1.3803
11811TIP3    H235391   1.463   0.198   0.086 -1.9502 -0.3745 -0.3670
11812TIP3   OH235392   2.032   2.643   0.132  0.4632  0.3516  0.4272
11812TIP3    H135393   1.944   2.660   0.166  0.1080  0.0355 -0.2932
11812TIP3    H235394   2.072   2.730   0.124 -0.3960  0.6631 -0.7999
11813TIP3   OH235395   5.970   1.191   1.659  0.1511  0.4835  0.5356
11813TIP3    H135396   6.043   1.186   1.598  0.8967 -0.1427  1.4584
11813TIP3    H235397   5.935   1.102   1.662  0.8102  0.2567  1.8367
11814TIP3   OH235398   4.033   7.263   4.007 -0.1121 -0.2805 -0.1301
11814TIP3    H135399   4.123   7.229   3.998  0.4524  1.6236 -2.6814
11814TIP3    H235400   4.043   7.347   4.051 -1.0793 -1.4707  2.5445
11815TIP3   OH235401   0.110   5.432   1.680  0.4158 -0.3265  0.2290
11815TIP3    H135402   0.126   5.413   1.772  0.3001 -2.4743 -0.1529
11815TIP3    H235403   0.180   5.388   1.633  0.4653  0.7259 -0.7332
11816TIP3   OH235404   2.634   7.115   3.131  0.5230 -0.5778 -0.4708
11816TIP3    H135405   2.562   7.097   3.192  0.7740  1.0316  0.3407
11816TIP3    H235406   2.682   7.032   3.127  0.6245 -0.6895  1.7118
11817TIP3   OH235407   0.951   7.465   2.620 -0.1271  0.2940  0.9732
11817TIP3    H135408   0.975   7.554   2.595 -0.3705  0.2948  0.7437
11817TIP3    H235409   0.858   7.471   2.643 -0.0321  0.1919  1.3992
11818TIP3   OH235410   5.520   4.547   5.080 -0.1585 -0.3349 -0.3946
11818TIP3    H135411   5.463   4.488   5.129 -0.3432  1.2766  1.4100
11818TIP3    H235412   5.512   4.516   4.989  0.0141 -3.2546  0.4612
11819TIP3   OH235413   7.741   0.547   4.790 -0.2248  0.3927  0.2439
11819TIP3    H135414   7.701   0.562   4.875  1.5744  2.3324  0.8309
11819TIP3    H235415   7.834   0.536   4.808 -0.0346 -1.0889 -1.3360
11820TIP3   OH235416   4.536   1.160   1.550  0.4940 -0.2701  0.6207
11820TIP3    H135417   4.554   1.169   1.456  0.4781 -2.1709  0.3951
11820TIP3    H235418   4.623   1.158   1.591  0.4970  0.7487  0.6803
11821TIP3   OH235419   6.980   0.262   4.650 -0.1597  0.2215  0.2387
11821TIP3    H135420   7.011   0.178   4.615  0.5724  0.3796  0.4878
11821TIP3    H235421   6.886   0.249   4.665  0.0238 -0.6866  0.6540
11822TIP3   OH235422   7.002   5.329   1.859 -0.5263  0.0782  0.2841
11822TIP3    H135423   6.941   5.344   1.787 -1.4025  0.0653  1.0100
11822TIP3    H235424   7.089   5.334   1.818 -1.0160 -0.7071 -0.9147
11823TIP3   OH235425   3.748   0.299   1.857  0.1328 -0.1925  0.0126
11823TIP3    H135426   3.793   0.366   1.805  0.5151 -0.9860 -0.7111
11823TIP3    H235427   3.818   0.257   1.908 -0.1148  0.0119  0.5230
11824TIP3   OH235428   3.383   2.247   3.446 -0.2906  0.2098 -0.0534
11824TIP3    H135429   3.455   2.225   3.387 -0.8769 -1.1808 -0.3021
11824TIP3    H235430   3.306   2.209   3.404 -0.7950 -0.4045  1.3709
11825TIP3   OH235431   7.113   1.641   3.318 -0.2417 -0.0408  0.1563
11825TIP3    H135432   7.085   1.561   3.364  1.5387 -0.6555  0.2396
11825TIP3    H235433   7.199   1.619   3.281  1.2988  2.4596  1.9270
11826TIP3   OH235434   1.649   7.353   6.551  0.1538  0.0948  0.2861
11826TIP3    H135435   1.638   7.395   6.465  0.0105 -1.5933 -0.5714
11826TIP3    H235436   1.736   7.379   6.579  0.1420  0.8055 -0.3009
11827TIP3   OH235437   6.644   7.469   1.907 -0.2591  0.0008 -0.1189
11827TIP3    H135438   6.640   7.476   1.811  1.8424 -1.9225 -0.4320
11827TIP3    H235439   6.728   7.508   1.930 -1.0424  1.0465  1.0561
11828TIP3   OH235440   8.078   2.935   4.024 -0.4372  0.0431 -0.5254
11828TIP3    H135441   8.038   2.964   3.941 -1.7501  1.3679  0.5109
11828TIP3    H235442   8.004   2.903   4.076  0.4452 -1.2907 -0.0363
11829TIP3   OH235443   8.178   6.964   5.729  0.3071 -0.0064  0.0051
11829TIP3    H135444   8.133   6.958   5.813  1.4634  1.0655  0.7346
11829TIP3    H235445   8.240   7.036   5.740  0.0958  0.5372 -1.9556
11830TIP3   OH235446   6.203   6.355   6.607  0.0008  0.2705 -0.0378
11830TIP3    H135447   6.118   6.333   6.642 -1.0471  2.9094 -0.6673
11830TIP3    H235448   6.199   6.329   6.515  0.2178 -0.4186  0.1450
11831TIP3   OH235449   5.101   2.672   1.056 -0.0918  0.3713 -0.0454
11831TIP3    H135450   5.014   2.676   1.016 -0.2935  0.3773  0.3926
11831TIP3    H235451   5.135   2.762   1.048  0.0255  0.2900 -0.5356
11832TIP3   OH235452   5.701   3.533   3.095 -0.2391 -0.1379 -0.4125
11832TIP3    H135453   5.674   3.492   3.177 -2.0146 -0.0340 -0.9167
11832TIP3    H235454   5.622   3.533   3.041  0.9117 -0.2669 -2.1578
11833TIP3   OH235455   7.734   5.417   6.339  0.3670  0.2129 -0.1734
11833TIP3    H135456   7.719   5.435   6.247 -0.0761 -1.0558 -0.3655
11833TIP3    H235457   7.786   5.336   6.340  0.1952  0.1013  0.6859
11834TIP3   OH235458   8.110   1.481   6.706 -0.0434  0.0498  0.0187
11834TIP3    H135459   8.130   1.465   6.613  0.2505  0.4778  0.0088
11834TIP3    H235460   8.164   1.418   6.753  0.2033  0.1908 -0.0766
11835TIP3   OH235461   6.629   5.503   2.702  0.1532  0.4357 -0.3759
11835TIP3    H135462   6.576   5.583   2.706  0.0766  0.3787 -0.2300
11835TIP3    H235463   6.597   5.456   2.625 -0.8516 -0.1842  0.3939
11836TIP3   OH235464   7.571   2.640   0.448  0.3321  0.2676 -0.4909
11836TIP3    H135465   7.490   2.606   0.486  0.8757  0.5761  0.9980
11836TIP3    H235466   7.640   2.594   0.494  1.0427 -0.8916 -2.5944
11837TIP3   OH235467   4.145   2.159   1.645 -0.3256 -0.5039 -0.7691
11837TIP3    H135468   4.216   2.096   1.643  1.2481  1.1932 -0.7095
11837TIP3    H235469   4.077   2.116   1.698  0.6647 -2.1216 -0.7350
11838TIP3   OH235470   5.958   7.174   6.608 -0.5146 -0.0063 -0.5310
11838TIP3    H135471   5.873   7.217   6.604  0.3713  2.0508  0.8969
11838TIP3    H235472   5.963   7.123   6.527 -1.3225  3.3841 -2.9250
11839TIP3   OH235473   6.698   1.784   2.336  0.4683  0.6063  0.4354
11839TIP3    H135474   6.654   1.810   2.254 -0.7479  0.5927  1.0603
11839TIP3    H235475   6.734   1.698   2.317  1.1951  1.0849 -0.4434
11840TIP3   OH235476   3.108   3.703   5.407  0.0010  0.0857  0.3908
11840TIP3    H135477   3.187   3.714   5.354  1.1657 -0.4195  1.9768
11840TIP3    H235478   3.067   3.789   5.408  1.2193  0.6664  0.6099
11841TIP3   OH235479   4.982   4.271   3.193 -0.4672 -0.1609  0.4269
11841TIP3    H135480   5.023   4.199   3.240 -0.2434  0.6578  1.5401
11841TIP3    H235481   5.026   4.273   3.108  0.9075 -0.1277  1.1145
11842TIP3   OH235482   2.604   2.546   0.181 -0.2895 -0.3669 -0.0900
11842TIP3    H135483   2.577   2.622   0.129  0.5650  0.9379  1.2827
11842TIP3    H235484   2.698   2.538   0.164  0.1166  0.4160  1.5887
11843TIP3   OH235485   1.915   7.660   6.081  0.0896 -1.3072  0.4800
11843TIP3    H135486   1.931   7.698   5.994  0.2461 -0.4904  0.8570
11843TIP3    H235487   1.821   7.648   6.085 -0.6229  3.1111  1.9264
11844TIP3   OH235488   4.758   2.064   1.874 -0.0856  0.0704  0.0823
11844TIP3    H135489   4.775   2.095   1.785 -0.1893  0.8725  0.3348
11844TIP3    H235490   4.771   2.140   1.929  0.6125 -0.5763  0.8358
11845TIP3   OH235491   4.396   3.272   4.601 -0.0274 -0.5518 -0.2459
11845TIP3    H135492   4.417   3.270   4.507 -1.0871 -0.4388 -0.5050
11845TIP3    H235493   4.455   3.338   4.637  0.4490 -0.6524 -0.8172
11846TIP3   OH235494   0.467   7.041   6.561  0.1140 -0.0338  0.6743
11846TIP3    H135495   0.429   7.087   6.636 -1.2054 -0.7750  0.4975
11846TIP3    H235496   0.505   6.962   6.598 -0.8552 -0.5773  0.5383
11847TIP3   OH235497   1.184   4.037   3.322  0.0439  0.2089 -0.1212
11847TIP3    H135498   1.151   4.045   3.233 -0.2247 -0.0031 -0.0458
11847TIP3    H235499   1.124   4.089   3.375 -0.4052 -0.4815  0.0685
11848TIP3   OH235500   3.650   0.915   0.830 -0.7603 -0.3181 -0.1455
11848TIP3    H135501   3.592   0.897   0.904 -0.4983 -1.0263 -0.1056
11848TIP3    H235502   3.657   0.831   0.784 -1.7059  0.3218 -1.5489
11849TIP3   OH235503   7.412   4.136   4.218 -0.3485 -0.6084 -0.1340
11849TIP3    H135504   7.441   4.210   4.272 -0.5730 -0.6398  0.0297
11849TIP3    H235505   7.407   4.173   4.130 -0.4818 -0.4219 -0.0494
11850TIP3   OH235506   4.486   1.738   6.664 -0.0560 -0.0927 -0.1972
11850TIP3    H135507   4.398   1.705   6.682 -0.2304 -0.3141 -1.3688
11850TIP3    H235508   4.518   1.683   6.592  0.6423  0.6569 -0.4708
11851TIP3   OH235509   6.261   4.482   1.932  0.2715 -0.2684 -0.5318
11851TIP3    H135510   6.182   4.431   1.911  1.0832 -1.7194 -0.1894
11851TIP3    H235511   6.309   4.428   1.994  0.9885  1.1217  0.1863
11852TIP3   OH235512   3.422   0.783   4.950 -0.4738 -0.5090 -0.4595
11852TIP3    H135513   3.457   0.852   4.893 -0.7016 -0.8871 -1.0762
11852TIP3    H235514   3.497   0.755   5.003 -0.0987 -0.5696 -1.0093
11853TIP3   OH235515   7.720   0.799   0.857 -0.3382  0.0010 -0.3671
11853TIP3    H135516   7.652   0.854   0.896  0.0354 -0.0615  0.3871
11853TIP3    H235517   7.800   0.851   0.863 -0.0471 -0.4870  0.0473
11854TIP3   OH235518   4.303   7.690   1.499  0.2737 -0.3713 -0.2111
11854TIP3    H135519   4.233   7.741   1.458 -0.7342 -1.9410 -0.5130
11854TIP3    H235520   4.381   7.747   1.492 -0.5997  0.7485 -1.3129
11855TIP3   OH235521   3.767   6.200   0.289 -0.7432 -0.0216 -0.4881
11855TIP3    H135522   3.861   6.213   0.286 -0.8621  1.2364  0.3912
11855TIP3    H235523   3.740   6.197   0.197  0.2016 -0.9623 -0.7546
11856TIP3   OH235524   3.987   4.190   0.268 -0.5275 -0.0022 -0.0384
11856TIP3    H135525   3.912   4.200   0.326 -0.9183 -0.0762 -0.5183
11856TIP3    H235526   4.030   4.276   0.268 -0.1498 -0.1768  0.8439
11857TIP3   OH235527   5.302   2.066   1.360  0.1103  0.1956  0.4725
11857TIP3    H135528   5.330   1.981   1.328  3.0853  0.5282  1.8536
11857TIP3    H235529   5.261   2.048   1.445  0.1752  0.1141  0.4855
11858TIP3   OH235530   2.559   3.445   0.978  0.1811 -0.4007 -0.2071
11858TIP3    H135531   2.639   3.431   1.029 -0.3606 -0.6393  0.6034
11858TIP3    H235532   2.521   3.358   0.969 -0.2054 -0.2332 -0.2091
11859TIP3   OH235533   2.612   5.036   0.264  0.7081 -0.3595  0.8944
11859TIP3    H135534   2.642   5.084   0.187  0.0654  0.3971  1.1020
11859TIP3    H235535   2.689   5.033   0.321  0.4435  1.5912  1.4338
11860TIP3   OH235536   3.594   0.835   2.798  0.0435 -0.1462 -0.4206
11860TIP3    H135537   3.583   0.774   2.726 -0.7433 -0.4642 -0.0414
11860TIP3    H235538   3.530   0.904   2.782 -0.1678 -0.2405 -0.0129
11861TIP3   OH235539   0.331   2.305   5.659 -0.5074 -0.2731 -0.2086
11861TIP3    H135540   0.260   2.332   5.601  0.5002  0.9499 -0.9186
11861TIP3    H235541   0.305   2.339   5.745 -0.3036  1.1406 -0.6705
11862TIP3   OH235542   2.804   4.933   4.351  0.4886  0.4243 -0.6322
11862TIP3    H135543   2.894   4.913   4.325  0.3712  0.3715 -1.0031
11862TIP3    H235544   2.753   4.857   4.322  0.4993 -0.0711  0.6036
11863TIP3   OH235545   7.452   7.552   0.184  0.9018 -0.0288  0.5015
11863TIP3    H135546   7.449   7.642   0.216  1.2935  0.0462  0.3398
11863TIP3    H235547   7.446   7.560   0.089 -0.5368 -0.2684  0.5480
11864TIP3   OH235548   4.007   3.882   6.287  0.0768 -0.7617  0.3873
11864TIP3    H135549   4.040   3.929   6.364 -1.0170 -0.6592  0.8130
11864TIP3    H235550   4.018   3.790   6.309 -0.4940 -0.7368  0.7978
11865TIP3   OH235551   6.920   1.312   3.189 -0.2917 -0.5019  0.1007
11865TIP3    H135552   6.833   1.344   3.213 -0.4400 -0.5940 -0.3128
11865TIP3    H235553   6.937   1.350   3.103 -0.3503 -1.2914 -0.2712
11866TIP3   OH235554   6.099   6.616   0.587  0.4424 -0.1211 -0.2350
11866TIP3    H135555   6.043   6.611   0.664  0.8957 -0.9416  0.0592
11866TIP3    H235556   6.100   6.527   0.552  0.0889  0.2851 -1.3133
11867TIP3   OH235557   3.949   1.240   6.499 -0.4397 -0.8608  0.3056
11867TIP3    H135558   3.975   1.147   6.501 -4.3426 -2.2329 -1.8694
11867TIP3    H235559   3.966   1.267   6.409  1.4608  0.9334  1.1281
11868TIP3   OH235560   8.009   6.301   5.660 -0.3370  0.1416 -0.1037
11868TIP3    H135561   7.986   6.390   5.633  0.0686  0.6947  1.2583
11868TIP3    H235562   8.062   6.313   5.739 -2.8123 -1.3733  1.9427
11869TIP3   OH235563   6.289   1.828   5.144 -0.3118  0.3946 -0.1142
11869TIP3    H135564   6.378   1.808   5.116 -0.6983  2.2604 -3.1693
11869TIP3    H235565   6.239   1.748   5.126  0.5730 -0.4303  0.9872
11870TIP3   OH235566   3.985   5.599   0.573 -0.1424 -0.4570  0.2682
11870TIP3    H135567   3.908   5.585   0.628 -0.0290 -0.6734  0.3735
11870TIP3    H235568   3.951   5.635   0.491 -0.3113 -0.1172  0.4876
11871TIP3   OH235569   6.267   4.628   1.188 -0.1175 -0.2556  0.3565
11871TIP3    H135570   6.271   4.702   1.127  2.3922  0.0280  0.7578
11871TIP3    H235571   6.221   4.663   1.264 -0.0334  0.5432  0.0531
11872TIP3   OH235572   5.509   2.775   2.798 -0.4788  0.0242 -0.4178
11872TIP3    H135573   5.583   2.715   2.786 -1.1874 -1.3118  1.4301
11872TIP3    H235574   5.467   2.779   2.713  0.1379 -1.3695 -0.8096
11873TIP3   OH235575   1.922   1.943   6.194 -0.2928  0.1715 -0.7969
11873TIP3    H135576   1.947   1.936   6.286 -0.6759 -1.2770 -0.7774
11873TIP3    H235577   1.958   2.026   6.165 -1.4140  1.3590  1.0422
11874TIP3   OH235578   1.659   3.633   5.683 -0.3098 -0.5016  0.8171
11874TIP3    H135579   1.744   3.588   5.688 -1.1529 -2.1608  0.8840
11874TIP3    H235580   1.595   3.562   5.679 -1.6533  0.7212 -0.2123
11875TIP3   OH235581   0.521   3.745   5.711 -0.1162  0.2049  0.0534
11875TIP3    H135582   0.512   3.803   5.635  2.1922 -2.1546 -2.2367
11875TIP3    H235583   0.453   3.679   5.699  0.1807 -0.1061  0.0794
11876TIP3   OH235584   4.040   0.586   6.414  0.6147 -0.0952 -0.0331
11876TIP3    H135585   4.062   0.678   6.398  0.1738 -0.4028 -2.8164
11876TIP3    H235586   3.948   0.578   6.391  0.9129 -1.4242 -0.8910
11877TIP3   OH235587   6.698   3.067   3.920  0.0161 -0.1401  0.5262
11877TIP3    H135588   6.622   3.014   3.944 -0.3419  0.9821  2.0237
11877TIP3    H235589   6.664   3.129   3.855 -0.1715 -0.1012  0.6610
11878TIP3   OH235590   5.092   4.306   6.561 -0.2727  0.5465 -0.4278
11878TIP3    H135591   5.016   4.317   6.619  0.0922 -1.2682  0.4791
11878TIP3    H235592   5.078   4.220   6.521  0.8145  0.6274 -1.0079
11879TIP3   OH235593   8.241   6.926   3.531 -0.1622 -0.1228 -0.0435
11879TIP3    H135594   8.328   6.887   3.533 -0.7008 -1.3622  0.5195
11879TIP3    H235595   8.181   6.851   3.526 -1.1840  0.7141 -1.1282
11880TIP3   OH235596   5.357   3.916   6.650  0.1378 -0.5245 -0.4408
11880TIP3    H135597   5.282   3.875   6.694 -0.0963 -0.1266 -0.4652
11880TIP3    H235598   5.421   3.929   6.720 -0.4455  0.6077 -0.0823
11881TIP3   OH235599   7.230   4.081   2.678  0.0760  0.2498  0.4334
11881TIP3    H135600   7.278   4.078   2.595 -0.2937 -0.8099  0.2385
11881TIP3    H235601   7.159   4.018   2.667 -0.1064  0.2522  1.4770
11882TIP3   OH235602   0.218   2.159   2.493  0.2204  0.6138  0.4164
11882TIP3    H135603   0.167   2.090   2.451  0.3880  0.5213  0.3651
11882TIP3    H235604   0.243   2.122   2.577  0.1850  0.6679  0.4511
11883TIP3   OH235605   0.345   6.730   1.868 -0.1373  0.2526  0.2567
11883TIP3    H135606   0.374   6.658   1.812  0.0259  0.9683 -0.6034
11883TIP3    H235607   0.415   6.740   1.933 -0.6911 -1.0953  1.1045
11884TIP3   OH235608   1.190   4.120   4.050 -0.5869  0.1663  0.6797
11884TIP3    H135609   1.203   4.031   4.019  0.9469  0.7588 -0.4631
11884TIP3    H235610   1.151   4.166   3.976  0.8763  1.0114  0.4008
11885TIP3   OH235611   7.526   4.297   5.662  0.6660  0.4603  0.1579
11885TIP3    H135612   7.582   4.359   5.615  0.1291  0.5348 -0.4100
11885TIP3    H235613   7.447   4.291   5.608  0.2224  0.1855  0.8228
11886TIP3   OH235614   1.468   5.979   1.958  0.1318 -0.3924 -0.0192
11886TIP3    H135615   1.383   6.006   1.992  1.0169  0.2155  1.8652
11886TIP3    H235616   1.477   5.887   1.983  0.0798 -0.4192 -0.1003
11887TIP3   OH235617   5.828   0.064   5.501  0.0579  0.1695  0.0641
11887TIP3    H135618   5.822   0.141   5.559  0.7632  0.6079 -0.4375
11887TIP3    H235619   5.884   0.092   5.429 -1.9869  0.1325 -1.6497
11888TIP3   OH235620   3.395   1.174   5.304  0.8467 -0.8721 -0.1684
11888TIP3    H135621   3.459   1.225   5.256  0.8933 -1.7597 -1.0855
11888TIP3    H235622   3.447   1.114   5.358  0.8805  1.5314  2.7789
11889TIP3   OH235623   6.475   0.699   0.355  0.3498  0.4227 -0.3210
11889TIP3    H135624   6.522   0.685   0.272  0.0866 -1.1940 -0.2220
11889TIP3    H235625   6.383   0.688   0.333  0.2625  0.2183  0.1305
11890TIP3   OH235626   5.801   3.791   2.603  0.1780 -0.4517 -0.2137
11890TIP3    H135627   5.714   3.828   2.617  0.8868  0.5371  1.9686
11890TIP3    H235628   5.839   3.846   2.535 -0.0868  0.5960  0.4611
11891TIP3   OH235629   2.887   5.947   4.781 -0.1632 -0.3001  0.0605
11891TIP3    H135630   2.911   5.881   4.716  0.4069 -0.9763  0.9335
11891TIP3    H235631   2.827   6.005   4.735 -1.5563 -2.0497 -0.4211
11892TIP3   OH235632   6.865   1.706   1.306 -0.4841 -0.1779  0.7995
11892TIP3    H135633   6.951   1.749   1.311  0.1121 -1.0359 -1.0664
11892TIP3    H235634   6.813   1.764   1.250 -0.7961 -0.1783  1.0848
11893TIP3   OH235635   4.431   6.352   1.068 -0.8011 -0.3837 -0.4876
11893TIP3    H135636   4.523   6.369   1.049  0.2362 -4.4010  0.1193
11893TIP3    H235637   4.420   6.380   1.159 -0.2677  0.3088 -0.6270
11894TIP3   OH235638   1.586   2.075   4.541 -0.0019  0.0843  0.0659
11894TIP3    H135639   1.635   2.054   4.621 -0.3313 -1.5880 -0.1388
11894TIP3    H235640   1.647   2.058   4.470  0.5792  2.4034 -0.0724
11895TIP3   OH235641   7.257   5.974   1.321 -0.1281 -0.1059  0.4855
11895TIP3    H135642   7.259   6.044   1.386  0.5472  0.8104 -0.4919
11895TIP3    H235643   7.164   5.961   1.301 -0.2305  0.9015  0.2782
11896TIP3   OH235644   0.802   2.953   1.790  0.5348 -0.1856  0.0892
11896TIP3    H135645   0.748   2.977   1.714 -0.3875  0.0339  0.7977
11896TIP3    H235646   0.806   3.033   1.843  0.9789 -0.4060  0.4005
11897TIP3   OH235647   1.987   3.823   2.840  0.2368  0.1427 -0.3537
11897TIP3    H135648   2.031   3.892   2.888 -1.1722  0.7663  0.0644
11897TIP3    H235649   2.026   3.742   2.873  0.2790  0.6308  0.8193
11898TIP3   OH235650   3.636   4.409   0.033 -0.2424  0.3894  0.5074
11898TIP3    H135651   3.723   4.370   0.032 -0.4067 -0.0016  0.9747
11898TIP3    H235652   3.649   4.497   0.066 -0.1215  0.0710  1.3299
11899TIP3   OH235653   2.271   2.977   5.559 -0.5006 -0.0933 -0.1885
11899TIP3    H135654   2.356   3.021   5.560 -1.1904  1.2959  0.9731
11899TIP3    H235655   2.240   2.986   5.469 -0.7652  2.1816  0.0808
11900TIP3   OH235656   7.704   2.567   1.000  0.2977  0.2268 -0.1302
11900TIP3    H135657   7.637   2.629   0.970 -0.0464 -0.3805 -0.6190
11900TIP3    H235658   7.778   2.580   0.941  0.3576  0.4049 -0.0196
11901TIP3   OH235659   7.360   6.900   0.199 -0.0441 -0.3918  0.1880
11901TIP3    H135660   7.359   6.905   0.103 -1.8556 -2.2765  0.0283
11901TIP3    H235661   7.332   6.986   0.227 -0.6991 -0.1717 -1.0457
11902TIP3   OH235662   4.980   7.345   4.297 -0.1633  0.3524  0.4068
11902TIP3    H135663   4.916   7.372   4.363 -2.4566  1.4131 -2.0099
11902TIP3    H235664   4.934   7.278   4.246  1.1787  0.1603 -0.5926
11903TIP3   OH235665   6.923   4.694   3.054  0.0633 -0.4143  0.1887
11903TIP3    H135666   6.833   4.719   3.073  0.3242  0.6050  0.1645
11903TIP3    H235667   6.921   4.665   2.962  0.2239  2.2477 -0.7321
11904TIP3   OH235668   5.247   4.451   6.756  0.0996 -0.2108  0.2924
11904TIP3    H135669   5.314   4.383   6.763  0.0242 -0.2024  1.1894
11904TIP3    H235670   5.189   4.421   6.685 -0.1270 -1.2552  0.8978
11905TIP3   OH235671   4.504   7.368   2.210  0.2527  0.4263  0.4007
11905TIP3    H135672   4.558   7.303   2.168  1.5127  0.6536  1.5960
11905TIP3    H235673   4.416   7.330   2.211  1.0261 -1.4541  1.4255
11906TIP3   OH235674   5.326   5.785   0.198 -0.6864 -0.2295  0.0906
11906TIP3    H135675   5.360   5.737   0.123 -1.8060 -0.9816  0.0416
11906TIP3    H235676   5.366   5.743   0.274  2.3897  2.0706 -0.0873
11907TIP3   OH235677   3.522   5.334   0.524  0.0607  0.7179  0.5709
11907TIP3    H135678   3.456   5.307   0.459  1.3683  0.4853 -0.7149
11907TIP3    H235679   3.473   5.387   0.587 -1.1976  1.3133 -0.8435
11908TIP3   OH235680   7.128   2.621   2.708  0.0198  0.3990 -0.1405
11908TIP3    H135681   7.042   2.646   2.741 -0.4400 -0.8004 -0.3475
11908TIP3    H235682   7.188   2.690   2.738 -1.1807  1.8362 -0.9090
11909TIP3   OH235683   6.765   4.720   6.235 -0.5642 -0.0541  0.0086
11909TIP3    H135684   6.827   4.791   6.223  0.7242 -1.5889 -4.4484
11909TIP3    H235685   6.815   4.651   6.278 -0.9185  0.5905  1.5125
11910TIP3   OH235686   0.169   3.974   0.855  0.4384  0.0202 -0.3691
11910TIP3    H135687   0.097   3.995   0.914  1.7749 -0.2825  1.4711
11910TIP3    H235688   0.180   4.052   0.801 -0.3089  0.6286  0.3432
11911TIP3   OH235689   6.410   3.991   5.138 -0.0924  0.0145 -0.0699
11911TIP3    H135690   6.322   3.957   5.152  0.5834 -2.2799 -1.0176
11911TIP3    H235691   6.468   3.918   5.158  1.5877  1.2304 -0.2455
11912TIP3   OH235692   0.599   6.371   5.710 -0.2838 -0.9117  0.1755
11912TIP3    H135693   0.540   6.420   5.652 -0.0652 -0.5933  0.2183
11912TIP3    H235694   0.540   6.319   5.765 -0.6935  1.0452  1.7348
11913TIP3   OH235695   4.562   4.242   0.896  0.0471  0.2371 -0.6289
11913TIP3    H135696   4.642   4.289   0.872 -0.4269  1.5352  0.2180
11913TIP3    H235697   4.502   4.259   0.823  0.4029 -0.4487 -1.0986
11914TIP3   OH235698   5.175   2.714   6.651  0.0292  0.7293  0.2605
11914TIP3    H135699   5.211   2.648   6.711 -0.9243 -0.1697 -0.1288
11914TIP3    H235700   5.084   2.724   6.678 -1.0093 -1.1431 -2.1845
11915TIP3   OH235701   5.840   7.568   6.039 -0.6196 -0.1347 -0.0046
11915TIP3    H135702   5.876   7.598   6.122 -0.9178  3.1602 -0.9430
11915TIP3    H235703   5.747   7.552   6.057 -1.0129  1.9604  0.0568
11916TIP3   OH235704   0.578   2.513   4.664  0.4291  0.0735 -0.5970
11916TIP3    H135705   0.588   2.421   4.641  0.8474 -0.1835  0.5763
11916TIP3    H235706   0.607   2.519   4.755 -0.4095  1.2029 -0.3790
11917TIP3   OH235707   0.249   1.719   1.442  0.7020  0.4847 -0.2938
11917TIP3    H135708   0.185   1.736   1.372 -1.4582 -2.8894  0.6331
11917TIP3    H235709   0.325   1.682   1.397 -0.4452 -1.1176 -1.0025
11918TIP3   OH235710   4.820   3.931   1.077  0.2625  0.3832  1.0473
11918TIP3    H135711   4.838   4.010   1.027  2.1074  0.5805  1.9639
11918TIP3    H235712   4.888   3.927   1.143 -0.0883 -1.6960  1.3760
11919TIP3   OH235713   3.050   0.087   0.655  0.3764 -0.1565 -0.2295
11919TIP3    H135714   3.072   0.026   0.584  0.2437  0.5061 -0.8512
11919TIP3    H235715   3.133   0.126   0.680  0.5068 -0.8019  0.3785
11920TIP3   OH235716   7.708   4.372   2.750  0.0607 -0.2831  0.1006
11920TIP3    H135717   7.626   4.421   2.745  0.1225 -0.1509  0.3757
11920TIP3    H235718   7.722   4.357   2.844 -1.2993 -3.0897 -0.0534
11921TIP3   OH235719   3.277   0.536   2.908 -0.9568 -0.0756  0.3179
11921TIP3    H135720   3.286   0.624   2.943  0.2889  0.2206 -0.6516
11921TIP3    H235721   3.210   0.544   2.840  0.4186  0.5992 -1.0474
11922TIP3   OH235722   4.694   0.837   1.079 -0.4112 -0.4096 -0.0959
11922TIP3    H135723   4.668   0.852   1.170 -1.0666  1.4774 -0.5296
11922TIP3    H235724   4.655   0.753   1.056  1.1737 -1.7367  1.8278
11923TIP3   OH235725   5.938   1.931   4.397 -0.1871  0.0791  0.4375
11923TIP3    H135726   5.924   1.849   4.445  0.3799  0.0162  0.5024
11923TIP3    H235727   6.001   1.908   4.328 -0.1057  0.4375  0.3911
11924TIP3   OH235728   7.706   1.703   6.246  0.1861  0.4738 -0.1776
11924TIP3    H135729   7.742   1.771   6.190 -1.4225  1.3632 -0.1737
11924TIP3    H235730   7.629   1.670   6.199 -0.3887  0.2788  0.8684
11925TIP3   OH235731   5.643   0.321   2.653 -0.5847  0.5458  0.0974
11925TIP3    H135732   5.665   0.370   2.573  1.5444  0.2994  0.4533
11925TIP3    H235733   5.670   0.231   2.634  0.6756  0.6359  1.3217
11926TIP3   OH235734   0.544   7.741   3.096 -0.1448 -0.0945  0.7415
11926TIP3    H135735   0.498   7.718   3.176 -0.0434 -1.2032  0.4977
11926TIP3    H235736   0.479   7.734   3.027  0.3838 -1.8629  0.3683
11927TIP3   OH235737   4.808   5.763   3.468  0.2351  0.7432 -0.4724
11927TIP3    H135738   4.790   5.790   3.378 -0.7084  0.1382 -0.4741
11927TIP3    H235739   4.722   5.763   3.511  0.5465  0.1055  0.1706
11928TIP3   OH235740   2.801   7.683   5.720  0.3973  0.1133 -0.3653
11928TIP3    H135741   2.753   7.621   5.665  0.9346 -0.5566 -0.0935
11928TIP3    H235742   2.892   7.674   5.693  0.4168  1.2070 -0.7151
11929TIP3   OH235743   1.602   6.436   4.946  0.2648  0.3086  0.5301
11929TIP3    H135744   1.553   6.354   4.944  0.2131  0.3217  0.9915
11929TIP3    H235745   1.534   6.504   4.940  0.3090  0.3172  0.1302
11930TIP3   OH235746   6.607   6.212   1.624  0.6061 -0.0475 -0.4777
11930TIP3    H135747   6.619   6.241   1.533 -1.9412  0.1230 -0.8438
11930TIP3    H235748   6.605   6.117   1.618  1.2461 -0.0641 -0.4677
11931TIP3   OH235749   7.698   6.026   2.013 -0.4757 -0.0663  0.3018
11931TIP3    H135750   7.655   6.110   2.002  0.8270  0.4700 -0.9478
11931TIP3    H235751   7.629   5.961   1.999 -1.4230  0.7608  0.9714
11932TIP3   OH235752   5.644   2.892   3.902 -0.1582 -0.2122 -0.2453
11932TIP3    H135753   5.733   2.909   3.931 -0.1880 -1.4903  0.6754
11932TIP3    H235754   5.589   2.946   3.960 -0.0823 -1.0148  0.6031
11933TIP3   OH235755   1.620   4.755   0.234  0.6017 -0.6693  0.0253
11933TIP3    H135756   1.610   4.711   0.318  0.8287 -1.2892 -0.2665
11933TIP3    H235757   1.533   4.790   0.214  0.9869  1.2981  1.4901
11934TIP3   OH235758   7.048   6.398   5.477 -0.1367  0.0900 -0.0784
11934TIP3    H135759   7.020   6.368   5.563 -0.6809 -2.1357 -0.9715
11934TIP3    H235760   7.037   6.322   5.420  1.4805  1.1107 -1.8569
11935TIP3   OH235761   5.910   1.154   1.228  0.4303 -0.1165 -0.7043
11935TIP3    H135762   5.913   1.184   1.318  1.9193 -0.3829 -0.6250
11935TIP3    H235763   5.972   1.081   1.226 -1.6129 -1.9331 -1.3212
11936TIP3   OH235764   0.199   3.855   0.551  0.1649  0.0869 -0.0093
11936TIP3    H135765   0.167   3.919   0.616 -0.3946  0.7264 -0.8846
11936TIP3    H235766   0.288   3.883   0.532  0.3085 -0.0644  0.4421
11937TIP3   OH235767   2.314   5.746   2.256  0.2986  0.1973  0.0910
11937TIP3    H135768   2.237   5.690   2.268  0.4891 -0.0849  0.0160
11937TIP3    H235769   2.329   5.784   2.342  0.0767  0.2516  0.1073
11938TIP3   OH235770   5.444   0.687   2.256 -0.0597  0.1509  0.0112
11938TIP3    H135771   5.502   0.739   2.200  0.1285  0.2757  0.3221
11938TIP3    H235772   5.461   0.596   2.230  0.8420  0.1262  0.6224
11939TIP3   OH235773   2.908   6.161   6.332  0.1300 -0.1627  0.7245
11939TIP3    H135774   2.845   6.100   6.293 -0.1961 -0.3428  1.5053
11939TIP3    H235775   2.927   6.124   6.418  0.1437  0.6970  1.1017
11940TIP3   OH235776   5.934   1.596   4.145 -0.3394  0.5597 -0.2644
11940TIP3    H135777   5.889   1.525   4.191  2.1199 -0.4931  0.6351
11940TIP3    H235778   5.866   1.634   4.089 -2.0933 -1.5345  0.3034
11941TIP3   OH235779   4.078   2.233   1.192  0.3478 -0.6724  0.4700
11941TIP3    H135780   3.984   2.239   1.176  0.4923 -2.3436 -1.4353
11941TIP3    H235781   4.091   2.145   1.227  1.1960 -0.4713  0.6761
11942TIP3   OH235782   6.538   3.159   5.059 -0.3067  0.1351  0.0827
11942TIP3    H135783   6.613   3.167   5.001  0.6190 -0.5454  1.1343
11942TIP3    H235784   6.540   3.240   5.112  0.1600 -0.2233  0.6273
11943TIP3   OH235785   0.415   0.338   1.884 -0.6269  0.6758 -0.4477
11943TIP3    H135786   0.343   0.351   1.821 -0.6288  0.1300 -0.5635
11943TIP3    H235787   0.457   0.423   1.890 -1.0738  0.9153 -0.6434
11944TIP3   OH235788   1.955   5.968   4.143 -0.3608  0.1626 -0.3572
11944TIP3    H135789   1.933   5.877   4.167  1.1987 -0.2240 -0.2804
11944TIP3    H235790   2.023   5.993   4.206  0.3035  0.8478 -1.3206
11945TIP3   OH235791   0.315   0.570   0.222  0.5140 -0.0159  0.1061
11945TIP3    H135792   0.378   0.563   0.151 -2.0644  0.6493 -2.4182
11945TIP3    H235793   0.239   0.613   0.183  0.0390  3.3514  4.0748
11946TIP3   OH235794   1.069   7.111   5.452  0.0889 -0.2046  0.5716
11946TIP3    H135795   1.145   7.107   5.511  0.7261 -1.7384 -0.2803
11946TIP3    H235796   1.094   7.173   5.385 -0.1154  0.5738  1.2022
11947TIP3   OH235797   5.395   0.279   5.620 -0.1206  0.0378 -0.9564
11947TIP3    H135798   5.309   0.292   5.660  0.1692 -0.4278 -0.1632
11947TIP3    H235799   5.385   0.199   5.568  0.2485 -0.9191  0.3920
11948TIP3   OH235800   5.556   2.101   4.452  0.4560 -0.7410  0.1084
11948TIP3    H135801   5.593   2.060   4.530  0.5407 -0.0992  0.4068
11948TIP3    H235802   5.473   2.138   4.481  0.2079 -1.0059 -0.2467
11949TIP3   OH235803   2.845   2.467   1.788 -0.0249 -0.2624 -0.1480
11949TIP3    H135804   2.794   2.528   1.840  1.5901 -0.4178  1.7228
11949TIP3    H235805   2.879   2.519   1.715  0.2811  0.7639  0.7148
11950TIP3   OH235806   1.407   5.660   0.952 -0.5899  0.3938 -0.2041
11950TIP3    H135807   1.345   5.704   1.010  0.9734 -0.0939  1.9536
11950TIP3    H235808   1.448   5.732   0.902 -1.1487  0.9387  0.1121
11951TIP3   OH235809   6.967   0.960   4.294 -0.8774 -0.6559 -0.6200
11951TIP3    H135810   6.990   0.872   4.265 -0.9555 -1.0173  0.3590
11951TIP3    H235811   6.874   0.955   4.315 -0.3503 -1.1073  1.9564
11952TIP3   OH235812   3.607   6.837   2.934  0.1409 -0.3558  0.1263
11952TIP3    H135813   3.628   6.812   2.844 -1.0565  2.6226 -1.1388
11952TIP3    H235814   3.521   6.879   2.927 -0.3406 -0.7500  2.8218
11953TIP3   OH235815   6.978   5.985   1.252 -0.1732  0.2850  0.3436
11953TIP3    H135816   6.894   6.011   1.291  0.1125  0.7109  0.6944
11953TIP3    H235817   6.955   5.922   1.184 -0.6868 -0.5954  1.2916
11954TIP3   OH235818   7.311   0.240   3.112  0.1033 -0.6071 -0.3598
11954TIP3    H135819   7.249   0.176   3.076 -0.6203 -0.5416  0.7137
11954TIP3    H235820   7.349   0.196   3.189 -1.9209  0.9051  1.6575
11955TIP3   OH235821   0.708   4.469   4.263 -0.0567  0.3328 -0.3738
11955TIP3    H135822   0.696   4.390   4.316 -1.4003  0.0590 -1.0362
11955TIP3    H235823   0.630   4.472   4.206  0.7350  1.2690 -1.4653
11956TIP3   OH235824   7.947   3.164   3.070  0.1069  0.3246  0.7155
11956TIP3    H135825   7.891   3.127   3.138  0.2162  1.2384  1.3201
11956TIP3    H235826   7.985   3.242   3.110 -0.4042  1.3046 -0.6146
11957TIP3   OH235827   8.243   6.116   5.622 -0.0497  0.5451  0.0277
11957TIP3    H135828   8.202   6.031   5.610  1.0623 -0.1699  1.0415
11957TIP3    H235829   8.170   6.177   5.632 -0.8632 -0.1857 -1.2222
11958TIP3   OH235830   2.259   2.608   6.112  0.3521  0.5163 -1.1249
11958TIP3    H135831   2.191   2.635   6.174  0.1603 -0.6080 -0.8256
11958TIP3    H235832   2.211   2.596   6.029  0.1140 -0.5817 -0.8390
11959TIP3   OH235833   4.755   7.628   1.067 -0.0068 -0.1535  0.0284
11959TIP3    H135834   4.806   7.642   0.986 -1.2295  0.4666 -0.6572
11959TIP3    H235835   4.821   7.607   1.133  1.2341  1.3916 -0.6604
11960TIP3   OH235836   0.306   7.531   2.262 -0.5359  0.3495  0.1006
11960TIP3    H135837   0.339   7.539   2.351 -0.6439  1.2476  0.0653
11960TIP3    H235838   0.303   7.436   2.246 -3.0209  0.0145  1.9933
11961TIP3   OH235839   1.201   1.211   0.416 -0.4469  0.1732  0.3222
11961TIP3    H135840   1.107   1.225   0.422 -0.5331 -0.9785  2.7588
11961TIP3    H235841   1.210   1.127   0.371 -0.4814  1.0481 -1.3761
11962TIP3   OH235842   0.727   2.449   3.997  0.1739 -0.0103  0.2883
11962TIP3    H135843   0.774   2.482   3.921  0.2862 -1.8422 -0.4798
11962TIP3    H235844   0.791   2.394   4.043  0.5906  2.2080  2.5914
11963TIP3   OH235845   7.007   2.914   2.008  0.0104  0.1984 -0.3594
11963TIP3    H135846   7.013   2.990   1.949 -2.0423  1.6341  1.1389
11963TIP3    H235847   7.058   2.940   2.085  2.0828 -1.3828 -1.0993
11964TIP3   OH235848   8.261   2.492   5.155 -0.7055 -0.1875 -0.3103
11964TIP3    H135849   8.310   2.575   5.157 -0.5255 -0.2647 -1.1347
11964TIP3    H235850   8.212   2.495   5.073  0.1280 -1.3568 -0.8786
11965TIP3   OH235851   5.916   7.545   3.886 -0.0163  0.0291  1.2679
11965TIP3    H135852   5.989   7.576   3.832  0.9281 -0.2769  2.3357
11965TIP3    H235853   5.951   7.470   3.933 -1.4157 -0.9157  0.8739
11966TIP3   OH235854   7.140   1.471   0.824  0.0878  0.0295  0.7511
11966TIP3    H135855   7.122   1.446   0.915 -2.0712  1.4145  0.7781
11966TIP3    H235856   7.184   1.556   0.831  1.7432 -0.7721  0.5098
11967TIP3   OH235857   8.000   4.514   6.132  0.0388 -0.1546 -0.0535
11967TIP3    H135858   7.907   4.510   6.112 -0.0109 -1.2781  0.3106
11967TIP3    H235859   8.010   4.461   6.212  0.8391  0.7971  0.5031
11968TIP3   OH235860   1.150   0.175   3.641  0.2506  0.0620 -1.3073
11968TIP3    H135861   1.233   0.131   3.659  0.2296  0.5017  0.0379
11968TIP3    H235862   1.085   0.105   3.644  0.4072 -0.0694 -0.8444
11969TIP3   OH235863   7.635   6.624   2.211  0.2556  0.0780  0.2733
11969TIP3    H135864   7.676   6.687   2.270 -1.9619  0.3448  1.6278
11969TIP3    H235865   7.656   6.539   2.248  1.9448  0.0264 -0.6895
11970TIP3   OH235866   2.884   2.896   0.617  0.2538 -0.5840 -0.7000
11970TIP3    H135867   2.812   2.866   0.562  0.4019 -1.8041 -0.2685
11970TIP3    H235868   2.953   2.830   0.604  0.7214 -0.2587  0.0384
11971TIP3   OH235869   2.169   2.792   2.473  0.6389  0.0664  0.0492
11971TIP3    H135870   2.259   2.820   2.453  0.5977  0.8629  0.9104
11971TIP3    H235871   2.119   2.817   2.395  0.4451  3.3145  1.0467
11972TIP3   OH235872   3.231   4.494   6.742  0.5485 -0.0268  0.2474
11972TIP3    H135873   3.179   4.525   6.668 -1.0219  0.7798  1.6236
11972TIP3    H235874   3.256   4.405   6.718 -0.3596  0.0409 -1.0303
11973TIP3   OH235875   2.835   0.877   0.908 -0.0224  0.1111 -0.2589
11973TIP3    H135876   2.761   0.884   0.848 -0.1039 -0.0491 -0.1781
11973TIP3    H235877   2.878   0.795   0.883  2.5193  2.0646 -3.0239
11974TIP3   OH235878   2.635   1.867   4.205  0.0697 -0.5165 -0.3684
11974TIP3    H135879   2.550   1.833   4.234 -1.4552  0.5508 -3.1568
11974TIP3    H235880   2.672   1.908   4.283 -1.8426 -1.2605  1.0226
11975TIP3   OH235881   0.304   6.069   3.052 -0.4114 -0.4153 -0.0013
11975TIP3    H135882   0.340   6.031   3.132 -0.6876  0.8630  0.7620
11975TIP3    H235883   0.379   6.073   2.992  0.5162  1.2072  1.1920
11976TIP3   OH235884   1.921   7.782   1.565 -0.1620 -0.0613 -0.4208
11976TIP3    H135885   1.982   7.720   1.605 -2.0558 -2.4936 -0.9953
11976TIP3    H235886   1.967   7.866   1.565  1.9750 -1.1223  1.8110
11977TIP3   OH235887   7.249   5.187   0.090 -0.6106 -0.1970  0.2779
11977TIP3    H135888   7.258   5.249   0.163  0.7080  0.3168 -0.2927
11977TIP3    H235889   7.216   5.107   0.131 -1.0351  0.4493  1.2460
11978TIP3   OH235890   3.825   1.701   0.705  0.3211  0.6047 -0.1125
11978TIP3    H135891   3.855   1.773   0.760 -1.1185  0.9830  0.2194
11978TIP3    H235892   3.735   1.686   0.731  0.0731 -0.2217 -1.3312
11979TIP3   OH235893   7.543   0.249   0.422  0.0181 -0.8086 -0.3410
11979TIP3    H135894   7.557   0.310   0.495 -2.0175 -0.9587  0.2259
11979TIP3    H235895   7.632   0.225   0.394  0.8600 -0.0546  1.4950
11980TIP3   OH235896   8.170   5.882   4.882  0.2585 -0.6114 -0.2441
11980TIP3    H135897   8.199   5.957   4.829  2.1188 -1.3758 -0.3890
11980TIP3    H235898   8.198   5.805   4.833 -0.4405 -1.3896  0.5390
11981TIP3   OH235899   1.296   2.452   3.866 -0.4852  0.1108  0.0522
11981TIP3    H135900   1.336   2.527   3.910 -1.3429  0.3284  0.4780
11981TIP3    H235901   1.218   2.432   3.918 -0.0207 -1.3881  0.2410
11982TIP3   OH235902   7.999   0.416   3.718 -0.1289 -0.8920  0.3264
11982TIP3    H135903   8.011   0.483   3.651 -0.3510 -0.5222  0.6581
11982TIP3    H235904   8.035   0.336   3.678 -1.4757 -0.9828 -0.7633
11983TIP3   OH235905   0.267   4.626   3.980 -0.7596  0.0579  0.4207
11983TIP3    H135906   0.312   4.610   3.897  0.8289 -1.5067  1.5117
11983TIP3    H235907   0.264   4.721   3.987  0.8544  0.2157 -0.5116
11984TIP3   OH235908   6.102   6.771   4.076  0.0922 -0.2228 -0.0348
11984TIP3    H135909   6.180   6.754   4.129 -0.4615  2.3105  1.8285
11984TIP3    H235910   6.035   6.713   4.112  0.4487 -0.5318  0.1328
11985TIP3   OH235911   5.695   0.154   4.487 -0.5721  0.3786 -0.4477
11985TIP3    H135912   5.605   0.166   4.515 -0.1575  0.3995  0.9587
11985TIP3    H235913   5.727   0.242   4.468  0.3481  0.9698  3.0816
11986TIP3   OH235914   3.845   1.267   2.546  0.2958  0.4674 -0.0967
11986TIP3    H135915   3.765   1.215   2.538 -0.6863  1.6658  1.4931
11986TIP3    H235916   3.823   1.351   2.505  0.6918  0.8441  0.4525
11987TIP3   OH235917   1.860   5.432   6.635  0.5792 -0.1843 -0.3661
11987TIP3    H135918   1.777   5.475   6.655 -1.0185 -2.9497 -0.4925
11987TIP3    H235919   1.907   5.428   6.719 -1.1205 -1.8203  0.5909
11988TIP3   OH235920   6.082   0.796   2.474 -0.1782 -0.5459  0.1733
11988TIP3    H135921   6.111   0.884   2.450 -0.4718 -0.3907  0.3812
11988TIP3    H235922   6.034   0.808   2.555 -1.2213 -0.7274 -0.4011
11989TIP3   OH235923   1.163   5.478   2.476  0.3108 -0.7408 -0.0962
11989TIP3    H135924   1.212   5.399   2.453 -1.0555 -2.0115  1.1015
11989TIP3    H235925   1.169   5.484   2.571 -2.3875 -1.4019  0.2120
11990TIP3   OH235926   5.737   3.117   1.899  0.5116 -0.3866 -0.0846
11990TIP3    H135927   5.796   3.071   1.839 -0.3826  0.1513 -1.4273
11990TIP3    H235928   5.697   3.185   1.845 -0.3553  0.1061  1.1368
11991TIP3   OH235929   3.842   3.794   5.684 -0.0313 -0.6380 -0.1230
11991TIP3    H135930   3.819   3.833   5.768 -0.7272 -0.0967 -0.5499
11991TIP3    H235931   3.760   3.793   5.635  0.7470  1.0583 -1.5944
11992TIP3   OH235932   4.916   5.175   3.214  0.1531 -0.1607  0.4221
11992TIP3    H135933   4.867   5.229   3.276  1.5513  1.0668  0.5277
11992TIP3    H235934   5.005   5.175   3.248  0.7833 -0.1429 -1.1381
11993TIP3   OH235935   4.719   1.032   4.712  0.1368 -0.1407  0.4056
11993TIP3    H135936   4.743   1.115   4.671  2.3219 -0.0143  1.7444
11993TIP3    H235937   4.792   0.974   4.694 -1.8333 -2.2357 -1.4546
11994TIP3   OH235938   6.399   5.124   3.217 -0.3175  0.5196 -0.4127
11994TIP3    H135939   6.478   5.148   3.168  0.2976  1.5598  0.9991
11994TIP3    H235940   6.360   5.208   3.242 -1.9996  0.0244 -1.2238
11995TIP3   OH235941   6.874   3.030   3.704  0.2648 -0.0123  0.2673
11995TIP3    H135942   6.813   3.031   3.778  1.2629 -2.7837  1.2737
11995TIP3    H235943   6.821   3.003   3.629 -0.1693 -0.2611  0.6578
11996TIP3   OH235944   0.781   3.612   3.821 -0.2782 -0.1050  0.6469
11996TIP3    H135945   0.786   3.569   3.906  1.7859 -0.9341  0.1685
11996TIP3    H235946   0.738   3.548   3.764  1.4310 -0.9860  0.2946
11997TIP3   OH235947   6.138   6.989   0.072 -0.0743 -0.2090  0.2762
11997TIP3    H135948   6.229   7.006   0.049 -0.1473 -0.4781 -0.2224
11997TIP3    H235949   6.134   7.003   0.167  0.3394  0.4298  0.2071
11998TIP3   OH235950   1.385   3.247   5.422  0.3733 -0.1172  0.0605
11998TIP3    H135951   1.439   3.275   5.348  1.8123 -1.3274  0.5978
11998TIP3    H235952   1.384   3.322   5.481  0.7000  0.2345 -0.3724
11999TIP3   OH235953   3.941   3.958   1.082  0.2827 -0.3458  0.0895
11999TIP3    H135954   4.033   3.960   1.056 -0.0101  1.8777 -1.0188
11999TIP3    H235955   3.910   3.872   1.054  1.5904 -0.4495 -1.1553
12000TIP3   OH235956   5.951   3.362   5.780  0.7655 -1.2537  0.7998
12000TIP3    H135957   6.027   3.317   5.815  2.4561  1.1922  0.4920
12000TIP3    H235958   5.971   3.374   5.687  0.5513  0.3477  0.9265
12001TIP3   OH235959   7.480   0.312   0.879 -0.0882 -0.0523  0.1220
12001TIP3    H135960   7.417   0.252   0.919 -0.6835  0.8880  0.6247
12001TIP3    H235961   7.435   0.344   0.800 -0.6885  1.3899  1.0057
12002TIP3   OH235962   2.505   0.941   5.954  0.0992  0.7390 -0.4544
12002TIP3    H135963   2.510   0.972   5.864 -0.1013  0.0315 -0.7193
12002TIP3    H235964   2.576   0.877   5.961  0.1342  0.8143 -0.1002
12003TIP3   OH235965   2.557   3.741   4.554 -0.0691  0.3628 -0.4712
12003TIP3    H135966   2.641   3.786   4.565  0.7162 -0.8710 -1.1819
12003TIP3    H235967   2.509   3.761   4.634  1.0360  0.8212  0.1040
12004TIP3   OH235968   3.006   2.972   4.068  0.1093 -0.6133  0.3862
12004TIP3    H135969   3.025   3.042   4.130 -1.0345 -1.2562  1.4958
12004TIP3    H235970   2.921   2.995   4.031  0.3725 -0.7057 -0.2914
12005TIP3   OH235971   3.003   3.855   5.140  0.4132 -0.9954 -0.2980
12005TIP3    H135972   2.997   3.787   5.073  0.6341 -0.5735 -0.7474
12005TIP3    H235973   3.083   3.902   5.119  0.4750 -0.8525  0.2565
12006TIP3   OH235974   3.205   5.201   1.521 -0.3899 -0.0981 -0.4632
12006TIP3    H135975   3.135   5.240   1.468 -0.4401  2.2465  1.1745
12006TIP3    H235976   3.175   5.211   1.611  0.6547 -2.0327  0.1503
12007TIP3   OH235977   4.386   5.766   2.220  0.3647 -0.3215 -0.0268
12007TIP3    H135978   4.427   5.728   2.298  2.4601 -0.6627 -1.2036
12007TIP3    H235979   4.317   5.823   2.254 -0.5421 -2.4586  1.9382
12008TIP3   OH235980   6.804   6.358   2.789 -0.3930  0.5219  0.1169
12008TIP3    H135981   6.767   6.321   2.708  0.7182  1.0032 -0.6392
12008TIP3    H235982   6.806   6.452   2.772  1.7004  0.4752 -0.1195
12009TIP3   OH235983   2.993   6.769   5.209  0.4594  0.0406 -0.4597
12009TIP3    H135984   2.913   6.748   5.159 -0.5911  1.3157  0.5995
12009TIP3    H235985   2.972   6.852   5.253  2.6485  0.8013 -0.7268
12010TIP3   OH235986   3.701   4.705   2.406 -0.4264  0.3809  0.5089
12010TIP3    H135987   3.657   4.757   2.473  0.2586 -0.6760  1.8389
12010TIP3    H235988   3.662   4.618   2.414  0.6729 -0.1323  0.5408
12011TIP3   OH235989   7.599   3.557   5.328 -0.6518 -0.1644  0.2827
12011TIP3    H135990   7.548   3.583   5.405 -0.3767 -0.0210  0.4172
12011TIP3    H235991   7.670   3.621   5.323 -2.0530  1.3735 -1.5382
12012TIP3   OH235992   8.029   6.485   0.088 -0.5355  0.0583 -0.0003
12012TIP3    H135993   7.995   6.416   0.145 -1.5039 -0.0294 -0.6601
12012TIP3    H235994   8.113   6.510   0.128 -0.0059 -1.6985  0.0993
12013TIP3   OH235995   4.171   6.434   0.493 -0.0213 -0.1191  0.2017
12013TIP3    H135996   4.085   6.471   0.517 -1.2070 -3.2200  1.3325
12013TIP3    H235997   4.217   6.425   0.577  0.7625  0.0421 -0.2039
12014TIP3   OH235998   7.860   6.503   5.559  0.4165 -0.0159 -0.3147
12014TIP3    H135999   7.874   6.594   5.534 -0.2258  0.3901  0.7417
12014TIP3    H236000   7.783   6.505   5.615  2.0373 -0.8009  2.0887
12015TIP3   OH236001   2.253   0.831   2.096 -0.4842 -0.2163 -0.6165
12015TIP3    H136002   2.181   0.773   2.071 -0.9501  0.3674 -0.6423
12015TIP3    H236003   2.234   0.855   2.187  0.6107 -1.4429 -0.0265
12016TIP3   OH236004   1.623   5.370   0.254  0.1947  0.0362  0.1697
12016TIP3    H136005   1.549   5.313   0.275  0.9541 -0.8333  0.5408
12016TIP3    H236006   1.645   5.349   0.163  0.4038 -0.1882  0.2710
12017TIP3   OH236007   0.597   7.541   1.799  0.0972  0.3944 -0.2301
12017TIP3    H136008   0.666   7.584   1.849  0.0902  0.3864 -0.2132
12017TIP3    H236009   0.560   7.477   1.860  0.7111 -0.2682 -0.5529
12018TIP3   OH236010   2.949   1.144   3.099 -0.0251 -0.0496  0.2979
12018TIP3    H136011   2.991   1.126   3.183  0.1445 -0.4421  0.1308
12018TIP3    H236012   2.864   1.181   3.122 -0.6471 -1.6245  0.6694
12019TIP3   OH236013   0.093   3.895   3.109  0.5063  0.5041  0.0791
12019TIP3    H136014   0.145   3.971   3.134 -0.2495  0.6352  1.3443
12019TIP3    H236015   0.156   3.833   3.072  1.6050  0.5933  1.7010
12020TIP3   OH236016   1.554   2.893   2.837  0.3966 -0.0301 -0.4333
12020TIP3    H136017   1.484   2.889   2.771  0.2038 -1.3464 -0.1668
12020TIP3    H236018   1.630   2.853   2.794 -0.0753 -2.0768  0.5197
12021TIP3   OH236019   3.764   3.820   3.879  0.0398  0.2303 -0.1772
12021TIP3    H136020   3.755   3.737   3.926  0.4315  0.7918  0.9384
12021TIP3    H236021   3.815   3.798   3.801 -0.3256 -0.6724 -0.1724
12022TIP3   OH236022   0.452   6.726   4.742 -0.4147 -0.2418 -0.6477
12022TIP3    H136023   0.392   6.782   4.791 -0.7088 -0.1724 -1.0808
12022TIP3    H236024   0.405   6.643   4.732  1.1505 -1.7018  2.5865
12023TIP3   OH236025   3.051   4.282   1.569 -0.7248  0.1710  0.6642
12023TIP3    H136026   3.097   4.198   1.576  0.4494  0.7460  0.0777
12023TIP3    H236027   2.959   4.259   1.573 -0.4193 -1.1546  0.5045
12024TIP3   OH236028   6.988   0.624   2.233  0.3664 -0.2534  0.3378
12024TIP3    H136029   6.926   0.615   2.161  1.2243  0.1940 -0.4784
12024TIP3    H236030   7.054   0.685   2.200  2.3595 -2.2633  0.3852
12025TIP3   OH236031   2.662   2.600   2.350  0.1753 -0.3494  0.0331
12025TIP3    H136032   2.625   2.580   2.436  0.3506  0.2740  0.2548
12025TIP3    H236033   2.586   2.608   2.293  0.0061  0.1674  0.3285
12026TIP3   OH236034   2.285   5.341   2.625 -0.0372  0.7400  0.5139
12026TIP3    H136035   2.349   5.273   2.648 -1.6662 -1.8798 -1.9980
12026TIP3    H236036   2.336   5.421   2.620  2.5533 -0.7469  1.0056
12027TIP3   OH236037   0.427   2.123   1.125  0.0642 -0.0029 -0.0145
12027TIP3    H136038   0.369   2.143   1.052  0.9361  1.7280 -0.2686
12027TIP3    H236039   0.498   2.186   1.118 -0.2428  0.7873  2.8087
12028TIP3   OH236040   3.300   5.285   0.371  0.3415 -0.9680 -0.2312
12028TIP3    H136041   3.257   5.200   0.361 -0.6588 -0.4480 -0.4770
12028TIP3    H236042   3.298   5.324   0.284  0.3043 -0.4721 -0.0128
12029TIP3   OH236043   2.931   4.810   1.360 -0.3520 -0.0004  0.2479
12029TIP3    H136044   3.026   4.825   1.357 -0.5524  2.5635  2.4994
12029TIP3    H236045   2.921   4.715   1.353  2.1861 -0.2280 -2.0921
12030TIP3   OH236046   4.197   5.070   6.441 -0.3688 -0.2771  0.6533
12030TIP3    H136047   4.211   5.021   6.522  1.3642 -1.2693 -0.2078
12030TIP3    H236048   4.185   5.161   6.470  0.9824 -0.4862  1.9868
12031TIP3   OH236049   7.136   4.139   1.212  0.6731 -0.2827 -0.1297
12031TIP3    H136050   7.052   4.141   1.166 -0.1141 -0.9844  1.1955
12031TIP3    H236051   7.177   4.224   1.192 -0.2039 -0.0509 -1.0318
12032TIP3   OH236052   8.003   2.207   0.105 -0.8975 -0.1563  0.2972
12032TIP3    H136053   8.098   2.208   0.111 -0.9148  1.9595  0.7849
12032TIP3    H236054   7.977   2.132   0.159  0.4447 -0.0552  1.1361
12033TIP3   OH236055   3.150   6.971   6.185  0.0104  0.3005 -0.2769
12033TIP3    H136056   3.098   7.050   6.168  1.4950  1.5482  0.6987
12033TIP3    H236057   3.130   6.948   6.275  1.5134  1.1495  0.3163
12034TIP3   OH236058   0.888   0.424   1.607  0.3732 -0.0433  0.1141
12034TIP3    H136059   0.842   0.403   1.688  1.0765 -1.4205  0.1920
12034TIP3    H236060   0.822   0.414   1.538  0.3345 -1.2373  0.2977
12035TIP3   OH236061   6.242   0.766   6.286  0.1588  0.1407 -0.3049
12035TIP3    H136062   6.199   0.845   6.253  0.0027  0.6197  1.0052
12035TIP3    H236063   6.330   0.796   6.311 -0.2463  0.1356  1.1675
12036TIP3   OH236064   4.467   4.727   1.751  0.6966  0.4563  0.1712
12036TIP3    H136065   4.470   4.658   1.685 -0.6255  0.4790  0.0487
12036TIP3    H236066   4.374   4.751   1.756  0.7353  0.3923  2.0938
12037TIP3   OH236067   2.628   7.512   5.176  0.2093  0.0785  0.4640
12037TIP3    H136068   2.665   7.499   5.089  0.4259  1.1849  0.3736
12037TIP3    H236069   2.541   7.550   5.159  0.2246  0.2318  0.7193
12038TIP3   OH236070   1.677   3.061   3.619  0.5087 -0.5736  0.1030
12038TIP3    H136071   1.603   3.077   3.678  0.5923  0.9626 -0.1814
12038TIP3    H236072   1.670   3.129   3.552  3.4551  1.1092  1.3295
12039TIP3   OH236073   5.286   5.306   0.119  0.1404  0.1286 -0.8504
12039TIP3    H136074   5.368   5.262   0.143 -1.1808 -2.5382 -0.9084
12039TIP3    H236075   5.236   5.240   0.071 -3.0889  0.7761  1.3021
12040TIP3   OH236076   7.468   0.235   6.065  0.0193 -0.0741 -0.2448
12040TIP3    H136077   7.407   0.168   6.095  0.6994  0.0817  1.6084
12040TIP3    H236078   7.491   0.209   5.975  0.2691 -2.3214  0.4308
12041TIP3   OH236079   5.604   6.581   1.983 -0.2838  0.0525 -0.3043
12041TIP3    H136080   5.678   6.521   1.969 -0.3888  0.4636 -3.6078
12041TIP3    H236081   5.528   6.523   1.993  0.1993 -0.3535  1.2507
12042TIP3   OH236082   3.608   5.401   4.073 -0.4172 -0.4084 -0.0850
12042TIP3    H136083   3.655   5.446   4.143  0.0279 -1.5941  0.3957
12042TIP3    H236084   3.572   5.472   4.020  0.6229  0.5202  0.4042
12043TIP3   OH236085   6.038   4.365   1.574 -0.3077  0.3617 -0.6905
12043TIP3    H136086   6.072   4.313   1.501  0.5159 -0.1289  0.0365
12043TIP3    H236087   5.946   4.340   1.580  0.4461 -2.3812  0.7647
12044TIP3   OH236088   6.497   4.949   1.897  0.5051  0.2737 -0.5192
12044TIP3    H136089   6.499   4.924   1.804  2.7345  1.0019 -0.7341
12044TIP3    H236090   6.543   5.033   1.900  1.4478 -0.2538  1.3602
12045TIP3   OH236091   3.691   7.677   2.071  0.2214  0.1357  0.3436
12045TIP3    H136092   3.778   7.642   2.091  0.4742  0.3280 -0.4083
12045TIP3    H236093   3.656   7.619   2.004 -0.5245 -0.3609  1.1474
12046TIP3   OH236094   7.365   7.160   0.308  0.6269  0.1773 -0.2784
12046TIP3    H136095   7.438   7.219   0.284  0.9760 -0.4034 -0.6855
12046TIP3    H236096   7.313   7.210   0.370  0.4603  1.2421 -1.2308
12047TIP3   OH236097   0.839   5.104   5.635  0.6418 -0.2430 -0.0927
12047TIP3    H136098   0.765   5.124   5.577  0.3016  0.2265  0.4900
12047TIP3    H236099   0.845   5.179   5.693 -0.0076 -1.3540  1.4877
12048TIP3   OH236100   2.859   1.835   4.998  0.5875 -0.3788 -0.2840
12048TIP3    H136101   2.887   1.745   4.982  1.8922 -0.0118 -0.1318
12048TIP3    H236102   2.932   1.889   4.968  0.1805  0.5975  0.4302
12049TIP3   OH236103   2.806   1.344   5.296  0.5825  0.1811  0.4090
12049TIP3    H136104   2.843   1.312   5.213 -1.2513  2.6695 -1.5561
12049TIP3    H236105   2.878   1.389   5.339  1.7146 -1.6458  0.5187
12050TIP3   OH236106   1.816   4.684   6.466  0.5158 -0.5461  0.8112
12050TIP3    H136107   1.787   4.698   6.376  0.4213 -1.4551  0.6875
12050TIP3    H236108   1.868   4.762   6.487  0.2714 -0.1772  0.0886
12051TIP3   OH236109   3.662   7.425   5.870 -0.0296 -0.5711 -0.6788
12051TIP3    H136110   3.627   7.486   5.935 -0.3475 -0.5774 -0.8431
12051TIP3    H236111   3.748   7.460   5.848 -0.5330  0.2597 -1.3583
12052TIP3   OH236112   1.862   6.712   3.654 -0.2816  0.2652 -0.1726
12052TIP3    H136113   1.858   6.720   3.559 -2.2976  0.1345 -0.1321
12052TIP3    H236114   1.867   6.803   3.686  2.5101  0.2790 -0.3979
12053TIP3   OH236115   6.244   2.490   0.180  0.5022 -0.3863 -0.0152
12053TIP3    H136116   6.329   2.460   0.212 -0.3820  0.7259  3.9924
12053TIP3    H236117   6.249   2.586   0.185 -0.1382 -0.1798 -2.4083
12054TIP3   OH236118   5.776   6.986   0.686  0.0087 -0.6316 -0.3518
12054TIP3    H136119   5.791   6.951   0.773  1.5125 -0.1728 -0.3964
12054TIP3    H236120   5.683   7.007   0.684  0.1839  0.5871  1.6070
12055TIP3   OH236121   2.370   1.925   1.452  0.6630 -0.1891  1.0710
12055TIP3    H136122   2.299   1.979   1.487  1.2823  1.0242  0.5290
12055TIP3    H236123   2.437   1.988   1.425  1.1707 -1.2135 -0.1533
12056TIP3   OH236124   2.051   1.104   5.261 -0.3173 -0.0343 -0.6780
12056TIP3    H136125   2.009   1.043   5.201  0.1144 -1.4669  0.4132
12056TIP3    H236126   2.145   1.089   5.249 -0.1780  0.9510 -0.9146
12057TIP3   OH236127   5.196   4.908   2.496  0.2231 -0.5360 -0.0791
12057TIP3    H136128   5.124   4.965   2.525  1.0672 -0.2080  1.4997
12057TIP3    H236129   5.208   4.929   2.404 -1.3406 -0.2087 -0.2388
12058TIP3   OH236130   6.952   2.478   5.188 -0.5247  0.0147  0.3638
12058TIP3    H136131   6.940   2.477   5.283  1.2681 -1.1017  0.6211
12058TIP3    H236132   7.000   2.398   5.169 -0.4631  0.4438 -1.4407
12059TIP3   OH236133   1.670   5.154   6.158 -0.6007  0.2938 -0.1419
12059TIP3    H136134   1.751   5.204   6.171 -0.4779  0.2087 -0.5585
12059TIP3    H236135   1.600   5.214   6.183 -0.3607 -0.0205  1.3581
12060TIP3   OH236136   7.413   7.542   4.394 -0.2028 -0.3054 -0.7360
12060TIP3    H136137   7.342   7.568   4.336  0.0512 -0.6441 -1.2096
12060TIP3    H236138   7.478   7.613   4.386 -0.7053  0.2603  0.0966
12061TIP3   OH236139   0.044   3.523   3.076 -0.3271  0.0680 -0.1183
12061TIP3    H136140   0.010   3.504   2.989  0.5093 -0.3070 -0.3685
12061TIP3    H236141   0.136   3.545   3.062 -0.2424  0.2285  0.6455
12062TIP3   OH236142   4.074   1.554   3.115  0.2031  0.3318  0.1808
12062TIP3    H136143   4.071   1.519   3.204 -2.0977  0.1346  0.0806
12062TIP3    H236144   4.089   1.647   3.127 -0.3809  0.3560  0.8221
12063TIP3   OH236145   1.966   5.928   2.393 -0.4689  1.1492 -0.2670
12063TIP3    H136146   1.952   6.023   2.389  0.7968  1.3391 -0.6514
12063TIP3    H236147   1.984   5.903   2.302  1.8458  1.0152  0.1512
12064TIP3   OH236148   0.501   1.364   3.616 -0.1265  0.1585 -0.0744
12064TIP3    H136149   0.433   1.417   3.658 -1.3894  0.4217 -2.3120
12064TIP3    H236150   0.459   1.281   3.595 -0.2715  0.8007 -2.7044
12065TIP3   OH236151   6.455   6.643   3.434  0.2175 -0.0699 -0.1184
12065TIP3    H136152   6.474   6.696   3.357  1.2980  0.2428  0.3488
12065TIP3    H236153   6.495   6.691   3.507  1.0242 -1.3988  0.3541
12066TIP3   OH236154   7.952   2.957   5.889  0.4578 -0.0382  0.5324
12066TIP3    H136155   7.920   2.880   5.842 -0.0675 -0.4055  1.4555
12066TIP3    H236156   7.909   2.952   5.975  1.4290  0.5808  1.0737
12067TIP3   OH236157   6.154   4.600   6.505  0.2862  0.7910  0.0360
12067TIP3    H136158   6.226   4.602   6.568 -0.1784  1.6780  0.5507
12067TIP3    H236159   6.114   4.687   6.510 -0.9027  0.2845 -0.1405
12068TIP3   OH236160   5.734   1.572   1.878  0.5033 -0.4836  0.3654
12068TIP3    H136161   5.707   1.497   1.930  0.3786 -1.2961 -0.8377
12068TIP3    H236162   5.821   1.548   1.844  0.0179 -0.5670 -0.8882
12069TIP3   OH236163   1.619   7.607   6.045  0.6060  0.3475  1.1281
12069TIP3    H136164   1.571   7.671   6.098 -1.8966 -1.0821  0.7741
12069TIP3    H236165   1.573   7.607   5.961  2.7419  0.5366 -0.0912
12070TIP3   OH236166   7.706   4.027   1.918  0.1218 -0.0191  0.1406
12070TIP3    H136167   7.800   4.008   1.929  0.3558  0.7801 -0.3589
12070TIP3    H236168   7.675   4.043   2.007  1.0289  2.1065  0.1519
12071TIP3   OH236169   0.535   0.849   3.297  0.0951  0.2385 -0.1544
12071TIP3    H136170   0.483   0.928   3.313  0.5030  0.2443  1.2855
12071TIP3    H236171   0.611   0.858   3.355  0.3938 -0.9800 -0.3330
12072TIP3   OH236172   5.318   1.479   3.219  0.3652 -0.4326 -0.2037
12072TIP3    H136173   5.350   1.540   3.152  0.9636 -0.1152  0.3641
12072TIP3    H236174   5.293   1.401   3.170  0.9584 -0.2730 -0.7799
12073TIP3   OH236175   2.440   5.555   2.487  0.1417  0.0036 -0.0039
12073TIP3    H136176   2.419   5.526   2.398  1.2373 -0.7755 -0.0310
12073TIP3    H236177   2.427   5.650   2.484 -3.3536 -0.3480  0.0434
12074TIP3   OH236178   0.458   4.116   5.148  0.6647 -0.4264 -0.4102
12074TIP3    H136179   0.406   4.130   5.069 -0.0487 -0.6438  0.0135
12074TIP3    H236180   0.397   4.075   5.210  1.0329  0.3376  0.4735
12075TIP3   OH236181   0.787   2.420   0.475 -0.3972  0.2945  0.1752
12075TIP3    H136182   0.873   2.455   0.452 -0.6250  0.5701 -0.2801
12075TIP3    H236183   0.756   2.478   0.544 -0.5886  0.7383 -0.2763
12076TIP3   OH236184   3.675   0.997   6.632  0.0167 -0.3480 -0.3715
12076TIP3    H136185   3.706   0.955   6.712  1.3454  1.3221  0.0634
12076TIP3    H236186   3.690   0.933   6.563  1.4911 -0.7999  0.3316
12077TIP3   OH236187   4.488   2.434   2.213 -0.0568  0.2251  0.5719
12077TIP3    H136188   4.530   2.496   2.273 -0.4481  1.3969 -0.3245
12077TIP3    H236189   4.509   2.348   2.249  3.2744  0.6957  0.1013
12078TIP3   OH236190   0.961   6.081   0.149  0.4059  0.4264  0.0939
12078TIP3    H136191   0.932   6.131   0.072  0.9526  1.5919  0.6138
12078TIP3    H236192   0.881   6.065   0.199  0.1979  0.6873 -0.1483
12079TIP3   OH236193   1.246   4.129   1.665  0.2348  0.2655  0.2678
12079TIP3    H136194   1.317   4.187   1.690 -0.3776  1.2567 -0.2362
12079TIP3    H236195   1.269   4.045   1.705  1.4711  0.6650  0.4489
12080TIP3   OH236196   1.770   5.617   4.089  0.6069  0.0535 -0.3006
12080TIP3    H136197   1.726   5.536   4.114  2.7648 -1.1394 -0.1852
12080TIP3    H236198   1.741   5.633   3.999 -0.5364 -0.3042 -0.0170
12081TIP3   OH236199   1.999   2.675   1.388  0.2874  0.0453  0.0103
12081TIP3    H136200   2.003   2.614   1.314 -2.2161 -1.5572  1.0612
12081TIP3    H236201   2.079   2.658   1.438 -0.6489 -3.1021  0.6924
12082TIP3   OH236202   3.227   5.587   4.824 -0.8654 -0.0016 -0.1001
12082TIP3    H136203   3.138   5.581   4.789 -1.5870  1.7973  1.2786
12082TIP3    H236204   3.248   5.498   4.852 -2.0606 -0.5360 -0.8416
12083TIP3   OH236205   5.142   7.649   4.229  0.6109 -0.1001 -0.2156
12083TIP3    H136206   5.198   7.722   4.204  0.2010  0.5841  0.8103
12083TIP3    H236207   5.116   7.609   4.146  0.2864  1.3411 -0.8432
12084TIP3   OH236208   1.111   7.751   2.735 -0.3054 -0.3307 -0.1708
12084TIP3    H136209   1.033   7.773   2.685 -0.4657 -1.3159 -0.3757
12084TIP3    H236210   1.139   7.666   2.700  0.2418 -0.4910  0.6255
12085TIP3   OH236211   3.273   3.327   5.824 -0.3815 -0.1243  0.7196
12085TIP3    H136212   3.192   3.291   5.788  0.1250 -0.2135 -0.3683
12085TIP3    H236213   3.259   3.328   5.918 -1.8318  0.2990  0.5267
12086TIP3   OH236214   5.010   0.527   2.307 -0.9932  0.0316  0.1870
12086TIP3    H136215   5.035   0.557   2.395  0.7987  1.1612 -0.6598
12086TIP3    H236216   5.038   0.436   2.304 -2.2933 -0.4380  1.2106
12087TIP3   OH236217   7.938   0.864   4.005  0.2023  0.1377 -0.2364
12087TIP3    H136218   7.949   0.957   4.027  1.0907  0.0855 -0.4405
12087TIP3    H236219   8.025   0.834   3.982  0.1234 -1.0537  0.9265
12088TIP3   OH236220   3.344   3.913   6.599  0.1461 -0.3365  0.1205
12088TIP3    H136221   3.399   3.845   6.637  2.0515  0.5532 -0.9154
12088TIP3    H236222   3.406   3.975   6.560 -1.5154  1.9120  0.8686
12089TIP3   OH236223   0.582   3.416   2.509  0.2215 -0.1687 -0.4779
12089TIP3    H136224   0.658   3.357   2.506 -0.2599 -0.7622 -1.8355
12089TIP3    H236225   0.614   3.494   2.554  1.5688 -0.5057 -0.7947
12090TIP3   OH236226   0.543   2.974   1.362 -0.2485  0.2603  0.5656
12090TIP3    H136227   0.569   3.049   1.309 -1.0352  1.2084  1.5002
12090TIP3    H236228   0.557   3.002   1.452 -1.1529 -0.4847  0.9509
12091TIP3   OH236229   7.811   7.495   4.286 -0.5068 -0.1267  0.2658
12091TIP3    H136230   7.804   7.486   4.381  0.9017 -0.1918  0.3810
12091TIP3    H236231   7.763   7.420   4.252  0.3625 -1.0350  0.9747
12092TIP3   OH236232   4.944   3.350   4.062  0.1795 -0.5041 -0.0428
12092TIP3    H136233   4.954   3.329   4.155  0.0634 -0.3823 -0.0018
12092TIP3    H236234   4.988   3.279   4.016  0.0298 -0.6872  0.1000
12093TIP3   OH236235   5.216   7.324   5.083 -0.6454  0.1142  0.3428
12093TIP3    H136236   5.303   7.291   5.064 -0.1252  1.5351  0.1695
12093TIP3    H236237   5.214   7.411   5.045 -3.1165 -0.8937 -2.1838
12094TIP3   OH236238   3.610   7.746   3.201  0.0233  0.0515  0.3576
12094TIP3    H136239   3.538   7.793   3.160 -0.1673  0.8456  1.5716
12094TIP3    H236240   3.568   7.681   3.258  0.2516  0.4692  1.0141
12095TIP3   OH236241   2.573   5.450   1.797  0.0631 -0.2943 -0.2368
12095TIP3    H136242   2.592   5.478   1.707  0.7769 -0.5903 -0.1832
12095TIP3    H236243   2.655   5.464   1.844  0.2774 -1.9174 -0.0706
12096TIP3   OH236244   0.947   1.543   3.331 -0.0676  0.1008 -0.3042
12096TIP3    H136245   0.933   1.624   3.281 -1.1288  1.1397  1.5821
12096TIP3    H236246   0.862   1.500   3.331  0.4467 -0.9511 -1.1301
12097TIP3   OH236247   4.253   2.642   0.534  0.3341 -0.0044  0.2143
12097TIP3    H136248   4.271   2.551   0.559  0.6639  0.3056  1.1205
12097TIP3    H236249   4.321   2.663   0.470 -0.4973 -0.7890 -0.9794
12098TIP3   OH236250   0.527   1.931   5.248 -0.0815 -0.1690  0.2583
12098TIP3    H136251   0.597   1.926   5.182 -1.0370  0.5187 -0.8506
12098TIP3    H236252   0.514   2.025   5.261 -0.7986 -0.2931  0.4555
12099TIP3   OH236253   0.194   7.080   3.218  0.3739 -0.0177 -0.0041
12099TIP3    H136254   0.122   7.111   3.272  0.8905 -0.2693  0.8481
12099TIP3    H236255   0.154   7.060   3.133 -0.4781  0.2230  0.3309
12100TIP3   OH236256   1.016   3.068   6.436  0.5115 -0.4250  0.5764
12100TIP3    H136257   1.066   3.149   6.428 -1.9212  1.1467  0.4462
12100TIP3    H236258   1.083   2.999   6.432  2.8275  1.5548  2.0914
12101TIP3   OH236259   3.163   7.017   4.368  0.1251 -0.5315  0.2584
12101TIP3    H136260   3.180   6.940   4.313  3.1469 -0.7906  1.3547
12101TIP3    H236261   3.161   7.091   4.307 -0.5133 -1.2012 -0.5610
12102TIP3   OH236262   4.176   7.206   0.204  0.0703  0.1372 -0.5475
12102TIP3    H136263   4.211   7.284   0.245  1.7242 -1.1199  0.5507
12102TIP3    H236264   4.092   7.192   0.247  0.5104  0.4105  0.4361
12103TIP3   OH236265   1.578   3.182   4.048  0.0852 -0.2023 -0.4950
12103TIP3    H136266   1.544   3.136   3.971  0.4912 -0.1755 -0.6933
12103TIP3    H236267   1.656   3.133   4.073  1.6292  1.3962 -1.8430
12104TIP3   OH236268   6.133   3.138   3.560  0.0037  0.3562 -0.6955
12104TIP3    H136269   6.149   3.223   3.520 -0.9521  1.0951  0.3986
12104TIP3    H236270   6.160   3.149   3.651  0.9798 -0.8922 -0.7995
12105TIP3   OH236271   5.242   5.869   2.538 -0.3732  0.2773  0.2390
12105TIP3    H136272   5.229   5.827   2.453 -1.2648  0.3714  0.3178
12105TIP3    H236273   5.230   5.799   2.602 -0.9012  0.4459  0.3301
12106TIP3   OH236274   1.110   0.010   4.841  0.6253  0.2200 -0.4469
12106TIP3    H136275   1.069  -0.053   4.900  2.9861  0.2437  1.4114
12106TIP3    H236276   1.119   0.090   4.894 -0.9327  1.6924 -2.2587
12107TIP3   OH236277   0.045   6.048   3.291  0.2308  0.4988 -0.5417
12107TIP3    H136278   0.110   5.978   3.297  0.6402  1.0232  2.1089
12107TIP3    H236279   0.035   6.063   3.197  4.4275  0.8610 -1.1303
12108TIP3   OH236280   7.329   1.033   2.566  0.3341 -0.0882  0.4278
12108TIP3    H136281   7.425   1.034   2.556  0.5523  1.9261  1.9528
12108TIP3    H236282   7.315   1.021   2.660 -0.7633  2.1956  0.6286
12109TIP3   OH236283   2.075   2.638   4.572 -0.3020 -0.2412 -0.5579
12109TIP3    H136284   2.024   2.682   4.639 -0.0033 -0.6850 -0.0358
12109TIP3    H236285   2.166   2.649   4.599 -0.1732 -0.3309 -0.9453
12110TIP3   OH236286   5.171   5.294   4.319  0.1056 -0.0554  0.3838
12110TIP3    H136287   5.095   5.275   4.373  1.1401 -0.7027  1.6543
12110TIP3    H236288   5.136   5.345   4.245 -1.5045 -0.1648  1.0421
12111TIP3   OH236289   8.238   6.330   4.923  0.3547 -0.3332  0.5865
12111TIP3    H136290   8.289   6.362   4.848  0.8439  0.7144  1.3369
12111TIP3    H236291   8.177   6.266   4.885 -0.1693  0.9712 -0.9006
12112TIP3   OH236292   3.642   1.745   0.042 -0.0127  0.1969  0.0058
12112TIP3    H136293   3.645   1.811  -0.027 -1.4859 -0.6394 -0.9028
12112TIP3    H236294   3.584   1.783   0.109  0.6754  0.6171  0.3706
12113TIP3   OH236295   7.281   5.430   2.873 -0.1615 -0.2238 -0.3146
12113TIP3    H136296   7.345   5.422   2.802 -0.8721  0.1771 -1.0224
12113TIP3    H236297   7.316   5.499   2.929  0.0358 -0.0142 -0.6883
12114TIP3   OH236298   4.142   2.288   3.394 -0.1892 -0.3264  0.3246
12114TIP3    H136299   4.210   2.354   3.383  0.0163 -0.4414  0.8682
12114TIP3    H236300   4.176   2.230   3.462  0.3381 -1.9183 -1.2284
12115TIP3   OH236301   6.738   1.493   1.476 -0.2620 -0.0965 -0.1383
12115TIP3    H136302   6.778   1.565   1.428  2.8441 -0.1828  2.0175
12115TIP3    H236303   6.687   1.445   1.410  0.0781  2.2756 -2.2683
12116TIP3   OH236304   4.284   2.777   1.124  0.6987 -0.2931  0.0013
12116TIP3    H136305   4.242   2.863   1.120  0.6810 -0.2730  0.5199
12116TIP3    H236306   4.223   2.719   1.078  0.0427 -0.2770  0.8096
12117TIP3   OH236307   0.374   1.069   1.156 -0.4732  0.5543 -0.4304
12117TIP3    H136308   0.445   1.031   1.104  1.5712  1.9455  1.1711
12117TIP3    H236309   0.337   1.138   1.102 -0.2026  0.2182 -1.0471
12118TIP3   OH236310   6.070   5.897   1.119  0.3935  0.8850  0.4718
12118TIP3    H136311   6.149   5.914   1.067 -0.1920 -0.8483 -1.0547
12118TIP3    H236312   6.039   5.985   1.144  2.7574  1.6159  1.1359
12119TIP3   OH236313   0.714   3.561   4.361 -0.1175  0.1175 -0.0868
12119TIP3    H136314   0.743   3.587   4.449  0.7568  0.2590 -0.4141
12119TIP3    H236315   0.744   3.471   4.351 -1.6527 -0.4800  0.3788
12120TIP3   OH236316   2.300   1.878   0.505  0.4574  0.3316  0.2233
12120TIP3    H136317   2.337   1.878   0.594  1.4028  0.8361 -0.1530
12120TIP3    H236318   2.260   1.792   0.496  0.2839  0.2988  1.1647
12121TIP3   OH236319   6.864   2.243   6.346 -0.4285 -0.5721 -0.3224
12121TIP3    H136320   6.807   2.185   6.295 -1.1097 -1.2878  1.1736
12121TIP3    H236321   6.806   2.278   6.415 -0.0158  1.8224 -1.0877
12122TIP3   OH236322   4.673   2.506   0.606 -0.3153 -0.4223  0.2370
12122TIP3    H136323   4.756   2.544   0.577  0.6415 -1.6467  1.2458
12122TIP3    H236324   4.606   2.550   0.553  1.1784 -1.3416 -2.6166
12123TIP3   OH236325   7.092   3.049   6.103 -0.1208 -0.5110 -0.3391
12123TIP3    H136326   7.041   3.116   6.147 -1.5663 -2.0074  0.4047
12123TIP3    H236327   7.030   3.007   6.043  0.8148 -0.9682 -1.0144
12124TIP3   OH236328   3.709   1.592   5.719  0.1991  0.7794  0.4976
12124TIP3    H136329   3.649   1.568   5.789  0.0651  1.9532  0.8093
12124TIP3    H236330   3.738   1.681   5.742  3.6192 -0.3987  1.4840
12125TIP3   OH236331   3.771   5.906   0.741  0.4566  0.2948 -0.2700
12125TIP3    H136332   3.692   5.955   0.764  1.2875  2.4179 -1.6012
12125TIP3    H236333   3.740   5.833   0.689 -0.7496  0.0031  0.8105
12126TIP3   OH236334   7.855   1.536   4.887 -0.1510  0.3014 -0.2175
12126TIP3    H136335   7.920   1.480   4.928 -1.0693 -1.2136 -0.7285
12126TIP3    H236336   7.816   1.586   4.959 -0.3045 -0.7843  0.4709
12127TIP3   OH236337   7.389   6.659   2.406 -0.8243  0.0021  0.0602
12127TIP3    H136338   7.412   6.706   2.325 -0.5332 -0.1110  0.0804
12127TIP3    H236339   7.374   6.569   2.378  1.3439 -0.5234  0.4540
12128TIP3   OH236340   3.437   4.864   5.394  0.2152 -0.4484 -0.2562
12128TIP3    H136341   3.430   4.908   5.310 -0.0527 -0.6921 -0.3622
12128TIP3    H236342   3.349   4.872   5.432  0.4990  0.2257  0.2824
12129TIP3   OH236343   5.678   2.697   0.167 -0.4914  0.2384 -0.3228
12129TIP3    H136344   5.587   2.688   0.140 -0.4469 -0.2288 -0.3414
12129TIP3    H236345   5.685   2.644   0.247  0.3019 -1.7819 -1.6219
12130TIP3   OH236346   1.128   7.167   6.138 -0.3309 -0.3581  0.2187
12130TIP3    H136347   1.121   7.234   6.070  1.9325  0.8661  1.0849
12130TIP3    H236348   1.127   7.084   6.091 -0.1496  0.4054 -1.1865
12131TIP3   OH236349   2.458   1.264   2.267 -0.0054  0.1160 -0.7075
12131TIP3    H136350   2.516   1.188   2.262 -1.4007 -1.1288  0.6803
12131TIP3    H236351   2.456   1.299   2.178  1.2985 -0.9787 -1.2086
12132TIP3   OH236352   6.613   1.701   0.101 -0.0834 -0.1920  0.6387
12132TIP3    H136353   6.709   1.708   0.104 -0.1911  1.5597  3.4403
12132TIP3    H236354   6.595   1.666   0.014  2.9073  2.8575 -1.4893
12133TIP3   OH236355   7.062   1.257   6.026 -0.0958  0.4318  0.2482
12133TIP3    H136356   7.136   1.273   5.967 -1.4880  0.1426 -1.6863
12133TIP3    H236357   7.065   1.163   6.043 -1.4742 -0.1176 -2.0467
12134TIP3   OH236358   4.755   3.889   2.112  0.1061 -0.3358  0.7122
12134TIP3    H136359   4.679   3.905   2.167 -0.6493  2.1372 -0.8688
12134TIP3    H236360   4.784   3.801   2.135 -2.3729 -0.8092  2.3635
12135TIP3   OH236361   5.619   6.783   4.890  0.2205 -0.5996  0.4007
12135TIP3    H136362   5.571   6.713   4.846 -2.2544  1.9898 -1.3734
12135TIP3    H236363   5.562   6.809   4.962 -0.6903  1.7842 -1.0616
12136TIP3   OH236364   0.865   4.825   6.176  0.4617  0.1470 -0.5598
12136TIP3    H136365   0.847   4.821   6.082  0.9799  1.1143 -0.7192
12136TIP3    H236366   0.811   4.897   6.207 -0.4815 -0.8135  0.0932
12137TIP3   OH236367   3.222   2.084   4.187 -0.1115  0.0104  0.4710
12137TIP3    H136368   3.314   2.085   4.215 -0.0231 -0.9832  0.2768
12137TIP3    H236369   3.223   2.029   4.109 -0.7517  0.6691 -0.0087
12138TIP3   OH236370   6.392   1.992   0.964  0.9744  0.1346  0.3624
12138TIP3    H136371   6.297   1.984   0.977  0.8795  0.3504 -0.1634
12138TIP3    H236372   6.417   2.070   1.014  0.9904 -0.3226  1.0654
12139TIP3   OH236373   2.597   1.078   5.693  0.1626 -0.6549 -0.0148
12139TIP3    H136374   2.605   1.148   5.757  1.8571 -0.3990 -0.4492
12139TIP3    H236375   2.620   1.119   5.609 -1.5488 -1.0846 -0.7482
12140TIP3   OH236376   6.363   1.514   2.459  0.2216 -0.5715  0.6254
12140TIP3    H136377   6.357   1.464   2.378  2.9011 -3.4930  1.9851
12140TIP3    H236378   6.274   1.513   2.494 -0.4315 -1.7394 -0.9337
12141TIP3   OH236379   3.396   2.227   3.734  0.3312 -0.1998  0.7740
12141TIP3    H136380   3.422   2.234   3.642  1.0432 -0.1486  0.9702
12141TIP3    H236381   3.313   2.180   3.732 -0.4962  1.2563  0.0014
12142TIP3   OH236382   6.826   2.146   1.026  0.7633 -0.2460 -0.1121
12142TIP3    H136383   6.802   2.131   1.118  1.3420  1.9913  0.4621
12142TIP3    H236384   6.919   2.164   1.029  0.2117  3.3851 -0.5630
12143TIP3   OH236385   0.009   2.628   4.697 -0.3146  0.3808 -0.1074
12143TIP3    H136386   0.016   2.664   4.609  1.0848  0.2247 -0.0957
12143TIP3    H236387  -0.019   2.538   4.684  1.7265 -0.2556 -0.5940
12144TIP3   OH236388   0.166   2.865   6.167  0.6878  0.0176 -0.4773
12144TIP3    H136389   0.255   2.885   6.197  1.0199 -0.5303 -1.0771
12144TIP3    H236390   0.119   2.948   6.175  1.5457  0.5918 -1.1756
12145TIP3   OH236391   7.184   5.519   4.888 -0.0051  0.2328  0.7039
12145TIP3    H136392   7.173   5.556   4.976 -0.8162 -0.9916  1.1513
12145TIP3    H236393   7.169   5.425   4.900  0.0698  0.0215 -0.7111
12146TIP3   OH236394   5.808   5.423   1.963 -0.3783  0.2437  0.1703
12146TIP3    H136395   5.745   5.364   2.004 -0.7366 -1.1614 -2.1945
12146TIP3    H236396   5.764   5.508   1.962 -0.5674  0.2024  2.0670
12147TIP3   OH236397   3.709   5.233   3.883  0.0935  0.2969 -0.0101
12147TIP3    H136398   3.804   5.232   3.888  0.3676  2.5984 -2.7332
12147TIP3    H236399   3.681   5.278   3.963  1.0772 -1.8499  1.6519
12148TIP3   OH236400   5.314   4.223   3.302  0.5146 -0.0817  0.2477
12148TIP3    H136401   5.323   4.142   3.354 -2.1103 -0.5065  0.1864
12148TIP3    H236402   5.258   4.279   3.356  0.5145  0.8297 -0.6785
12149TIP3   OH236403   5.303   1.503   1.756  0.1726  0.0857  0.5038
12149TIP3    H136404   5.256   1.518   1.674 -0.5371  0.3673  0.9608
12149TIP3    H236405   5.387   1.548   1.744  0.6752 -1.0792 -0.6166
12150TIP3   OH236406   3.423   1.918   6.345  0.1084  0.0544 -0.5417
12150TIP3    H136407   3.391   1.848   6.402  0.8871  0.2087  0.1038
12150TIP3    H236408   3.518   1.918   6.358  0.1760  0.8407 -0.9817
12151TIP3   OH236409   7.068   6.548   5.041  0.2808  0.5103 -0.2071
12151TIP3    H136410   7.123   6.587   5.109 -1.1357 -0.8772  1.8703
12151TIP3    H236411   7.130   6.498   4.987  1.2148 -0.4087  1.6001
12152TIP3   OH236412   5.171   2.374   3.537 -0.2098  0.6403 -0.0101
12152TIP3    H136413   5.154   2.417   3.621 -0.5818 -0.1584  0.3385
12152TIP3    H236414   5.092   2.322   3.520  0.5555 -0.5872  0.0274
12153TIP3   OH236415   3.613   0.385   0.903  0.2231  0.0968 -0.7020
12153TIP3    H136416   3.624   0.294   0.878  0.3319  0.4540 -1.9959
12153TIP3    H236417   3.634   0.387   0.997  1.7124 -0.9294 -0.9949
12154TIP3   OH236418   0.625   5.701   5.367 -0.1429 -0.6680 -0.2018
12154TIP3    H136419   0.607   5.740   5.282  2.9609  0.5726 -0.4218
12154TIP3    H236420   0.674   5.769   5.414 -3.5496 -0.3747  3.5427
12155TIP3   OH236421   2.963   3.869   0.449  0.1327  0.1445 -0.0314
12155TIP3    H136422   2.945   3.850   0.357 -1.4688  0.7740  0.1084
12155TIP3    H236423   2.927   3.794   0.496 -3.2750  1.7697  0.3054
12156TIP3   OH236424   1.001   0.067   0.190  0.0433 -0.3798  0.5982
12156TIP3    H136425   1.078   0.084   0.245  0.0729 -0.1349  0.4791
12156TIP3    H236426   1.037   0.031   0.109 -0.0003 -0.7360  0.7312
12157TIP3   OH236427   3.839   7.057   0.819  0.0949 -0.6485  0.2643
12157TIP3    H136428   3.845   7.048   0.914 -0.4221 -3.2399  0.1288
12157TIP3    H236429   3.750   7.031   0.798 -0.3121  1.4387 -0.8500
12158TIP3   OH236430   7.768   5.117   6.369  0.0609  0.0525  0.0082
12158TIP3    H136431   7.680   5.081   6.371 -0.4806  1.3398  0.3269
12158TIP3    H236432   7.780   5.146   6.278  0.0133  0.2056  0.0503
12159TIP3   OH236433   5.360   7.220   4.023  0.1918 -0.4645  0.1118
12159TIP3    H136434   5.344   7.159   4.095  1.1060  0.5052  1.1736
12159TIP3    H236435   5.428   7.279   4.056  1.5510 -0.7275 -1.9713
12160TIP3   OH236436   1.081   4.342   2.015  0.0960 -0.6240  0.0511
12160TIP3    H136437   1.066   4.248   2.028 -0.2536 -0.4433  1.1181
12160TIP3    H236438   1.144   4.366   2.082 -1.3291  0.2711  1.1437
12161TIP3   OH236439   8.251   5.046   4.652 -0.0825  0.2343  0.5788
12161TIP3    H136440   8.188   5.110   4.620 -1.2013 -0.6698  0.9212
12161TIP3    H236441   8.318   5.098   4.697 -0.0794  1.2757 -0.5689
12162TIP3   OH236442   6.145   7.202   6.284 -0.4027 -0.2711 -1.0706
12162TIP3    H136443   6.067   7.148   6.273 -1.0012  0.1672  0.7750
12162TIP3    H236444   6.211   7.142   6.321 -1.6166  0.5322  2.7437
12163TIP3   OH236445   6.937   6.097   0.529  0.1782  0.0831  0.5727
12163TIP3    H136446   7.031   6.087   0.510 -0.0248  0.4850 -0.7512
12163TIP3    H236447   6.930   6.181   0.573  0.5247 -0.3036  1.3863
12164TIP3   OH236448   8.291   1.355   4.152  0.0865  0.2884  0.0241
12164TIP3    H136449   8.234   1.349   4.075  0.0318  2.8319 -0.2196
12164TIP3    H236450   8.343   1.433   4.137  1.0424  0.0958  1.9854
12165TIP3   OH236451   7.093   5.737   6.329 -0.4035 -0.2530 -0.6431
12165TIP3    H136452   7.134   5.768   6.410  0.7643  0.0019 -1.3182
12165TIP3    H236453   7.142   5.779   6.259 -1.8794  0.1124 -1.4983
12166TIP3   OH236454   7.735   5.183   4.045 -0.1766 -0.0332 -0.5692
12166TIP3    H136455   7.775   5.269   4.055 -1.2829  0.5266 -0.6955
12166TIP3    H236456   7.647   5.193   4.082 -0.2876 -1.1489 -0.4746
12167TIP3   OH236457   6.296   1.036   2.720  0.4937 -0.2223  0.2640
12167TIP3    H136458   6.270   0.989   2.799 -0.2572 -0.0581  0.1230
12167TIP3    H236459   6.234   1.108   2.714  1.7045  0.8874  0.5543
12168TIP3   OH236460   5.431   4.413   2.888 -0.4799 -0.4873  0.0527
12168TIP3    H136461   5.425   4.357   2.811  0.5441 -1.2629  0.5150
12168TIP3    H236462   5.452   4.353   2.960 -1.1505  0.2525  0.8959
12169TIP3   OH236463   3.202   3.539   3.902 -0.1263 -0.1830 -0.1588
12169TIP3    H136464   3.270   3.581   3.954 -0.4395 -0.0991  0.1877
12169TIP3    H236465   3.196   3.450   3.936  1.9935 -1.2411 -2.2581
12170TIP3   OH236466   5.227   1.164   5.224 -0.1470  0.4728 -0.6143
12170TIP3    H136467   5.156   1.196   5.280  0.0340 -1.0771  0.5603
12170TIP3    H236468   5.305   1.211   5.255 -0.5567  2.0656 -1.8097
12171TIP3   OH236469   6.222   0.564   5.250 -0.4008  0.2906 -0.3998
12171TIP3    H136470   6.212   0.507   5.326 -3.0345  0.1541 -0.7730
12171TIP3    H236471   6.291   0.522   5.198  1.6818  0.5485  1.9768
12172TIP3   OH236472   1.064   6.442   1.284 -0.3668  0.5890 -0.2638
12172TIP3    H136473   1.006   6.454   1.208 -0.4750 -1.3379 -0.5289
12172TIP3    H236474   1.103   6.355   1.271  1.9620  1.4610  0.3404
12173TIP3   OH236475   6.169   1.805   0.362  0.6203 -0.2815 -0.3495
12173TIP3    H136476   6.090   1.760   0.392 -0.5240  1.0589 -1.2560
12173TIP3    H236477   6.166   1.890   0.405  0.7259  0.3791 -1.6209
12174TIP3   OH236478   3.152   2.913   4.712  0.3658 -0.2640  0.1394
12174TIP3    H136479   3.124   2.826   4.682 -0.0017 -0.2669  0.4845
12174TIP3    H236480   3.197   2.896   4.795  0.3041 -0.1255  0.2006
12175TIP3   OH236481   5.589   5.594   3.178 -0.0837  0.1554  0.1973
12175TIP3    H136482   5.561   5.551   3.097 -0.5034 -1.4010  1.1053
12175TIP3    H236483   5.643   5.667   3.150 -0.5723 -0.0874 -1.4868
12176TIP3   OH236484   1.252   4.336   2.212 -0.3335 -0.3505 -0.7650
12176TIP3    H136485   1.229   4.339   2.305 -1.4942 -1.2360 -0.9982
12176TIP3    H236486   1.338   4.293   2.210 -0.5074 -0.7470 -0.1296
12177TIP3   OH236487   7.711   2.152   0.447 -0.2643  0.3717  0.6762
12177TIP3    H136488   7.728   2.244   0.429 -0.8128 -0.0182 -2.3927
12177TIP3    H236489   7.620   2.148   0.474 -0.7421  0.5994 -0.8372
12178TIP3   OH236490   3.991   6.131   6.060  0.2228 -0.0804  0.2319
12178TIP3    H136491   4.027   6.179   5.986 -2.0021 -1.5955 -1.9835
12178TIP3    H236492   4.051   6.057   6.073  1.4468  1.0088  1.0187
12179TIP3   OH236493   5.775   1.941   3.093  0.7705  0.5333  0.3242
12179TIP3    H136494   5.715   2.012   3.112  0.5237  0.8373 -1.4011
12179TIP3    H236495   5.846   1.982   3.043 -0.2855 -0.6475 -2.3353
12180TIP3   OH236496   8.232   3.397   2.845 -0.2617 -0.0792  0.2102
12180TIP3    H136497   8.164   3.428   2.785  1.2782 -0.7280 -1.9572
12180TIP3    H236498   8.242   3.304   2.824  2.8093  0.4410 -1.1482
12181TIP3   OH236499   1.187   0.477   4.217 -0.6545 -0.4325 -0.0851
12181TIP3    H136500   1.216   0.396   4.176 -0.6364 -0.5435  0.1462
12181TIP3    H236501   1.133   0.448   4.291 -0.1212 -0.2371  0.3826
12182TIP3   OH236502   5.118   4.017   6.520 -0.3559 -0.3229  0.2469
12182TIP3    H136503   5.079   3.965   6.590 -0.5313 -0.1104  0.3071
12182TIP3    H236504   5.209   4.027   6.546 -0.2112 -0.9749  0.0149
12183TIP3   OH236505   6.847   7.837   3.183 -0.5453  0.4287 -0.1293
12183TIP3    H136506   6.805   7.830   3.098 -0.2926  2.6071 -0.5115
12183TIP3    H236507   6.874   7.748   3.205 -1.1128 -0.2634 -2.0597
12184TIP3   OH236508   2.287   3.149   6.658  0.0873 -0.5452  0.7292
12184TIP3    H136509   2.209   3.183   6.702 -0.9131 -0.3934 -1.0471
12184TIP3    H236510   2.318   3.223   6.606 -0.6346 -1.5524 -1.2360
12185TIP3   OH236511   5.339   3.222   5.238  0.2188  0.0482 -0.6194
12185TIP3    H136512   5.372   3.312   5.240 -0.1297  0.1783  1.5154
12185TIP3    H236513   5.418   3.168   5.233  0.5635  0.4500  0.2748
12186TIP3   OH236514   0.812   6.410   6.486 -0.2759  0.1794 -0.0501
12186TIP3    H136515   0.843   6.391   6.575 -0.8117  1.0797  0.3420
12186TIP3    H236516   0.744   6.344   6.471 -0.3185  0.1461  0.2757
12187TIP3   OH236517   3.892   6.997   3.974 -0.3453 -0.0102 -0.7157
12187TIP3    H136518   3.916   6.975   4.064 -1.2617 -2.3830 -0.9857
12187TIP3    H236519   3.892   7.093   3.972 -3.5913  0.2897  2.7686
12188TIP3   OH236520   2.934   3.735   3.456 -0.3301 -0.3887 -0.3156
12188TIP3    H136521   2.965   3.826   3.460 -2.4507  0.3522  0.4935
12188TIP3    H236522   3.013   3.684   3.436  0.8965  1.6252 -0.9477
12189TIP3   OH236523   0.695   6.926   1.728  0.3537  0.0552 -0.4133
12189TIP3    H136524   0.773   6.878   1.700  0.1396  0.3511 -1.5785
12189TIP3    H236525   0.699   6.924   1.823  1.4112 -0.5405 -0.4493
12190TIP3   OH236526   6.242   1.843   0.081  0.0184  0.1050  0.0582
12190TIP3    H136527   6.270   1.934   0.071  2.0586 -0.4640  0.0950
12190TIP3    H236528   6.246   1.827   0.175 -1.5657  0.2993  0.1858
12191TIP3   OH236529   1.463   6.907   4.907 -0.6274  0.3829 -0.2903
12191TIP3    H136530   1.513   6.971   4.957 -0.0711 -0.5334  0.3636
12191TIP3    H236531   1.474   6.933   4.816  0.2836  0.7274 -0.0854
12192TIP3   OH236532   5.769   4.931   2.680  0.3823  0.3737 -0.7677
12192TIP3    H136533   5.689   4.982   2.666 -0.2214  0.4028  2.0983
12192TIP3    H236534   5.748   4.844   2.646 -0.8657  0.4095 -0.1607
12193TIP3   OH236535   7.293   3.491   0.481  0.4479  0.1112  0.0838
12193TIP3    H136536   7.218   3.432   0.473  0.7057 -0.4856  1.5984
12193TIP3    H236537   7.280   3.557   0.413 -0.5722 -0.9183 -0.7520
12194TIP3   OH236538   4.630   2.324   3.164  0.0899 -0.5413 -0.1015
12194TIP3    H136539   4.634   2.420   3.164  1.6036 -0.5580 -1.3324
12194TIP3    H236540   4.633   2.300   3.257 -2.0174  0.6004  0.3247
12195TIP3   OH236541   5.542   2.740   5.065 -1.0656 -0.2744  0.1858
12195TIP3    H136542   5.623   2.754   5.113  0.0166  2.1454 -2.0996
12195TIP3    H236543   5.475   2.786   5.117 -0.9000 -1.6352  1.6837
12196TIP3   OH236544   6.686   1.648   3.824  0.3862  0.6996  0.7107
12196TIP3    H136545   6.617   1.643   3.889 -0.0321  0.2105  0.2374
12196TIP3    H236546   6.641   1.639   3.740  0.8938  1.4782  0.3376
12197TIP3   OH236547   1.187   6.218   1.869  0.2707 -0.1690 -0.0647
12197TIP3    H136548   1.180   6.126   1.897  1.9930 -0.1024  0.7011
12197TIP3    H236549   1.279   6.229   1.846  0.4753  1.8122  1.4930
12198TIP3   OH236550   6.758   5.341   0.681  0.7590  0.5468  0.3016
12198TIP3    H136551   6.694   5.327   0.751  1.1869 -2.2952  0.2594
12198TIP3    H236552   6.704   5.354   0.603  0.2448  0.5056  0.6382
12199TIP3   OH236553   3.051   6.823   3.093  0.2147  0.4518 -0.0409
12199TIP3    H136554   3.017   6.776   3.017  0.8595 -1.1180  0.5842
12199TIP3    H236555   3.062   6.913   3.063 -0.1157  0.0057 -1.6128
12200TIP3   OH236556   3.162   2.594   1.511  0.0830  0.1910 -0.8093
12200TIP3    H136557   3.243   2.609   1.463  0.9707 -1.2683  0.1684
12200TIP3    H236558   3.162   2.660   1.580  0.3201  0.3266 -0.9388
12201TIP3   OH236559   2.209   5.785   6.588 -0.2822  0.2199 -0.1073
12201TIP3    H136560   2.138   5.764   6.648 -2.0584 -0.9960 -2.4858
12201TIP3    H236561   2.263   5.848   6.636 -2.3772  0.4104  2.1825
12202TIP3   OH236562   6.432   6.639   5.877 -0.2444 -0.0008 -0.1111
12202TIP3    H136563   6.443   6.703   5.807 -0.4947  0.3401  0.1569
12202TIP3    H236564   6.338   6.624   5.881 -0.1525 -0.6830 -0.4311
12203TIP3   OH236565   4.404   0.215   1.821 -0.4387 -0.1620  0.5497
12203TIP3    H136566   4.414   0.214   1.916  3.0741 -1.7496  0.3029
12203TIP3    H236567   4.427   0.127   1.793  1.7253  1.0490 -1.9368
12204TIP3   OH236568   5.587   0.917   5.835  0.0666  0.1349  0.3032
12204TIP3    H136569   5.652   0.866   5.788  0.8918 -0.0118  1.5682
12204TIP3    H236570   5.503   0.880   5.807  0.6262 -2.1970  1.4117
12205TIP3   OH236571   7.203   5.928   5.054 -0.6197  0.0876 -0.1424
12205TIP3    H136572   7.240   6.009   5.019 -1.4787  1.9124  2.7658
12205TIP3    H236573   7.271   5.894   5.112 -0.8005 -0.5148 -0.2763
12206TIP3   OH236574   6.600   2.838   3.040  0.2240  0.0052 -0.8046
12206TIP3    H136575   6.656   2.812   3.113 -1.3777  1.4911  1.0820
12206TIP3    H236576   6.586   2.757   2.990  0.2074 -1.4306  1.3799
12207TIP3   OH236577   3.252   2.887   2.382 -0.0089 -0.5463 -0.1893
12207TIP3    H136578   3.267   2.793   2.377 -0.9608 -0.7168  0.0296
12207TIP3    H236579   3.254   2.916   2.290  1.4344 -0.5711 -0.1904
12208TIP3   OH236580   2.653   3.025   0.484 -0.1608  0.5353  0.2177
12208TIP3    H136581   2.592   3.025   0.557  0.3878 -1.5295  0.7327
12208TIP3    H236582   2.657   2.934   0.456  3.2533  0.4129  0.6996
12209TIP3   OH236583   2.875   0.166   2.647  0.0410  0.3921 -0.2181
12209TIP3    H136584   2.936   0.096   2.668 -0.3237  0.1881  0.1670
12209TIP3    H236585   2.856   0.154   2.554  0.3719  0.2909 -0.2734
12210TIP3   OH236586   2.173   0.084   2.853  0.4164 -0.2708 -0.6009
12210TIP3    H136587   2.120   0.073   2.932 -0.8328  1.2044 -1.1696
12210TIP3    H236588   2.259   0.113   2.886 -0.1792  0.6383  0.2210
12211TIP3   OH236589   3.093   3.800   1.664  0.0315  0.0845  0.2591
12211TIP3    H136590   3.086   3.706   1.675  1.5887 -0.0667  0.0927
12211TIP3    H236591   3.124   3.812   1.574  2.8077  0.5730  1.1983
12212TIP3   OH236592   3.415   2.151   5.575  0.1312 -0.6504  0.1699
12212TIP3    H136593   3.373   2.219   5.522  1.8877 -1.0495 -1.8941
12212TIP3    H236594   3.448   2.197   5.652 -0.4788  0.4295 -0.2000
12213TIP3   OH236595   4.285   1.101   2.511  0.8298  0.0088  0.2416
12213TIP3    H136596   4.355   1.062   2.459  0.1163 -0.0921 -0.6564
12213TIP3    H236597   4.273   1.039   2.584  2.0815  0.3403  0.7605
12214TIP3   OH236598   6.891   3.898   2.496  0.1562  1.0518 -0.0298
12214TIP3    H136599   6.928   3.986   2.500  2.7374  0.0138  2.2881
12214TIP3    H236600   6.966   3.839   2.497 -1.4423 -1.2670 -2.2268
12215TIP3   OH236601   3.121   5.985   6.458 -0.4180 -0.0731  0.0340
12215TIP3    H136602   3.199   5.930   6.447  0.1107  0.5881  0.3733
12215TIP3    H236603   3.110   6.028   6.372  1.0895  1.7173  0.6609
12216TIP3   OH236604   1.212   1.041   6.562  0.1345 -0.0034  0.3483
12216TIP3    H136605   1.196   0.967   6.620 -0.6109  0.4657  0.7550
12216TIP3    H236606   1.301   1.068   6.581  1.0382 -1.8425 -1.0082
12217TIP3   OH236607   7.080   0.398   5.591  0.5223  0.6648  0.0336
12217TIP3    H136608   7.042   0.474   5.546 -0.4807  0.9201  1.2620
12217TIP3    H236609   7.173   0.402   5.570  0.5675  2.4915  0.4014
12218TIP3   OH236610   2.285   0.531   3.954 -0.0141 -0.2535  0.0242
12218TIP3    H136611   2.260   0.592   4.023  0.5505  1.0308 -0.8564
12218TIP3    H236612   2.374   0.559   3.929  0.9421 -2.4644  0.6896
12219TIP3   OH236613   3.955   3.039   4.374  0.1890  0.2323 -0.3413
12219TIP3    H136614   4.037   3.041   4.325 -0.2458  1.2663 -1.0538
12219TIP3    H236615   3.959   3.115   4.432 -1.2325  1.7188 -2.0647
12220TIP3   OH236616   3.055   3.909   2.596 -0.9029  0.4698 -0.3232
12220TIP3    H136617   3.028   3.884   2.508  2.0512  1.8685 -1.7714
12220TIP3    H236618   2.997   3.981   2.619 -0.2780  1.6341 -2.1733
12221TIP3   OH236619   6.419   4.056   0.011  0.0380 -0.0176  0.4369
12221TIP3    H136620   6.408   4.147   0.039  1.4429  0.6429 -0.9804
12221TIP3    H236621   6.414   4.005   0.092 -0.5411  1.3328  1.2866
12222TIP3   OH236622   2.278   0.224   5.894 -0.2306 -0.0525 -0.3508
12222TIP3    H136623   2.330   0.169   5.835  0.1252 -0.1965  0.0974
12222TIP3    H236624   2.311   0.204   5.981 -0.8909  0.0195 -0.0801
12223TIP3   OH236625   3.339   6.963   2.604 -0.1084  0.6926 -0.1422
12223TIP3    H136626   3.314   6.886   2.552  0.2051 -0.0783  0.8089
12223TIP3    H236627   3.326   6.935   2.694  0.6430  1.5460  0.2392
12224TIP3   OH236628   6.778   0.590   2.047  0.1810  0.4531 -0.0306
12224TIP3    H136629   6.749   0.514   2.096  1.3517 -0.6771 -1.0060
12224TIP3    H236630   6.706   0.610   1.988  0.6996 -1.3693 -1.3739
12225TIP3   OH236631   5.374   1.792   4.421  0.0054  0.5029 -0.0299
12225TIP3    H136632   5.286   1.829   4.406  0.1760  0.4930 -1.1362
12225TIP3    H236633   5.394   1.814   4.512 -1.0172  0.7772  0.1430
12226TIP3   OH236634   3.435   0.069   1.475 -0.0988  0.0635  0.0778
12226TIP3    H136635   3.470   0.158   1.466  0.6716 -0.2068  0.3918
12226TIP3    H236636   3.379   0.058   1.398 -0.9822  1.1759  0.5272
12227TIP3   OH236637   3.164   5.207   3.404  0.4583 -0.1797  0.1295
12227TIP3    H136638   3.123   5.269   3.344 -0.7467 -1.2544 -0.2077
12227TIP3    H236639   3.141   5.121   3.369  0.9714 -0.8285  1.3196
12228TIP3   OH236640   2.127   0.758   1.665 -0.2695 -0.0553 -0.4199
12228TIP3    H136641   2.070   0.823   1.623 -0.0519  0.6262  0.3176
12228TIP3    H236642   2.190   0.734   1.597 -0.4926  0.3321 -0.7700
12229TIP3   OH236643   6.788   5.558   3.367  0.2912 -0.3202 -0.2074
12229TIP3    H136644   6.808   5.639   3.319  1.3318 -0.4180  0.0421
12229TIP3    H236645   6.862   5.546   3.426 -0.5861 -0.6413  0.8704
12230TIP3   OH236646   2.552   2.835   2.077  0.1980  0.0456  0.1546
12230TIP3    H136647   2.512   2.761   2.122 -0.4744 -0.6250 -1.4758
12230TIP3    H236648   2.479   2.894   2.058  0.5157  0.4575  0.1946
12231TIP3   OH236649   2.092   4.059   3.990  0.2562  0.0955 -0.3848
12231TIP3    H136650   2.160   4.126   3.981  0.2428 -0.0532 -1.7734
12231TIP3    H236651   2.134   3.989   4.039  1.1099  0.0235 -1.1918
12232TIP3   OH236652   7.945   2.520   5.551 -0.3678 -0.5385  0.1286
12232TIP3    H136653   7.994   2.466   5.489  1.2042  1.7440 -0.7548
12232TIP3    H236654   7.853   2.501   5.531  0.0986 -0.7955 -2.1054
12233TIP3   OH236655   3.162   3.681   6.741 -0.2807  0.2826  0.3909
12233TIP3    H136656   3.176   3.663   6.648  2.9118  0.2850  0.7601
12233TIP3    H236657   3.139   3.774   6.743 -1.1124  0.1152 -0.4175
12234TIP3   OH236658   1.891   0.873   1.634 -0.6082  0.3548 -0.3144
12234TIP3    H136659   1.866   0.964   1.649  2.1436  1.2943 -0.8322
12234TIP3    H236660   1.889   0.833   1.721 -2.6451  0.6245 -0.1907
12235TIP3   OH236661   6.390   5.699   0.366  0.5900 -0.0693 -0.3907
12235TIP3    H136662   6.402   5.674   0.458  1.7784 -1.1993 -0.8183
12235TIP3    H236663   6.477   5.727   0.338  0.3622 -0.3062 -1.3406
12236TIP3   OH236664   5.935   0.277   2.747 -0.8527  0.1629 -0.1702
12236TIP3    H136665   5.900   0.354   2.792 -0.9280 -0.1261  0.2824
12236TIP3    H236666   5.896   0.203   2.795  0.2414 -0.1652  0.2303
12237TIP3   OH236667   7.486   7.706   1.612 -0.2234  0.0366 -0.4375
12237TIP3    H136668   7.422   7.753   1.559  0.9010  2.8024  0.4888
12237TIP3    H236669   7.541   7.775   1.650 -0.2864 -1.8049  3.4517
12238TIP3   OH236670   5.747   6.728   3.641 -0.5552  0.4908  0.3420
12238TIP3    H136671   5.842   6.728   3.654 -0.6509 -1.3986  1.4413
12238TIP3    H236672   5.731   6.658   3.578 -1.1614  1.5069 -0.6709
12239TIP3   OH236673   2.230   1.442   1.114  0.3938  0.3592 -0.3802
12239TIP3    H136674   2.303   1.381   1.102  1.2590  1.2355  0.2818
12239TIP3    H236675   2.246   1.482   1.200 -1.1207  0.2478 -0.0133
12240TIP3   OH236676   0.792   3.102   4.339 -0.5741 -0.3631 -0.1349
12240TIP3    H136677   0.741   3.143   4.409 -1.4768 -1.4652 -0.1228
12240TIP3    H236678   0.860   3.052   4.386  1.0635  1.6891 -0.1647
12241TIP3   OH236679   1.409   3.928   4.649 -0.7196  0.3511  0.2047
12241TIP3    H136680   1.467   3.977   4.591 -1.1182 -1.2837 -1.6488
12241TIP3    H236681   1.323   3.933   4.607 -0.9869 -1.0069  0.5420
12242TIP3   OH236682   4.370   3.451   6.347  0.3612 -0.4067 -0.2623
12242TIP3    H136683   4.376   3.401   6.429 -1.8595 -0.1272  0.1458
12242TIP3    H236684   4.380   3.385   6.278  0.0621 -1.0076  0.2577
12243TIP3   OH236685   0.551   7.331   5.061 -0.1649  0.3684  0.3943
12243TIP3    H136686   0.631   7.336   5.009 -0.5550  0.0102 -0.2532
12243TIP3    H236687   0.579   7.293   5.145  0.6730  2.0494  0.9190
12244TIP3   OH236688   4.603   3.973   2.540 -0.0796  0.1992  0.4663
12244TIP3    H136689   4.513   3.956   2.568 -0.1150 -0.9577 -0.2733
12244TIP3    H236690   4.607   4.068   2.528 -1.2712  0.2454  0.2909
12245TIP3   OH236691   6.658   1.038   4.815 -0.1692 -0.1691  0.4372
12245TIP3    H136692   6.702   0.999   4.740  0.0813 -0.2644  0.6339
12245TIP3    H236693   6.643   0.965   4.875 -1.1916 -0.2630  0.0915
12246TIP3   OH236694   1.949   5.887   3.516  0.3365 -0.5473  0.2746
12246TIP3    H136695   2.036   5.859   3.488  1.3807  0.6382  2.1501
12246TIP3    H236696   1.964   5.968   3.565 -2.1259  1.2181 -1.6313
12247TIP3   OH236697   0.671   4.217   0.201  0.1785 -0.3103  0.5363
12247TIP3    H136698   0.705   4.306   0.206 -0.8957  0.1123  0.6251
12247TIP3    H236699   0.736   4.164   0.246  1.8970  0.0883 -1.3619
12248TIP3   OH236700   1.784   4.884   6.241  0.2598 -0.2840  0.3924
12248TIP3    H136701   1.708   4.848   6.287  1.5325 -2.3824  0.9537
12248TIP3    H236702   1.765   4.978   6.235 -2.5260 -0.7646  0.1895
12249TIP3   OH236703   0.374   3.574   4.082  0.2668 -0.3947  0.4852
12249TIP3    H136704   0.409   3.593   4.169 -1.3759  2.5698  0.6334
12249TIP3    H236705   0.293   3.525   4.098  0.3090 -0.4272  0.5959
12250TIP3   OH236706   6.666   4.739   4.147 -0.1568  0.2476 -0.2664
12250TIP3    H136707   6.589   4.685   4.163 -1.0458  1.2415 -0.9752
12250TIP3    H236708   6.639   4.827   4.174  1.4139  0.2886  1.3485
12251TIP3   OH236709   8.007   6.639   3.188  0.3460 -0.4891  0.1086
12251TIP3    H136710   8.031   6.709   3.248 -2.6380  0.4644  0.3866
12251TIP3    H236711   7.994   6.562   3.244  3.0613 -1.2353 -0.1305
12252TIP3   OH236712   1.659   2.218   1.887 -0.2313  0.1054 -0.2803
12252TIP3    H136713   1.580   2.245   1.841 -1.3354 -0.8059  0.9994
12252TIP3    H236714   1.682   2.294   1.941 -1.5709 -0.3658  1.0293
12253TIP3   OH236715   6.775   3.526   4.065  0.6463  0.4324  0.0676
12253TIP3    H136716   6.789   3.567   4.151  0.0931 -0.2605  0.4934
12253TIP3    H236717   6.713   3.455   4.082  0.4800  0.3313 -0.9212
12254TIP3   OH236718   2.833   4.248   1.126 -0.2439  0.4044  0.0755
12254TIP3    H136719   2.904   4.188   1.105 -0.3421  0.8808 -1.7937
12254TIP3    H236720   2.875   4.334   1.130 -0.5241  0.5421  0.0637
12255TIP3   OH236721   7.274   2.064   6.105 -0.0768  0.5901  0.0514
12255TIP3    H136722   7.317   2.071   6.191 -1.9893  0.9234  1.0213
12255TIP3    H236723   7.208   2.133   6.105  1.1424  1.9100 -2.5248
12256TIP3   OH236724   2.310   2.674   0.870  0.2044 -0.2375 -0.1801
12256TIP3    H136725   2.373   2.607   0.895  1.3908 -0.0075 -2.3325
12256TIP3    H236726   2.332   2.696   0.779 -1.0779  2.0026 -0.0317
12257TIP3   OH236727   3.603   6.480   5.304  0.3931 -0.2128  0.4077
12257TIP3    H136728   3.636   6.534   5.233  0.2449  0.8164  1.1028
12257TIP3    H236729   3.568   6.542   5.368 -2.6183 -1.1670 -0.1067
12258TIP3   OH236730   1.368   5.731   5.892  0.4370  0.3165  0.0979
12258TIP3    H136731   1.291   5.785   5.874  1.0347  1.1487 -0.0342
12258TIP3    H236732   1.335   5.658   5.945 -0.5149  0.4050 -0.3565
12259TIP3   OH236733   0.377   0.261   3.694  0.2817  0.0301  0.2847
12259TIP3    H136734   0.318   0.188   3.675  0.4415 -0.4491  1.5534
12259TIP3    H236735   0.448   0.251   3.631  0.1059 -0.6712  0.1913
12260TIP3   OH236736   2.014   6.472   2.186  0.4529  0.1067  0.1549
12260TIP3    H136737   1.924   6.441   2.197  0.5753 -0.7558 -1.1624
12260TIP3    H236738   2.059   6.399   2.143  1.5716  0.8664  0.0232
12261TIP3   OH236739   4.825   1.058   2.288  0.4083 -0.0201  0.7965
12261TIP3    H136740   4.818   0.982   2.345  0.8367 -0.3801  0.3674
12261TIP3    H236741   4.858   1.128   2.345 -2.7778  0.7206  1.9821
12262TIP3   OH236742   0.992   1.256   6.145  0.3499  0.6756 -0.0948
12262TIP3    H136743   1.013   1.323   6.081  1.3887 -0.8103 -1.3710
12262TIP3    H236744   0.935   1.195   6.098  1.9789 -0.9958  0.0214
12263TIP3   OH236745   4.008   6.915   2.764  0.3520  0.3962 -0.7728
12263TIP3    H136746   4.052   6.847   2.713  0.1854 -0.2360 -0.0939
12263TIP3    H236747   3.924   6.929   2.719  0.7149  0.7093 -1.3550
12264TIP3   OH236748   2.140   6.812   1.041 -0.3695 -0.0594 -0.3516
12264TIP3    H136749   2.161   6.805   0.948 -1.4633 -1.6369 -0.5234
12264TIP3    H236750   2.166   6.901   1.065  1.9041 -0.3019 -1.6274
12265TIP3   OH236751   6.740   4.410   0.671 -0.1044 -0.2430  0.1064
12265TIP3    H136752   6.737   4.471   0.597  0.5436 -0.7361 -0.3364
12265TIP3    H236753   6.723   4.465   0.748 -1.2219  0.2077 -0.4342
12266TIP3   OH236754   6.192   2.723   5.183  0.4107  0.0993  0.3878
12266TIP3    H136755   6.236   2.695   5.102 -0.0652  2.8804 -0.9344
12266TIP3    H236756   6.232   2.669   5.251  2.3058 -0.9351 -1.4137
12267TIP3   OH236757   3.946   2.754   5.265  0.1712 -0.0222 -0.2946
12267TIP3    H136758   3.866   2.722   5.224  0.1986  1.4637 -1.6197
12267TIP3    H236759   4.011   2.753   5.195  0.4987  1.6185 -0.0653
12268TIP3   OH236760   7.417   0.497   4.554  0.2047 -0.0828  0.4178
12268TIP3    H136761   7.409   0.592   4.556  0.0608  0.0004 -1.6201
12268TIP3    H236762   7.354   0.466   4.619  0.2249  1.2020  1.0808
12269TIP3   OH236763   8.101   5.303   5.706 -0.2017 -0.3515  0.1206
12269TIP3    H136764   8.143   5.260   5.632  0.0870  1.6142 -0.9507
12269TIP3    H236765   8.173   5.350   5.749 -0.6105 -0.3545  0.8177
12270TIP3   OH236766   0.867   5.083   2.178 -0.3857  0.5904  0.0641
12270TIP3    H136767   0.824   5.124   2.252 -2.5751 -2.4268  0.6330
12270TIP3    H236768   0.896   4.998   2.210  2.5768  0.8563 -1.4487
12271TIP3   OH236769   1.248   4.634   5.475 -0.2768 -0.1151 -0.0692
12271TIP3    H136770   1.255   4.653   5.569 -0.0512 -1.1608  0.1382
12271TIP3    H236771   1.335   4.652   5.440 -0.9134  2.4683 -0.5391
12272TIP3   OH236772   3.831   0.352   2.317 -0.1194  0.2334 -0.0933
12272TIP3    H136773   3.759   0.294   2.341  0.9256 -0.3062  1.9341
12272TIP3    H236774   3.790   0.439   2.310 -0.6884  0.3598  3.2779
12273TIP3   OH236775   7.705   2.791   5.611 -0.3365 -0.1923  0.7178
12273TIP3    H136776   7.706   2.720   5.675  0.4070 -0.7200  0.1307
12273TIP3    H236777   7.666   2.753   5.533  1.0822 -0.2970  0.0338
12274TIP3   OH236778   2.102   2.075   4.630  0.0141  0.2964 -0.2696
12274TIP3    H136779   2.062   2.012   4.570 -1.7133  0.6949  0.4114
12274TIP3    H236780   2.040   2.148   4.632 -0.9850 -0.4849  3.4479
12275TIP3   OH236781   6.526   0.868   1.764  0.1073 -0.3684 -0.1329
12275TIP3    H136782   6.545   0.774   1.754 -2.3045 -0.7731 -1.5796
12275TIP3    H236783   6.465   0.888   1.694  0.6326  2.3625  0.0855
12276TIP3   OH236784   3.465   6.230   0.043 -0.1690  0.6632 -0.4430
12276TIP3    H136785   3.457   6.250  -0.051 -0.8116 -0.5510 -0.6674
12276TIP3    H236786   3.555   6.255   0.065  0.4667 -0.3699 -1.7264
12277TIP3   OH236787   4.960   0.762   3.642 -0.1027  0.6816  0.6442
12277TIP3    H136788   5.014   0.832   3.680  0.8389  0.0509  0.4892
12277TIP3    H236789   4.971   0.688   3.701  0.2053  0.1510 -0.0748
12278TIP3   OH236790   5.232   6.480   2.798 -0.2001  0.2371  0.2159
12278TIP3    H136791   5.156   6.431   2.829 -0.6478  2.0687  2.2667
12278TIP3    H236792   5.203   6.517   2.714 -1.5655  0.7873  0.8878
12279TIP3   OH236793   7.248   7.254   6.543 -0.2910  0.2328  0.3525
12279TIP3    H136794   7.323   7.278   6.490 -0.2738 -0.8232 -0.1372
12279TIP3    H236795   7.246   7.158   6.539  0.4474  0.0038  3.2507
12280TIP3   OH236796   2.966   4.682   5.959 -0.3418  0.0081 -0.3424
12280TIP3    H136797   3.015   4.627   6.021 -1.5185  0.0323  0.6560
12280TIP3    H236798   2.894   4.626   5.929 -1.0407  0.6915  0.0070
12281TIP3   OH236799   3.847   3.690   1.476  0.2518 -0.2651 -0.3774
12281TIP3    H136800   3.898   3.771   1.476 -0.3730  0.1390 -1.0656
12281TIP3    H236801   3.767   3.713   1.522  0.8209 -1.0061  1.0464
12282TIP3   OH236802   7.308   6.139   0.180 -0.0351  0.1428 -0.1949
12282TIP3    H136803   7.315   6.157   0.086 -0.6631  1.7246  0.0317
12282TIP3    H236804   7.218   6.161   0.203  0.0482 -0.4198  0.7499
12283TIP3   OH236805   7.449   6.508   5.605  0.0280 -0.4979 -0.5030
12283TIP3    H136806   7.518   6.546   5.660  0.2165 -0.0170 -1.0651
12283TIP3    H236807   7.378   6.571   5.608  0.5997  0.2481 -1.9792
12284TIP3   OH236808   3.780   0.964   0.429  0.0781  0.1969  0.6918
12284TIP3    H136809   3.873   0.966   0.404 -0.4623  0.6947 -1.4679
12284TIP3    H236810   3.741   1.037   0.382 -1.8436 -1.4402 -0.3854
12285TIP3   OH236811   6.723   0.090   1.192 -0.0622  0.1153  0.1259
12285TIP3    H136812   6.635   0.052   1.200 -0.7121  1.3175 -0.9523
12285TIP3    H236813   6.751   0.068   1.104  0.4167  0.3661  0.2146
12286TIP3   OH236814   4.398   4.999   3.712 -0.8378 -0.2504  0.5893
12286TIP3    H136815   4.432   4.909   3.719 -1.4492 -0.4492  1.1521
12286TIP3    H236816   4.424   5.041   3.794 -1.0775 -0.0984  0.5881
12287TIP3   OH236817   4.567   4.670   5.408  0.0595 -0.1997  0.1320
12287TIP3    H136818   4.643   4.699   5.358 -0.3870 -1.1665 -1.1387
12287TIP3    H236819   4.548   4.582   5.375 -1.1176 -0.3006  1.0032
12288TIP3   OH236820   1.541   1.867   2.169  0.2388  0.0417  0.5657
12288TIP3    H136821   1.450   1.854   2.197 -0.1702  1.5980  0.0210
12288TIP3    H236822   1.576   1.778   2.163 -1.4032 -0.6260  0.2575
12289TIP3   OH236823   2.521   0.764   2.152 -0.1035  0.4453  0.7729
12289TIP3    H136824   2.555   0.749   2.064  0.5878  1.5901  0.8337
12289TIP3    H236825   2.426   0.772   2.140 -0.7928 -4.3118  0.7757
12290TIP3   OH236826   1.491   0.859   6.610 -0.0585 -0.1018  0.4142
12290TIP3    H136827   1.500   0.764   6.601  0.7325  0.0153 -0.0851
12290TIP3    H236828   1.554   0.895   6.548 -0.2273  0.7543  0.7312
12291TIP3   OH236829   0.795   1.520   0.508  0.5604 -0.4547 -0.2957
12291TIP3    H136830   0.789   1.606   0.466 -3.6149 -0.4204 -0.0402
12291TIP3    H236831   0.745   1.462   0.450  2.5946 -2.6144 -0.0367
12292TIP3   OH236832   1.382   3.465   1.166  0.0047  0.3613  0.5768
12292TIP3    H136833   1.354   3.414   1.090  2.3539  0.2842 -0.3050
12292TIP3    H236834   1.334   3.548   1.159 -0.0221  0.2423 -0.8429
12293TIP3   OH236835   1.983   7.282   1.570 -0.4117  0.1805  0.0222
12293TIP3    H136836   1.927   7.209   1.543 -0.0903  0.3404 -1.1210
12293TIP3    H236837   2.008   7.261   1.660 -0.6432 -0.9292 -0.1588
12294TIP3   OH236838   2.501   7.125   2.083  0.4008  0.3591 -0.1633
12294TIP3    H136839   2.436   7.055   2.079  0.5692  0.1940 -0.0535
12294TIP3    H236840   2.552   7.116   2.003 -0.3007  1.0779 -0.7162
12295TIP3   OH236841   2.370   0.418   5.650  0.6861  0.4234 -0.5187
12295TIP3    H136842   2.384   0.417   5.744 -0.4472 -2.1419 -0.2931
12295TIP3    H236843   2.302   0.484   5.636  1.0502  1.0022  0.4275
12296TIP3   OH236844   0.072   6.102   5.148 -0.9026  0.0304 -0.3354
12296TIP3    H136845   0.062   6.007   5.147  0.5353 -0.3155  3.2197
12296TIP3    H236846  -0.016   6.135   5.170 -1.2852 -0.4758 -1.0517
12297TIP3   OH236847   4.484   6.481   5.295 -0.0200  0.0017  0.2846
12297TIP3    H136848   4.399   6.493   5.337 -0.8786 -0.3863 -1.2419
12297TIP3    H236849   4.481   6.538   5.218  0.3843 -1.2801 -0.7341
12298TIP3   OH236850   4.951   2.374   5.973 -0.5812  0.1513  0.1772
12298TIP3    H136851   4.907   2.290   5.964 -0.3401  0.0200  0.2038
12298TIP3    H236852   4.993   2.370   6.059 -3.9965  1.9071  2.1432
12299TIP3   OH236853   2.065   0.068   6.104 -0.3479 -0.7585 -0.1153
12299TIP3    H136854   2.125   0.143   6.097 -0.1092 -0.9289  0.0729
12299TIP3    H236855   2.101   0.003   6.043 -1.4422 -0.1395 -1.4628
12300TIP3   OH236856   7.584   5.608   4.665  0.3368 -0.0401  0.0668
12300TIP3    H136857   7.622   5.597   4.577  0.6606 -0.7186  0.2820
12300TIP3    H236858   7.644   5.561   4.722  0.4466  0.8980  0.7410
12301TIP3   OH236859   2.102   7.113   0.305  0.0951 -0.1988  0.2336
12301TIP3    H136860   2.132   7.023   0.313  0.9111  0.1215  0.9457
12301TIP3    H236861   2.140   7.158   0.380 -0.6740  0.6444  0.1382
12302TIP3   OH236862   3.556   5.898   0.082  0.2131  0.7528 -0.2362
12302TIP3    H136863   3.613   5.891   0.005  0.1173  0.8581 -0.3183
12302TIP3    H236864   3.543   5.993   0.093  0.9831  0.7812  0.4731
12303TIP3   OH236865   6.761   5.973   0.938 -0.4565  0.0011 -0.1263
12303TIP3    H136866   6.768   6.058   0.981  0.8174  0.7491 -1.6741
12303TIP3    H236867   6.678   5.976   0.891 -1.1954 -0.2840  1.1226
12304TIP3   OH236868   4.150   0.368   6.635 -0.9668  0.5508  0.6891
12304TIP3    H136869   4.073   0.359   6.578  0.1269 -1.6350 -0.5640
12304TIP3    H236870   4.172   0.279   6.660  1.5462  1.0399  0.4901
12305TIP3   OH236871   1.618   1.659   4.553 -0.3101  0.3582 -0.4645
12305TIP3    H136872   1.704   1.646   4.514  0.4701 -1.0271  1.5556
12305TIP3    H236873   1.636   1.705   4.635 -1.2909 -1.2436  0.7006
12306TIP3   OH236874   1.239   0.619   3.736 -0.1414  0.0657 -0.0502
12306TIP3    H136875   1.289   0.568   3.800 -0.8177  3.2286  3.2836
12306TIP3    H236876   1.155   0.574   3.730  0.3654 -0.9756  0.2512
12307TIP3   OH236877   0.946   3.251   0.276  0.3730  0.0782 -0.1318
12307TIP3    H136878   1.030   3.242   0.320  0.7998  2.3430 -0.3628
12307TIP3    H236879   0.950   3.189   0.203  1.7833  0.0687 -0.0645
12308TIP3   OH236880   4.580   2.022   2.084  0.1044 -0.4425 -0.2992
12308TIP3    H136881   4.639   2.021   2.008 -0.3650 -0.4937 -0.6676
12308TIP3    H236882   4.528   2.102   2.072  0.4623 -0.1095  0.3112
12309TIP3   OH236883   6.115   2.097   0.967 -1.2436  0.1422  0.3371
12309TIP3    H136884   6.102   2.002   0.977 -0.7977  0.2456  2.1805
12309TIP3    H236885   6.048   2.136   1.023 -1.3936  0.9326 -0.3790
12310TIP3   OH236886   6.312   1.519   0.336  0.2759  0.3351  0.3143
12310TIP3    H136887   6.375   1.504   0.265  1.8887 -0.0532  1.7496
12310TIP3    H236888   6.286   1.611   0.326  1.3775  0.6207 -0.1237
12311TIP3   OH236889   5.355   4.638   5.873  0.3099  0.1247  0.3741
12311TIP3    H136890   5.349   4.620   5.779 -0.9392 -0.4260  0.5473
12311TIP3    H236891   5.267   4.624   5.906  1.2609 -2.5091  2.1248
12312TIP3   OH236892   0.871   0.110   6.451  0.7061 -0.4655 -0.7454
12312TIP3    H136893   0.868   0.097   6.546 -1.8580 -2.7276 -1.0092
12312TIP3    H236894   0.958   0.080   6.425  0.8077 -1.5440  0.7138
12313TIP3   OH236895   3.907   3.641   5.440 -0.4510 -0.3094 -0.1468
12313TIP3    H136896   3.844   3.571   5.460 -0.9686  0.2017  0.0397
12313TIP3    H236897   3.895   3.704   5.511 -0.0295 -0.0028 -0.3500
12314TIP3   OH236898   3.230   3.430   0.041 -0.1083  0.1919  0.1167
12314TIP3    H136899   3.275   3.363  -0.011 -1.3963 -0.1634 -0.5825
12314TIP3    H236900   3.218   3.503  -0.019  0.9147  0.9264  0.7595
12315TIP3   OH236901   7.782   6.293   5.788  0.2933  0.0020 -0.6491
12315TIP3    H136902   7.855   6.316   5.732  0.9206  0.8643  0.4837
12315TIP3    H236903   7.716   6.360   5.771  0.7811  0.7077  0.1672
12316TIP3   OH236904   2.516   2.092   5.123 -0.4080  0.7278  0.1147
12316TIP3    H136905   2.469   2.120   5.201 -1.6111  0.7803 -0.6038
12316TIP3    H236906   2.525   1.997   5.133 -0.0827  0.8029  0.5585
12317TIP3   OH236907   8.227   6.581   1.894  0.1135 -0.4103  1.0262
12317TIP3    H136908   8.286   6.602   1.967  0.8010 -2.4589  1.1220
12317TIP3    H236909   8.161   6.523   1.932 -1.5460  1.1630  0.7214
12318TIP3   OH236910   3.493   4.929   0.760 -0.0086 -0.2468  0.3779
12318TIP3    H136911   3.540   4.932   0.843  0.2284  0.6817  0.2272
12318TIP3    H236912   3.523   5.007   0.713 -1.0690 -0.0889 -0.0619
12319TIP3   OH236913   0.321   2.049   3.404  0.1752 -0.1597 -0.1382
12319TIP3    H136914   0.278   2.005   3.331  0.0220  0.6151 -0.5269
12319TIP3    H236915   0.299   1.996   3.480  0.4577 -1.0554 -0.6717
12320TIP3   OH236916   0.533   2.517   1.462  0.0080 -0.3215  0.0004
12320TIP3    H136917   0.549   2.427   1.490 -0.4357 -1.1094 -2.1274
12320TIP3    H236918   0.439   2.530   1.476 -0.3851 -1.0091 -1.7977
12321TIP3   OH236919   6.833   5.723   6.212  0.1329 -0.4646 -0.0432
12321TIP3    H136920   6.834   5.799   6.154 -0.2869 -3.4850 -4.4975
12321TIP3    H236921   6.920   5.721   6.251  1.5429  0.2877 -2.8853
12322TIP3   OH236922   5.604   3.251   2.674 -0.1792 -0.0294 -0.0457
12322TIP3    H136923   5.592   3.213   2.761  2.1886  0.0478  0.3726
12322TIP3    H236924   5.604   3.346   2.688  1.7775 -0.0181  0.1838
12323TIP3   OH236925   5.267   6.482   4.590 -0.5649  0.0866  0.2408
12323TIP3    H136926   5.197   6.523   4.538 -0.0186  0.0161 -0.5633
12323TIP3    H236927   5.263   6.389   4.567  0.4921  0.2418 -0.6682
12324TIP3   OH236928   3.219   3.796   0.070 -0.9392  0.5390  0.3178
12324TIP3    H136929   3.312   3.817   0.065 -0.8660  0.0209 -0.9820
12324TIP3    H236930   3.206   3.769   0.161  0.4492 -0.4815  0.2677
12325TIP3   OH236931   3.606   6.311   2.036  0.3816  0.2470  0.2415
12325TIP3    H136932   3.670   6.282   1.971  0.0623  0.4336 -0.1579
12325TIP3    H236933   3.611   6.407   2.033  0.5159  0.2540  0.6458
12326TIP3   OH236934   5.488   5.194   0.517 -0.2380  0.0275  0.4226
12326TIP3    H136935   5.537   5.211   0.437 -1.6495  0.4531 -0.3807
12326TIP3    H236936   5.503   5.101   0.534 -1.1341 -0.4675 -1.2287
12327TIP3   OH236937   3.686   3.546   1.820  0.3061  0.7630  0.2253
12327TIP3    H136938   3.725   3.516   1.738 -2.9043 -1.9278 -0.5661
12327TIP3    H236939   3.679   3.641   1.811 -1.0885  0.4614 -3.3027
12328TIP3   OH236940   0.482   1.778   0.133  0.0359  0.0253 -0.1367
12328TIP3    H136941   0.393   1.797   0.162 -0.3657 -1.5195 -0.2726
12328TIP3    H236942   0.535   1.846   0.173 -1.0353  0.2306  1.0038
12329TIP3   OH236943   4.666   6.336   2.764 -0.1935 -0.1726 -0.1837
12329TIP3    H136944   4.695   6.351   2.674 -0.1947 -0.4312 -0.2275
12329TIP3    H236945   4.571   6.343   2.759 -0.4532 -3.1340 -0.7870
12330TIP3   OH236946   6.831   3.068   3.079 -0.1149 -0.0493 -0.0571
12330TIP3    H136947   6.739   3.091   3.066 -0.3308 -0.8358  0.0111
12330TIP3    H236948   6.829   2.995   3.140  0.5331 -0.3049 -0.3290
12331TIP3   OH236949   3.812   1.230   2.081 -0.0683  0.6115  0.0011
12331TIP3    H136950   3.733   1.262   2.038  0.5016  1.1178 -0.6796
12331TIP3    H236951   3.791   1.139   2.105 -1.3426  1.1634  1.0763
12332TIP3   OH236952   1.716   7.088   3.506  0.2367 -0.0665 -0.2300
12332TIP3    H136953   1.737   7.109   3.597  0.7843 -0.2696 -0.3011
12332TIP3    H236954   1.779   7.140   3.455  0.5051 -0.6103 -0.4605
12333TIP3   OH236955   6.744   6.958   0.001 -0.0143  0.3426  0.0773
12333TIP3    H136956   6.725   6.951   0.095  0.4814  0.8265  0.2259
12333TIP3    H236957   6.733   6.869  -0.033 -1.1572  0.3516  0.3996
12334TIP3   OH236958   7.506   3.725   3.066  0.1669  0.2017 -0.3891
12334TIP3    H136959   7.470   3.713   3.154  1.4513 -1.4898 -0.0395
12334TIP3    H236960   7.519   3.636   3.033  0.5084  0.7998 -1.9592
12335TIP3   OH236961   5.526   2.714   6.131 -0.7024  0.2925 -0.0213
12335TIP3    H136962   5.530   2.619   6.143 -0.9893  0.5172  2.3285
12335TIP3    H236963   5.577   2.730   6.052 -0.6412 -1.8065 -0.4692
12336TIP3   OH236964   0.252   1.367   5.205 -0.3616 -0.2413 -0.6528
12336TIP3    H136965   0.259   1.455   5.168  2.8830 -0.2615 -0.3213
12336TIP3    H236966   0.207   1.380   5.289  1.3311  1.3947  0.0771
12337TIP3   OH236967   5.935   0.985   5.202 -0.0611 -0.0592  0.1319
12337TIP3    H136968   5.943   0.971   5.107 -1.5735  0.0352 -0.0309
12337TIP3    H236969   6.017   0.950   5.238  0.4884 -0.2090 -1.1896
12338TIP3   OH236970   6.959   2.807   1.235 -0.2464  0.5940 -0.3767
12338TIP3    H136971   6.976   2.741   1.167 -0.7564 -0.1545  0.2041
12338TIP3    H236972   7.040   2.809   1.287 -1.1836 -1.7334  1.3588
12339TIP3   OH236973   5.691   1.956   4.634  0.3330  0.2175  0.2886
12339TIP3    H136974   5.748   2.002   4.695 -1.3652  1.5898  0.9369
12339TIP3    H236975   5.750   1.909   4.576  2.0522  0.3935  1.8211
12340TIP3   OH236976   7.046   4.813   1.336 -0.2513 -0.5038  0.3651
12340TIP3    H136977   7.118   4.833   1.396 -1.1407  0.1037  1.2547
12340TIP3    H236978   7.050   4.882   1.270  0.1277 -0.6133  0.2690
12341TIP3   OH236979   1.021   7.050   0.938 -0.0951 -0.2981 -0.5327
12341TIP3    H136980   0.940   7.101   0.931 -0.6187 -1.0770 -0.3125
12341TIP3    H236981   1.044   7.053   1.031  0.8003  0.9141 -0.7750
12342TIP3   OH236982   3.611   0.570   1.305 -0.6994 -0.2101  0.1640
12342TIP3    H136983   3.698   0.608   1.311 -1.3954  1.8897 -1.5243
12342TIP3    H236984   3.566   0.599   1.384 -0.9430  1.8543 -0.6852
12343TIP3   OH236985   2.981   7.291   3.093  0.6951 -0.4340  0.2937
12343TIP3    H136986   2.917   7.298   3.163 -1.8129  0.2158 -1.8778
12343TIP3    H236987   2.952   7.215   3.041  2.0591 -0.5116 -0.3977
12344TIP3   OH236988   8.248   5.068   1.658 -0.4629  0.0679  0.2443
12344TIP3    H136989   8.238   5.112   1.573  0.0732 -1.5020 -0.6734
12344TIP3    H236990   8.333   5.097   1.690 -0.2238 -0.1072 -0.2311
12345TIP3   OH236991   1.536   1.157   0.916 -0.9824  0.2820  0.1705
12345TIP3    H136992   1.502   1.126   0.832 -1.7044  2.8162 -0.5465
12345TIP3    H236993   1.462   1.145   0.977 -1.0020 -0.0788  0.0776
12346TIP3   OH236994   0.439   6.930   5.141 -0.5137 -0.0415  0.0103
12346TIP3    H136995   0.366   6.989   5.124  1.6028  1.9319 -3.4287
12346TIP3    H236996   0.414   6.847   5.101 -1.0282  0.5223 -0.8667
12347TIP3   OH236997   6.966   2.429   1.264  0.2695 -0.3346 -0.0218
12347TIP3    H136998   7.032   2.390   1.320 -0.3179 -1.4626 -0.0856
12347TIP3    H236999   6.981   2.391   1.178  1.0880  1.2875 -0.6447
12348TIP3   OH237000   3.543   1.972   1.424  0.7869 -0.4646  0.4672
12348TIP3    H137001   3.499   2.050   1.458  1.8971  0.1820  0.4657
12348TIP3    H237002   3.606   1.949   1.492 -0.2957 -2.0551  0.9803
12349TIP3   OH237003   6.765   5.016   4.792 -0.3798 -0.4034  0.1222
12349TIP3    H137004   6.748   5.010   4.698 -0.0551  0.2112  0.0207
12349TIP3    H237005   6.841   5.074   4.798 -1.7281  1.3424  0.8981
12350TIP3   OH237006   0.811   6.524   5.762  0.4785  0.0751 -0.1787
12350TIP3    H137007   0.899   6.487   5.770  0.3457 -0.0542  0.8023
12350TIP3    H237008   0.757   6.451   5.731  0.4535 -0.2335  0.5722
12351TIP3   OH237009   2.020   4.557   1.687  0.3467  0.4947 -0.2391
12351TIP3    H137010   2.053   4.633   1.736 -1.6948 -0.1341  2.3320
12351TIP3    H237011   2.064   4.482   1.727  0.5404  0.1273 -1.1282
12352TIP3   OH237012   4.975   6.703   2.883 -0.4477  0.3644  0.2097
12352TIP3    H137013   4.957   6.611   2.868 -2.3223  1.0410 -2.4489
12352TIP3    H237014   4.890   6.742   2.904 -0.0340  1.7541 -0.5281
12353TIP3   OH237015   3.500   1.927   3.975  0.4705  0.4230 -0.1765
12353TIP3    H137016   3.502   2.008   4.026 -2.1392 -0.7162  1.9602
12353TIP3    H237017   3.509   1.858   4.040 -1.1230 -1.0785 -1.4622
12354TIP3   OH237018   8.132   5.976   1.167  0.3337  0.3479  0.0856
12354TIP3    H137019   8.092   6.045   1.220 -0.9441 -2.8412  3.7583
12354TIP3    H237020   8.059   5.918   1.145  1.7283 -1.3065 -0.3678
12355TIP3   OH237021   6.420   2.228   1.127 -0.2314  0.5485  0.0795
12355TIP3    H137022   6.462   2.282   1.194  0.5267  0.2947 -0.1789
12355TIP3    H237023   6.481   2.229   1.054 -0.7050  0.2071 -0.3259
12356TIP3   OH237024   8.218   1.625   5.081 -0.1272 -0.0091  0.2927
12356TIP3    H137025   8.231   1.647   4.989 -0.3271  0.5702  0.4010
12356TIP3    H237026   8.307   1.614   5.116  0.1568  3.0396  0.8169
12357TIP3   OH237027   4.913   0.969   1.420 -0.1822 -0.2570 -0.1722
12357TIP3    H137028   4.985   0.944   1.478 -1.3542 -2.6391  0.3704
12357TIP3    H237029   4.956   0.992   1.338  1.3312  0.5881  0.8101
12358TIP3   OH237030   3.007   0.521   0.013  0.0655  0.3132 -0.1707
12358TIP3    H137031   2.914   0.517  -0.008 -0.0558 -0.4626  0.4815
12358TIP3    H237032   3.020   0.454   0.080  1.2824 -0.2774 -0.9585
12359TIP3   OH237033   4.197   0.855   5.070  0.0723  0.1302  0.2260
12359TIP3    H137034   4.166   0.944   5.088 -0.6103 -0.3605  1.6447
12359TIP3    H237035   4.161   0.834   4.984 -2.2269  0.2013  1.1031
12360TIP3   OH237036   2.605   3.269   2.551  0.2152 -0.2227  0.2429
12360TIP3    H137037   2.687   3.311   2.526  0.2709 -0.4520  0.0277
12360TIP3    H237038   2.630   3.181   2.580  0.3288  0.5309  2.6388
12361TIP3   OH237039   6.552   3.104   2.491  0.2288 -0.0509  0.1328
12361TIP3    H137040   6.478   3.143   2.443  1.9379  2.0172 -0.9790
12361TIP3    H237041   6.511   3.051   2.559 -2.2780  1.5054 -0.0445
12362TIP3   OH237042   2.757   0.137   1.896  0.1345 -0.3209 -0.3489
12362TIP3    H137043   2.690   0.201   1.875  0.1638 -0.7984 -2.0533
12362TIP3    H237044   2.832   0.189   1.925 -0.2322  0.3414 -0.5660
12363TIP3   OH237045   7.777   3.329   0.969  0.7141 -0.1808 -0.2835
12363TIP3    H137046   7.739   3.243   0.953  1.8823 -1.0001  1.0990
12363TIP3    H237047   7.790   3.333   1.064 -1.9494  2.7012  0.1406
12364TIP3   OH237048   3.178   7.165   5.760  0.0262  0.6529 -0.8068
12364TIP3    H137049   3.265   7.186   5.796 -0.4613  0.7304  0.3559
12364TIP3    H237050   3.191   7.168   5.665  1.2822  0.7283 -0.6568
12365TIP3   OH237051   6.624   0.031   2.975  0.4831 -0.1441  0.8841
12365TIP3    H137052   6.623  -0.040   3.039  1.0242  1.1739  2.4332
12365TIP3    H237053   6.536   0.069   2.979 -0.0211 -1.0929 -0.4332
12366TIP3   OH237054   2.040   5.255   1.397  0.3358 -0.2683 -0.1450
12366TIP3    H137055   1.993   5.338   1.405  1.0244  0.1023  0.1030
12366TIP3    H237056   2.035   5.216   1.484 -1.0434 -1.0845 -0.5489
12367TIP3   OH237057   4.094   2.204   0.082 -0.5079  0.3302  0.3832
12367TIP3    H137058   4.032   2.138   0.112 -0.3101 -0.1434 -0.2057
12367TIP3    H237059   4.149   2.157   0.019 -0.2045  1.0001  0.1395
12368TIP3   OH237060   2.626   2.889   1.505 -0.7744 -0.4294  0.1263
12368TIP3    H137061   2.534   2.870   1.488 -1.0529  0.6375  0.3770
12368TIP3    H237062   2.672   2.856   1.427 -1.4508 -0.3269 -0.3256
12369TIP3   OH237063   0.125   7.312   6.655 -0.0517 -0.3277 -0.8706
12369TIP3    H137064   0.045   7.322   6.707 -1.6442 -0.9500 -3.0745
12369TIP3    H237065   0.191   7.283   6.718 -1.6088 -0.0754  0.9638
12370TIP3   OH237066   7.602   1.765   4.808 -0.0881 -0.1213  0.5045
12370TIP3    H137067   7.516   1.726   4.820 -0.2686 -0.1688 -0.7358
12370TIP3    H237068   7.653   1.697   4.762  0.7126 -0.2014  1.4646
12371TIP3   OH237069   0.158   7.167   3.583 -0.4370 -0.1521  0.1257
12371TIP3    H137070   0.091   7.129   3.526 -0.4608  1.4383 -0.9996
12371TIP3    H237071   0.183   7.249   3.539 -0.2167  1.0056  2.2537
12372TIP3   OH237072   1.232   5.364   1.747  0.2990  0.0767  0.2103
12372TIP3    H137073   1.209   5.274   1.770 -0.2777  0.3172  0.5961
12372TIP3    H237074   1.176   5.418   1.802 -0.0384  0.6759 -0.6984
12373TIP3   OH237075   1.744   1.061   1.910 -0.0731 -0.2814 -0.1011
12373TIP3    H137076   1.796   1.126   1.863  0.5097 -0.6954 -0.0537
12373TIP3    H237077   1.745   1.090   2.001  0.8982 -0.7809  0.0683
12374TIP3   OH237078   8.085   5.922   3.301 -0.0060 -0.0280 -0.6430
12374TIP3    H137079   8.159   5.972   3.336  0.5976 -1.5163  0.3192
12374TIP3    H237080   8.118   5.832   3.296 -1.3245 -0.4874 -1.5063
12375TIP3   OH237081   3.736   4.942   6.496  0.6848 -0.1061 -0.4920
12375TIP3    H137082   3.672   4.872   6.503  1.7859 -1.0257  0.9001
12375TIP3    H237083   3.711   5.005   6.563  1.8323 -1.0062  0.8273
12376TIP3   OH237084   0.413   5.936   3.292  0.0612  0.1557  0.1825
12376TIP3    H137085   0.474   5.924   3.365 -2.0533 -2.1527  1.7571
12376TIP3    H237086   0.432   5.864   3.232  0.0321  0.4564 -0.1909
12377TIP3   OH237087   3.513   0.667   0.012  0.1680 -0.0598 -0.0511
12377TIP3    H137088   3.535   0.719   0.090 -1.4854  0.8209 -0.1056
12377TIP3    H237089   3.524   0.576   0.040 -2.5417  0.1174  2.0354
12378TIP3   OH237090   4.519   6.510   5.887  0.3447 -0.1919 -0.5652
12378TIP3    H137091   4.549   6.539   5.801 -0.0499 -0.7370 -0.8909
12378TIP3    H237092   4.535   6.585   5.945  2.3343 -0.4422 -0.7150
12379TIP3   OH237093   1.283   6.136   4.210  0.0431  0.7584 -0.2629
12379TIP3    H137094   1.271   6.090   4.127 -0.6922 -1.3298  0.9257
12379TIP3    H237095   1.375   6.160   4.212  0.5006 -0.8394 -0.8832
12380TIP3   OH237096   4.858   6.761   3.756  0.1575  0.0428 -0.6889
12380TIP3    H137097   4.782   6.811   3.729 -1.0308  0.1699  2.4852
12380TIP3    H237098   4.933   6.813   3.726 -0.9217  0.3027 -3.1836
12381TIP3   OH237099   4.049   2.316   2.208 -0.3006  0.2371  0.3863
12381TIP3    H137100   3.987   2.368   2.260  1.2999  1.2337  1.3646
12381TIP3    H237101   4.023   2.225   2.223 -1.5015  0.6236  0.7791
12382TIP3   OH237102   6.766   0.307   6.533  0.3109 -0.4039  0.1076
12382TIP3    H137103   6.722   0.235   6.489 -0.5682  0.3335 -0.2610
12382TIP3    H237104   6.836   0.334   6.473 -0.8650  0.5824 -0.8711
12383TIP3   OH237105   5.465   5.355   6.771 -0.2885 -0.0757  0.1845
12383TIP3    H137106   5.486   5.385   6.682 -0.3249 -1.6358 -0.3655
12383TIP3    H237107   5.519   5.278   6.784 -2.4564 -1.6430  0.3818
12384TIP3   OH237108   5.624   5.923   5.470  0.2229 -0.5197  0.1484
12384TIP3    H137109   5.539   5.943   5.508 -0.2857 -1.2940 -0.5538
12384TIP3    H237110   5.685   5.932   5.543 -0.4955 -0.2066  0.7185
12385TIP3   OH237111   0.343   1.944   0.522 -0.3376  0.3992  0.0713
12385TIP3    H137112   0.428   1.929   0.563 -0.1149  2.2255  0.3513
12385TIP3    H237113   0.279   1.932   0.593 -0.3607 -1.0941 -0.1671
12386TIP3   OH237114   5.491   5.598   0.050  0.1023 -0.1660 -0.7322
12386TIP3    H137115   5.579   5.634   0.037 -0.0376 -0.4997 -2.7878
12386TIP3    H237116   5.503   5.503   0.043 -0.3483 -0.2481 -0.4224
12387TIP3   OH237117   7.167   1.824   4.112  0.4814 -0.4035  0.6884
12387TIP3    H137118   7.124   1.779   4.039  2.6316 -1.3340 -0.0811
12387TIP3    H237119   7.133   1.913   4.108 -0.9524 -0.9526 -0.1981
12388TIP3   OH237120   1.972   2.367   4.182 -0.3677 -0.5960 -0.1282
12388TIP3    H137121   2.002   2.445   4.135 -0.0910 -0.1717  0.7360
12388TIP3    H237122   2.026   2.296   4.148 -1.1155 -0.5746 -1.4659
12389TIP3   OH237123   1.994   6.494   0.435  0.2956 -0.1042 -0.7953
12389TIP3    H137124   1.908   6.453   0.425 -0.5230  1.8962 -2.6172
12389TIP3    H237125   2.002   6.553   0.360  2.0608  1.8695  0.8163
12390TIP3   OH237126   3.975   7.320   4.911 -0.1148 -0.3255  0.4122
12390TIP3    H137127   3.981   7.231   4.879  0.4121  0.0889 -0.6716
12390TIP3    H237128   4.064   7.354   4.907 -0.4457  0.5418 -0.0708
12391TIP3   OH237129   2.973   6.906   2.227  0.6789 -0.2790 -0.1200
12391TIP3    H137130   2.972   6.821   2.184 -3.3009 -0.1272 -0.6638
12391TIP3    H237131   2.941   6.967   2.160  1.5203  1.3166  0.8705
12392TIP3   OH237132   7.388   4.210   6.541 -0.3710  0.3038 -0.0816
12392TIP3    H137133   7.451   4.281   6.550 -1.3550  1.0243  1.7136
12392TIP3    H237134   7.374   4.178   6.630 -0.3835 -1.7937 -0.7749
12393TIP3   OH237135   7.447   7.448   3.536  0.2202  0.0857  0.4036
12393TIP3    H137136   7.501   7.370   3.524 -1.4275 -1.0742  0.1591
12393TIP3    H237137   7.461   7.499   3.456  0.5853 -0.4294  0.1337
12394TIP3   OH237138   1.673   4.853   3.685 -0.5738 -0.4967 -0.1600
12394TIP3    H137139   1.674   4.784   3.618  1.2140  0.6862 -1.4256
12394TIP3    H237140   1.590   4.898   3.671 -0.1243 -0.1204 -1.7760
12395TIP3   OH237141   2.340   4.177   5.600 -0.1119  0.2739 -0.2023
12395TIP3    H137142   2.416   4.188   5.657  1.6263 -1.9021 -1.9251
12395TIP3    H237143   2.345   4.250   5.539  0.6380  0.1293 -0.3213
12396TIP3   OH237144   2.717   3.262   5.689 -0.2451  0.1024 -0.3487
12396TIP3    H137145   2.706   3.273   5.595 -1.6429 -1.1746 -0.3860
12396TIP3    H237146   2.811   3.249   5.702 -0.2054 -1.2945 -1.7736
12397TIP3   OH237147   4.666   4.330   4.700  0.1971 -0.4557  0.0311
12397TIP3    H137148   4.619   4.373   4.629  0.3428 -0.1563  0.1137
12397TIP3    H237149   4.737   4.391   4.721 -0.7255  0.1755  1.4447
12398TIP3   OH237150   3.865   7.381   5.140 -0.5098  0.3874 -0.2317
12398TIP3    H137151   3.901   7.442   5.205 -0.6434 -0.4349  0.6397
12398TIP3    H237152   3.900   7.412   5.056  0.9048  0.6007  0.3954
12399TIP3   OH237153   7.011   5.959   2.696  0.2949 -0.5503  0.0055
12399TIP3    H137154   6.963   6.015   2.756  1.2925  0.2542  0.0790
12399TIP3    H237155   7.042   5.887   2.750  1.6702  0.4600  0.6110
12400TIP3   OH237156   8.079   7.377   5.842 -0.3378  0.1662 -0.3100
12400TIP3    H137157   8.037   7.427   5.912 -1.3542  0.6563 -1.2526
12400TIP3    H237158   8.047   7.416   5.761 -1.0196 -1.8609 -1.0851
12401TIP3   OH237159   8.092   5.050   6.685  0.7074  0.5505 -0.4048
12401TIP3    H137160   8.058   5.107   6.754 -1.1841 -0.5896 -0.3191
12401TIP3    H237161   8.085   5.102   6.605 -0.2606  0.7182 -0.2219
12402TIP3   OH237162   4.786   2.250   0.561  0.0372 -0.0572 -0.0952
12402TIP3    H137163   4.828   2.284   0.482  1.2062  1.7359  1.2433
12402TIP3    H237164   4.759   2.327   0.610  1.1083 -1.0570  2.1879
12403TIP3   OH237165   5.933   7.605   4.786 -0.4183 -0.2616  0.0086
12403TIP3    H137166   5.866   7.583   4.852 -0.6064  0.9528  0.2528
12403TIP3    H237167   5.904   7.560   4.707 -1.3418 -0.0467  0.2099
12404TIP3   OH237168   4.143   3.324   0.785 -0.0913 -0.4602  0.5282
12404TIP3    H137169   4.223   3.374   0.799 -0.5062  0.9476 -1.6070
12404TIP3    H237170   4.085   3.351   0.855  0.0589  1.3612 -0.0011
12405TIP3   OH237171   5.616   4.709   3.865  0.3783  0.1081 -0.0092
12405TIP3    H137172   5.681   4.773   3.837  0.1695  0.4103  0.1809
12405TIP3    H237173   5.648   4.677   3.950  0.6997 -0.3572 -0.3025
12406TIP3   OH237174   4.000   0.231   1.926  0.0674  0.0187 -0.5988
12406TIP3    H137175   4.030   0.289   1.856  0.5333 -0.2501 -0.6235
12406TIP3    H237176   4.066   0.163   1.931 -1.0257 -1.1505 -1.3341
12407TIP3   OH237177   4.599   0.311   4.676  0.4677 -0.1696  0.0071
12407TIP3    H137178   4.638   0.225   4.692 -1.0506 -0.7953  0.5634
12407TIP3    H237179   4.562   0.303   4.587  0.8868  0.1349 -0.1952
12408TIP3   OH237180   0.667   0.253   2.722 -0.1712  0.1748 -0.4125
12408TIP3    H137181   0.661   0.252   2.626 -2.1116 -0.7774 -0.3366
12408TIP3    H237182   0.624   0.335   2.747 -1.0066 -0.2775 -0.3275
12409TIP3   OH237183   2.995   1.457   5.159  0.2933 -0.1610  0.4939
12409TIP3    H137184   3.006   1.372   5.117  1.1571  0.4417 -0.5548
12409TIP3    H237185   2.950   1.510   5.094 -2.1493 -0.3635  1.9074
12410TIP3   OH237186   6.977   4.216   1.478  0.2782 -0.0298 -0.9612
12410TIP3    H137187   6.982   4.212   1.573  0.7675  0.6821 -0.9559
12410TIP3    H237188   6.977   4.309   1.457 -0.3059 -0.1690 -1.6398
12411TIP3   OH237189   7.714   3.276   0.678  0.3632  0.7533  0.2862
12411TIP3    H137190   7.684   3.276   0.587  0.5557 -0.1127  0.2144
12411TIP3    H237191   7.654   3.335   0.723 -2.1292 -1.6078  0.3473
12412TIP3   OH237192   4.577   5.970   1.506  0.0031  0.8648  0.8484
12412TIP3    H137193   4.633   6.026   1.453 -1.1763  2.0371  0.7908
12412TIP3    H237194   4.607   5.983   1.595  0.0212  1.2564  0.7864
12413TIP3   OH237195   4.234   4.067   0.168 -0.8103  0.1925 -0.4981
12413TIP3    H137196   4.155   4.104   0.209 -0.4168  2.4346 -1.6570
12413TIP3    H237197   4.215   4.067   0.074  0.7806  1.3604 -0.8573
12414TIP3   OH237198   3.135   3.894   2.131  0.2331 -0.5955  0.3963
12414TIP3    H137199   3.192   3.826   2.165  0.2144 -0.0367  1.6081
12414TIP3    H237200   3.183   3.976   2.147 -0.0503 -0.2642 -0.3867
12415TIP3   OH237201   5.646   1.112   0.755 -0.5393  0.0217  0.2761
12415TIP3    H137202   5.668   1.134   0.846  1.1980 -0.2671 -0.0372
12415TIP3    H237203   5.729   1.120   0.708 -0.7508 -2.7338 -0.7301
12416TIP3   OH237204   7.571   1.174   4.106  0.5410  0.0229  0.0412
12416TIP3    H137205   7.507   1.107   4.084  0.8035 -0.6352  1.2054
12416TIP3    H237206   7.526   1.233   4.167  0.9178 -0.2428  0.5876
12417TIP3   OH237207   4.738   6.320   5.450  0.1110 -0.8254 -0.3207
12417TIP3    H137208   4.693   6.242   5.480 -0.3170 -1.1524 -1.7233
12417TIP3    H237209   4.791   6.290   5.376  0.7992  0.0000 -0.1743
12418TIP3   OH237210   3.284   7.081   0.761 -0.2564  0.0519 -0.2842
12418TIP3    H137211   3.323   7.115   0.842  0.4602  2.1941 -1.4394
12418TIP3    H237212   3.346   7.015   0.730 -0.3685 -0.5353  0.6985
12419TIP3   OH237213   5.693   1.295   5.646 -0.2610 -0.0070  0.3214
12419TIP3    H137214   5.711   1.248   5.565  0.6461 -0.2812  0.6646
12419TIP3    H237215   5.708   1.230   5.715  1.3779  0.8635  0.8327
12420TIP3   OH237216   0.105   0.587   5.034 -0.5394 -0.2485 -0.2059
12420TIP3    H137217   0.176   0.650   5.019  0.9462 -1.2844  1.8976
12420TIP3    H237218   0.057   0.585   4.952  0.2470  2.4882 -0.8413
12421TIP3   OH237219   2.938   4.239   3.876 -0.2470 -0.0640  0.6926
12421TIP3    H137220   2.879   4.233   3.801  0.1875  0.7147  0.2669
12421TIP3    H237221   2.882   4.270   3.947 -0.7553 -1.2171  0.8228
12422TIP3   OH237222   1.301   0.522   1.752  0.2329 -0.0302 -0.0126
12422TIP3    H137223   1.259   0.508   1.667  1.2418 -1.8309 -0.2754
12422TIP3    H237224   1.394   0.505   1.736  0.5351  0.2256  1.3260
12423TIP3   OH237225   1.503   3.136   1.250 -0.0122 -0.0163  0.3152
12423TIP3    H137226   1.565   3.207   1.234  0.1416 -0.4328 -1.0685
12423TIP3    H237227   1.546   3.079   1.313  0.7595  0.0081 -0.1830
12424TIP3   OH237228   1.654   3.499   6.347  0.0161 -0.3685 -0.0988
12424TIP3    H137229   1.593   3.547   6.291 -1.0164 -1.1486  0.3128
12424TIP3    H237230   1.706   3.567   6.390 -0.9486  0.3680 -0.0437
12425TIP3   OH237231   2.350   6.371   4.614 -0.1226  0.2903  0.1109
12425TIP3    H137232   2.350   6.464   4.590 -0.4150  0.7051  1.5687
12425TIP3    H237233   2.403   6.329   4.547 -0.9241  1.3270 -1.2139
12426TIP3   OH237234   0.521   3.496   6.191  0.0675 -0.1336  0.1719
12426TIP3    H137235   0.502   3.450   6.273  2.3546 -0.7461  0.4167
12426TIP3    H237236   0.573   3.435   6.140 -1.0167  0.3775 -1.6476
12427TIP3   OH237237   2.161   6.395   5.995 -0.4205 -1.0814 -0.8522
12427TIP3    H137238   2.116   6.385   5.911  0.0820 -0.2478 -1.2386
12427TIP3    H237239   2.181   6.489   6.000 -0.2622 -1.1576  0.1069
12428TIP3   OH237240   4.026   1.489   3.378  0.4217 -0.4926 -1.0295
12428TIP3    H137241   4.020   1.540   3.458 -1.3577  0.1480 -1.5144
12428TIP3    H237242   4.053   1.402   3.407 -1.0748 -0.5365  0.4093
12429TIP3   OH237243   1.746   6.419   1.263 -0.5040  0.1270 -0.2563
12429TIP3    H137244   1.696   6.460   1.192 -0.4298  0.8970  0.1248
12429TIP3    H237245   1.697   6.339   1.283 -0.0082 -0.6194 -1.8107
12430TIP3   OH237246   6.104   7.125   4.443 -0.2398 -0.0134  0.1232
12430TIP3    H137247   6.061   7.095   4.363  2.4614 -0.3103 -1.3402
12430TIP3    H237248   6.135   7.045   4.485 -1.5937  0.1488  1.4886
12431TIP3   OH237249   7.979   0.552   1.544 -0.1660 -0.0513 -0.0969
12431TIP3    H137250   8.063   0.572   1.502 -0.6039  1.1198 -0.4442
12431TIP3    H237251   7.916   0.553   1.473 -0.4597 -1.0931  0.1388
12432TIP3   OH237252   2.029   1.974   6.453 -0.1996  0.0411  0.3163
12432TIP3    H137253   2.095   2.036   6.421  0.5068 -0.7148  0.2532
12432TIP3    H237254   1.984   2.021   6.523  0.9701  0.3012  0.9319
12433TIP3   OH237255   8.103   3.126   0.535 -0.2725 -0.8490  0.1376
12433TIP3    H137256   8.192   3.104   0.510 -0.4823 -2.0768  0.3903
12433TIP3    H237257   8.051   3.052   0.505 -1.2859  0.0568 -0.4154
12434TIP3   OH237258   2.169   0.844   6.561 -0.7526  0.1463  0.3444
12434TIP3    H137259   2.133   0.859   6.474  2.4484 -0.4776 -1.1928
12434TIP3    H237260   2.147   0.753   6.580  0.1748 -0.3122 -0.6903
12435TIP3   OH237261   0.229   0.762   6.234  0.8688  0.2263  0.0440
12435TIP3    H137262   0.153   0.819   6.223  1.0626  0.6120  0.6468
12435TIP3    H237263   0.220   0.727   6.322  1.8980  1.0415  0.4859
12436TIP3   OH237264   0.943   4.911   3.922 -0.4242 -0.0043 -0.1650
12436TIP3    H137265   0.949   4.962   3.841 -0.2359  1.3697  0.6800
12436TIP3    H237266   1.034   4.890   3.944 -0.5261 -1.1407 -0.7496
12437TIP3   OH237267   5.708   6.691   5.783 -0.0035  0.5543  0.7837
12437TIP3    H137268   5.717   6.786   5.783 -0.1327  0.5672  1.1271
12437TIP3    H237269   5.642   6.674   5.715  0.9700  0.6080 -0.1925
12438TIP3   OH237270   2.605   1.137   6.131  0.5366  0.1766  0.0759
12438TIP3    H137271   2.654   1.133   6.049  1.6281 -1.2780  0.7617
12438TIP3    H237272   2.575   1.048   6.146  1.6009  0.0743  1.9589
12439TIP3   OH237273   7.838   3.549   0.537  0.4954 -0.0568 -0.2175
12439TIP3    H137274   7.754   3.558   0.494  1.4032 -2.0941 -2.6671
12439TIP3    H237275   7.818   3.553   0.631 -2.2977 -0.4000 -0.7180
12440TIP3   OH237276   7.856   7.442   0.319 -0.1439  0.1737 -0.0167
12440TIP3    H137277   7.918   7.514   0.332  0.9261 -0.7222 -0.0174
12440TIP3    H237278   7.900   7.365   0.354 -0.9437 -0.6349 -0.7303
12441TIP3   OH237279   7.038   7.307   3.268  0.1774  0.0619 -0.2862
12441TIP3    H137280   6.979   7.251   3.318  0.0037  0.6723  0.2075
12441TIP3    H237281   7.099   7.343   3.334 -0.4372  1.3647 -0.3888
12442TIP3   OH237282   8.060   7.251   3.815  0.0729  0.1369  0.0166
12442TIP3    H137283   8.144   7.206   3.823  0.5873  1.2904  1.9963
12442TIP3    H237284   8.005   7.212   3.883  0.0256  1.3666  0.7193
12443TIP3   OH237285   0.436   7.400   0.550 -0.1781 -0.3923 -0.2162
12443TIP3    H137286   0.498   7.363   0.487  0.6532 -0.0300  0.3712
12443TIP3    H237287   0.462   7.363   0.634  1.7841  2.7086  0.7123
12444TIP3   OH237288   0.539   5.107   4.405  0.5785  0.3930  0.4693
12444TIP3    H137289   0.482   5.148   4.470  0.8268 -0.0211  0.9567
12444TIP3    H237290   0.628   5.122   4.437  0.6474 -1.8559  1.5128
12445TIP3   OH237291   0.235   5.286   2.306 -0.4855  0.2115  0.6963
12445TIP3    H137292   0.151   5.311   2.344 -0.7738  0.8096 -0.3244
12445TIP3    H237293   0.299   5.343   2.350 -1.0958  2.6686 -1.4015
12446TIP3   OH237294   7.249   5.830   4.005  0.5401 -0.1033 -0.2274
12446TIP3    H137295   7.214   5.851   3.918 -1.1526 -0.2660  0.3811
12446TIP3    H237296   7.246   5.734   4.009  2.4215 -0.2099 -0.6792
12447TIP3   OH237297   6.714   5.097   1.326  0.3277  0.5334 -0.3434
12447TIP3    H137298   6.786   5.059   1.378 -1.2194  0.0038  1.5394
12447TIP3    H237299   6.748   5.181   1.296  2.1499 -0.2263 -0.5434
12448TIP3   OH237300   0.540   2.084   6.466  0.0359 -0.2851  0.6831
12448TIP3    H137301   0.634   2.071   6.479  0.2777  0.5991 -0.0536
12448TIP3    H237302   0.500   2.049   6.545  0.9439 -1.1617  0.7723
12449TIP3   OH237303   5.714   3.294   6.244 -0.1483 -0.4609  0.0613
12449TIP3    H137304   5.724   3.228   6.312 -2.0422  0.6326  1.4759
12449TIP3    H237305   5.657   3.253   6.179 -0.2293 -0.6707  0.2665
12450TIP3   OH237306   3.202   6.228   4.904  0.0833 -0.3480  0.6643
12450TIP3    H137307   3.116   6.192   4.926 -0.4252 -0.1528 -0.8889
12450TIP3    H237308   3.195   6.251   4.811  1.7072 -0.0157  0.6031
12451TIP3   OH237309   1.083   0.612   6.572 -0.8782  0.2434  0.1851
12451TIP3    H137310   1.124   0.680   6.520  0.2360 -0.2878  0.3395
12451TIP3    H237311   1.035   0.660   6.640  1.7033  0.9418  1.6927
12452TIP3   OH237312   4.317   7.216   2.918  0.0179  0.4178  0.4119
12452TIP3    H137313   4.231   7.205   2.879 -0.2586 -0.1859  1.1680
12452TIP3    H237314   4.299   7.233   3.010  0.7327 -1.2423  0.8974
12453TIP3   OH237315   3.919   4.867   2.726  0.0193  0.0578  0.1249
12453TIP3    H137316   3.825   4.886   2.720 -0.2928 -0.8567  1.5359
12453TIP3    H237317   3.923   4.771   2.735  1.1921 -0.0641 -1.3163
12454TIP3   OH237318   6.832   3.664   5.004 -0.2356  0.0385  0.1356
12454TIP3    H137319   6.844   3.720   5.081  0.9210  0.5451 -0.3841
12454TIP3    H237320   6.918   3.624   4.991 -0.6347 -0.6547 -0.4345
12455TIP3   OH237321   4.781   3.963   3.012  0.2227  0.5064  0.1054
12455TIP3    H137322   4.714   4.026   3.039 -0.8636  0.1518 -1.6271
12455TIP3    H237323   4.739   3.910   2.945  1.5682 -1.1706  0.5217
12456TIP3   OH237324   7.269   1.759   1.476 -0.1272 -0.3922  0.2184
12456TIP3    H137325   7.239   1.714   1.397 -0.9109 -1.5503  1.1181
12456TIP3    H237326   7.242   1.850   1.465 -0.3706 -0.5773 -0.7630
12457TIP3   OH237327   2.241   2.927   5.850 -0.2247  0.1037 -0.3421
12457TIP3    H137328   2.247   3.014   5.891  0.9319  0.5118 -1.3071
12457TIP3    H237329   2.327   2.888   5.865 -0.4689 -0.5511 -0.6186
12458TIP3   OH237330   7.505   1.976   4.224  0.4769 -0.6427 -0.4146
12458TIP3    H137331   7.454   1.969   4.143 -0.5730 -3.1265  0.3556
12458TIP3    H237332   7.573   1.909   4.216  1.3461  0.1487  0.1210
12459TIP3   OH237333   5.786   3.097   6.441  0.2885  0.3413  0.5985
12459TIP3    H137334   5.753   3.024   6.494  0.2209  0.4215  0.6675
12459TIP3    H237335   5.813   3.057   6.359 -1.5151  0.5053 -0.1064
12460TIP3   OH237336   1.010   3.811   4.640  0.5802 -0.4848  0.0959
12460TIP3    H137337   1.068   3.736   4.632  0.9196 -0.3579  1.2081
12460TIP3    H237338   1.068   3.887   4.638  0.3606 -0.3099  0.3214
12461TIP3   OH237339   1.001   3.643   4.137 -0.1640 -0.2256 -0.3318
12461TIP3    H137340   0.974   3.735   4.139  1.9245  0.4356 -0.6348
12461TIP3    H237341   1.022   3.622   4.228 -0.0634 -0.2275 -0.3558
12462TIP3   OH237342   0.100   4.483   6.716  0.1397 -0.3508 -0.3052
12462TIP3    H137343   0.086   4.531   6.798 -0.0147 -1.3423  0.2544
12462TIP3    H237344   0.012   4.470   6.681  0.2038  0.0408 -0.6257
12463TIP3   OH237345   0.620   7.013   1.371 -0.2635  0.0725 -0.2396
12463TIP3    H137346   0.628   6.970   1.286 -0.2544  3.5670 -2.1694
12463TIP3    H237347   0.527   7.009   1.391 -0.2187 -1.0750 -0.1876
12464TIP3   OH237348   0.900   6.536   2.124 -0.3633 -0.2894  1.0117
12464TIP3    H137349   0.873   6.555   2.034  0.4414 -1.0647  0.5942
12464TIP3    H237350   0.818   6.525   2.172 -0.8003  0.4600  0.4499
12465TIP3   OH237351   2.841   1.408   5.754 -0.1759  0.2923  0.7747
12465TIP3    H137352   2.763   1.421   5.700  0.6709  0.2492 -0.4921
12465TIP3    H237353   2.906   1.467   5.717 -0.0781  1.6059  2.8904
12466TIP3   OH237354   0.224   2.121   6.263 -0.3093  0.4651  0.1939
12466TIP3    H137355   0.151   2.089   6.209  0.1790  0.0315 -0.2151
12466TIP3    H237356   0.275   2.176   6.205  1.9079 -2.3624 -0.7585
12467TIP3   OH237357   2.501   5.149   3.679  0.0248 -0.0310  0.0021
12467TIP3    H137358   2.457   5.223   3.636 -0.7104  0.0219  0.8240
12467TIP3    H237359   2.445   5.128   3.754  0.8312 -0.6844  0.4333
12468TIP3   OH237360   2.386   1.617   4.842 -0.0368 -0.0128  0.0065
12468TIP3    H137361   2.295   1.647   4.833  0.4250  1.7831  0.7440
12468TIP3    H237362   2.405   1.573   4.759 -1.2648  0.4716 -0.5645
12469TIP3   OH237363   7.328   0.470   1.133 -0.6756 -0.8346 -0.3040
12469TIP3    H137364   7.235   0.455   1.122 -0.6259  0.1721 -2.6665
12469TIP3    H237365   7.361   0.483   1.044  1.1092  2.1352  0.6443
12470TIP3   OH237366   1.743   4.451   1.237  0.5591  0.1142 -0.1081
12470TIP3    H137367   1.776   4.539   1.221  2.7165 -0.3262  1.5235
12470TIP3    H237368   1.721   4.450   1.330  0.4748 -1.0379 -0.1225
12471TIP3   OH237369   8.264   5.353   0.505  0.3200  0.4552 -0.2840
12471TIP3    H137370   8.223   5.371   0.589  1.1936  0.9522  0.0335
12471TIP3    H237371   8.357   5.365   0.519  0.4807  0.5527 -1.3257
12472TIP3   OH237372   4.100   1.737   0.202  0.1649 -0.0670 -0.2510
12472TIP3    H137373   4.103   1.654   0.249  1.2874  0.1768  0.1467
12472TIP3    H237374   4.072   1.801   0.268  1.9669  0.3164  0.2075
12473TIP3   OH237375   0.422   2.478   5.088  0.1414  0.0868  0.0680
12473TIP3    H137376   0.411   2.423   5.165 -0.3766 -0.0680 -0.1103
12473TIP3    H237377   0.338   2.472   5.042  0.0105  1.1889  0.1517
12474TIP3   OH237378  -0.014   5.200   5.513  0.7033  0.7041 -0.6717
12474TIP3    H137379   0.075   5.181   5.544  0.3271  1.1913  0.7736
12474TIP3    H237380  -0.023   5.148   5.433  1.4074 -1.3420  0.4987
12475TIP3   OH237381   3.787   7.467   5.496 -0.5127 -0.5000 -0.0066
12475TIP3    H137382   3.778   7.411   5.573  0.1846 -0.2612  0.2519
12475TIP3    H237383   3.698   7.497   5.478 -0.8890 -1.6575 -0.1299
12476TIP3   OH237384   1.020   5.433   5.961 -0.4643 -0.3783 -0.3669
12476TIP3    H137385   0.972   5.447   5.879  0.0797  0.4874 -0.5483
12476TIP3    H237386   0.968   5.477   6.028  0.8297  2.0277 -0.8104
12477TIP3   OH237387   2.155   4.727   4.851 -0.2860 -0.0036 -0.2627
12477TIP3    H137388   2.075   4.765   4.888  0.3363  0.6587  0.4566
12477TIP3    H237389   2.193   4.677   4.923  0.3307  0.3182 -0.3539
12478TIP3   OH237390   1.978   1.124   4.902 -0.1357 -0.6924 -0.0231
12478TIP3    H137391   2.037   1.056   4.936 -1.2126 -0.9929  1.3475
12478TIP3    H237392   1.905   1.126   4.964  0.6122  2.8721  0.9684
12479TIP3   OH237393   6.083   4.304   4.872  0.1092  0.0971  0.5534
12479TIP3    H137394   6.083   4.322   4.778  0.2517 -2.1708  0.0730
12479TIP3    H237395   5.991   4.310   4.898  0.2668  2.7986  0.7760
12480TIP3   OH237396   4.813   0.082   2.732  0.0280 -0.5691 -0.9280
12480TIP3    H137397   4.905   0.104   2.720  0.0287 -0.2836 -0.4085
12480TIP3    H237398   4.804  -0.006   2.695  0.4720 -0.5299 -1.1277
12481TIP3   OH237399   6.049   5.153   5.029 -0.3274 -0.0697 -0.5123
12481TIP3    H137400   5.972   5.104   5.057 -0.9707  1.1594 -0.0687
12481TIP3    H237401   6.036   5.166   4.935 -0.3559 -0.3678 -0.5527
12482TIP3   OH237402   5.692   2.906   4.891 -0.2501 -0.6320 -0.0455
12482TIP3    H137403   5.649   2.978   4.845 -0.6267 -1.1467 -0.5077
12482TIP3    H237404   5.622   2.862   4.939  0.2759  0.4994  1.8894
12483TIP3   OH237405   6.594   6.975   5.923 -0.4039 -0.2832 -0.1300
12483TIP3    H137406   6.526   7.032   5.886 -1.5332  0.4690  2.8744
12483TIP3    H237407   6.675   7.025   5.913 -0.8224  0.3103 -0.6300
12484TIP3   OH237408   1.389   1.202   3.295  0.0888  0.7834  0.4439
12484TIP3    H137409   1.409   1.135   3.359 -0.0796  0.1470 -0.1568
12484TIP3    H237410   1.295   1.193   3.278  0.4344 -0.2164 -1.1500
12485TIP3   OH237411   7.464   6.226   1.424  0.9560  0.1798  0.2348
12485TIP3    H137412   7.495   6.211   1.513  1.2602 -0.5537  0.0126
12485TIP3    H237413   7.538   6.203   1.368  0.5672  0.0543 -0.2332
12486TIP3   OH237414   0.373   0.196   3.050  0.6166  0.0258 -0.2788
12486TIP3    H137415   0.458   0.179   3.010  1.6475  0.4806  1.6032
12486TIP3    H237416   0.341   0.274   3.005  2.7958  1.9132  1.2064
12487TIP3   OH237417   2.983   1.653   0.472  0.4247 -0.4050  0.1307
12487TIP3    H137418   3.038   1.600   0.531 -0.4366 -1.3466  0.1207
12487TIP3    H237419   2.957   1.728   0.525  2.6527  0.6931 -0.2251
12488TIP3   OH237420   0.717   3.365   0.397 -0.6202 -0.0789  0.1075
12488TIP3    H137421   0.790   3.308   0.371 -0.6438  0.1905 -0.5796
12488TIP3    H237422   0.648   3.304   0.422  0.3531 -0.3526  2.3690
12489TIP3   OH237423   1.691   6.545   3.906 -0.1310  0.1760  0.2614
12489TIP3    H137424   1.673   6.476   3.969  0.5057 -0.4179 -0.1893
12489TIP3    H237425   1.612   6.598   3.905 -1.5769 -1.8355 -1.0099
12490TIP3   OH237426   4.564   4.080   4.647 -0.8817 -0.2759  0.1511
12490TIP3    H137427   4.645   4.030   4.641 -0.6085  0.3035 -1.3999
12490TIP3    H237428   4.586   4.155   4.702 -0.8478 -0.9690  1.1178
12491TIP3   OH237429   4.058   5.557   2.180  0.3272 -0.6215  0.1644
12491TIP3    H137430   4.065   5.565   2.275 -1.9372  0.1455  0.3316
12491TIP3    H237431   4.076   5.465   2.162 -0.6090 -1.0946  1.5277
12492TIP3   OH237432   2.702   0.984   2.122 -0.3760  0.5975 -0.2316
12492TIP3    H137433   2.673   0.901   2.085  2.2980 -0.2933 -0.5917
12492TIP3    H237434   2.645   0.998   2.198 -2.3641 -0.3524 -1.4768
12493TIP3   OH237435   4.985   4.515   6.375  0.1873  0.3865 -0.1038
12493TIP3    H137436   4.941   4.472   6.302 -0.3480  0.5920  0.0890
12493TIP3    H237437   5.036   4.445   6.417  2.5921  0.7676 -2.1652
12494TIP3   OH237438   1.091   6.736   5.770  0.4512 -0.5247  0.1306
12494TIP3    H137439   1.001   6.722   5.798  0.1668 -0.2349 -0.6262
12494TIP3    H237440   1.144   6.696   5.839 -0.2726 -1.8547 -0.0507
12495TIP3   OH237441   3.894   7.527   5.738  0.4437 -0.6380  0.1663
12495TIP3    H137442   3.905   7.543   5.644  1.0272  1.1243  0.4962
12495TIP3    H237443   3.969   7.474   5.763  0.2494 -1.1712 -0.3619
12496TIP3   OH237444   1.131   7.266   2.752 -0.0448  0.1805 -0.2710
12496TIP3    H137445   1.061   7.307   2.701 -0.2032 -0.1602 -0.3350
12496TIP3    H237446   1.101   7.269   2.842 -1.2015 -1.9536 -0.5067
12497TIP3   OH237447   2.749   2.145   4.205  0.1025 -0.7954  0.0242
12497TIP3    H137448   2.803   2.066   4.209  2.4001  0.6421 -1.0425
12497TIP3    H237449   2.768   2.183   4.120 -0.5803  1.1677  0.7014
12498TIP3   OH237450   4.183   2.545   4.655 -0.0872 -0.0374 -0.6404
12498TIP3    H137451   4.228   2.628   4.642 -0.3726  0.3463  0.6603
12498TIP3    H237452   4.103   2.552   4.603  0.3238  0.1312 -1.2541
12499TIP3   OH237453   0.201   5.018   0.082 -0.7824 -0.3191 -0.1805
12499TIP3    H137454   0.172   5.016   0.173 -1.3927  0.0098 -0.3629
12499TIP3    H237455   0.228   5.109   0.068  0.9558 -0.7371  0.1626
12500TIP3   OH237456   4.388   1.677   0.393  0.3714  0.4923  0.4152
12500TIP3    H137457   4.329   1.631   0.333  1.0928  0.6309 -0.4210
12500TIP3    H237458   4.409   1.612   0.460 -0.6228  0.4012  0.6487
12501TIP3   OH237459   0.449   4.610   4.630 -0.2984 -0.2076 -0.3855
12501TIP3    H137460   0.357   4.594   4.653 -0.2255 -2.0578 -1.2506
12501TIP3    H237461   0.448   4.624   4.535  0.1526  1.2753 -0.1918
12502TIP3   OH237462   3.898   2.977   6.241  0.4799 -0.3310 -0.1814
12502TIP3    H137463   3.910   3.041   6.311 -1.0575 -1.6039  1.3430
12502TIP3    H237464   3.857   3.027   6.170 -0.2940  0.5021  0.8126
12503TIP3   OH237465   0.224   4.041   0.072  0.1500 -0.2886  0.0437
12503TIP3    H137466   0.290   3.989   0.118  0.8907 -0.1323 -0.8017
12503TIP3    H237467   0.250   4.036  -0.020 -0.9601 -0.1231 -0.2986
12504TIP3   OH237468   0.178   5.296   0.020  0.2822 -0.2772  0.0964
12504TIP3    H137469   0.146   5.352  -0.051  1.0628 -0.6248 -0.5449
12504TIP3    H237470   0.240   5.351   0.067 -0.3837  0.0195  0.6441
12505TIP3   OH237471   6.688   7.317   5.813 -0.1589  0.6702 -0.1728
12505TIP3    H137472   6.601   7.320   5.852 -0.1562 -0.1167 -0.0895
12505TIP3    H237473   6.740   7.377   5.865 -0.7536  1.4975 -0.5000
12506TIP3   OH237474   6.517   6.649   3.772 -0.1903  0.7485 -0.2289
12506TIP3    H137475   6.427   6.618   3.762 -0.6995  1.9518  0.4457
12506TIP3    H237476   6.517   6.736   3.732  1.4513 -0.3852 -3.0024
12507TIP3   OH237477   6.025   4.197   6.153  0.3124  0.0853 -0.1525
12507TIP3    H137478   5.966   4.248   6.097 -1.5066  1.1939  2.5566
12507TIP3    H237479   5.976   4.117   6.173  1.8623 -1.3528 -1.8258
12508TIP3   OH237480   4.214   3.710   1.876 -0.6906 -0.0574 -0.0893
12508TIP3    H137481   4.202   3.645   1.945  1.6259 -0.5775 -0.1056
12508TIP3    H237482   4.206   3.660   1.795 -0.4783 -0.0035 -0.1427
12509TIP3   OH237483   6.477   2.124   5.849  0.0100  0.7327 -0.9385
12509TIP3    H137484   6.419   2.060   5.809  0.3371 -0.6156  0.6682
12509TIP3    H237485   6.564   2.084   5.844 -0.1492 -0.4148  2.6852
12510TIP3   OH237486   5.257   2.218   3.892  0.3045  0.1713 -1.1005
12510TIP3    H137487   5.186   2.242   3.952  1.7556 -2.1362  1.7848
12510TIP3    H237488   5.213   2.169   3.822 -1.3676  2.4834 -1.8148
12511TIP3   OH237489   5.471   6.178   0.052 -0.3520  0.2241  0.1047
12511TIP3    H137490   5.504   6.236   0.120 -1.1600  1.3845 -0.4706
12511TIP3    H237491   5.514   6.207  -0.028  0.0412 -0.6648 -0.0166
12512TIP3   OH237492   2.497   1.199   6.690  0.7987  0.0011 -0.4184
12512TIP3    H137493   2.468   1.232   6.605 -1.4467  0.2420  0.3603
12512TIP3    H237494   2.466   1.108   6.693  1.5875 -0.2707 -0.1668
12513TIP3   OH237495   8.172   0.403   6.180 -0.0575  0.2350  0.1716
12513TIP3    H137496   8.261   0.428   6.156 -0.0733 -0.9395 -1.2360
12513TIP3    H237497   8.177   0.309   6.198 -1.1842 -0.0412 -0.8564
12514TIP3   OH237498   3.804   3.115   2.212  0.0627  0.1809 -0.6415
12514TIP3    H137499   3.747   3.040   2.231 -0.1273  0.7925  1.4890
12514TIP3    H237500   3.883   3.097   2.263  0.3081  1.0584 -0.7085
12515TIP3   OH237501   7.063   3.294   4.069  0.0028  0.1428 -0.3679
12515TIP3    H137502   7.049   3.233   3.996 -2.4032  0.2836 -0.1143
12515TIP3    H237503   7.056   3.381   4.029  1.2006  0.2629 -0.3535
12516TIP3   OH237504   2.153   0.077   1.721  0.1051  0.1200  0.3229
12516TIP3    H137505   2.189   0.125   1.646  1.0930  0.5849  1.0724
12516TIP3    H237506   2.141   0.144   1.789  0.0544 -0.4351  0.8704
12517TIP3   OH237507   1.143   7.370   3.393  0.2306  0.2803  0.2900
12517TIP3    H137508   1.173   7.290   3.350  1.9699  1.4684 -0.8373
12517TIP3    H237509   1.110   7.340   3.478  0.2011 -1.6979 -0.3654
12518TIP3   OH237510   1.298   1.256   6.045 -0.4129  0.7581 -0.1269
12518TIP3    H137511   1.389   1.257   6.074 -0.4460 -0.1946  0.0198
12518TIP3    H237512   1.251   1.210   6.114 -1.0918  1.6338  0.0158
12519TIP3   OH237513   5.425   1.055   3.792  0.3835  0.0243  0.7371
12519TIP3    H137514   5.413   1.110   3.870  0.5452  0.3471  0.5354
12519TIP3    H237515   5.484   0.986   3.821  1.5249  0.8853  0.5512
12520TIP3   OH237516   7.982   3.783   5.554 -0.1223 -0.2500  0.6231
12520TIP3    H137517   8.063   3.808   5.509  2.0241 -4.6854  1.4899
12520TIP3    H237518   7.983   3.834   5.635  0.0443  2.0674 -0.7511
12521TIP3   OH237519   0.033   3.892   5.947  0.2071 -0.1954  0.4476
12521TIP3    H137520   0.032   3.985   5.925  1.6968  0.0424  1.2470
12521TIP3    H237521   0.113   3.880   6.000  2.3830 -2.6566 -2.9241
12522TIP3   OH237522   1.781   4.927   0.980  0.2757 -0.4302  0.1209
12522TIP3    H137523   1.693   4.890   0.969  0.1581 -1.3410  3.2047
12522TIP3    H237524   1.832   4.887   0.910 -1.2846 -1.5625 -0.4450
12523TIP3   OH237525   7.294   5.858   0.260 -0.2991  0.1611 -0.4408
12523TIP3    H137526   7.279   5.865   0.354 -0.5241  0.4068 -0.4939
12523TIP3    H237527   7.320   5.947   0.234  0.1151  0.0114 -0.5477
12524TIP3   OH237528   3.255   5.454   2.430  0.3383  0.3700 -0.1254
12524TIP3    H137529   3.315   5.521   2.463 -0.0181 -0.3855  2.2933
12524TIP3    H237530   3.275   5.376   2.482 -1.8347 -0.2789 -0.1522
12525TIP3   OH237531   6.578   6.271   1.359  0.0295 -0.0240 -0.2332
12525TIP3    H137532   6.639   6.339   1.330  0.8552 -0.0950  1.2346
12525TIP3    H237533   6.491   6.309   1.345  0.4541  0.9953 -0.2179
12526TIP3   OH237534   3.637   6.738   1.677 -0.1527 -0.3063 -0.1964
12526TIP3    H137535   3.611   6.829   1.661  1.5193  0.1449 -0.5406
12526TIP3    H237536   3.688   6.714   1.599 -0.4743 -1.5074 -0.0567
12527TIP3   OH237537   4.450   2.254   1.973  0.0368 -0.6253  0.2316
12527TIP3    H137538   4.500   2.324   2.017 -1.2201  0.9689 -0.7637
12527TIP3    H237539   4.406   2.298   1.900 -2.8688 -1.9057  1.0646
12528TIP3   OH237540   6.046   0.513   1.893 -0.0077 -0.0339 -0.5848
12528TIP3    H137541   6.076   0.422   1.899  1.9075  0.5326 -0.9392
12528TIP3    H237542   6.081   0.555   1.972 -3.2250 -0.1481  1.0783
12529TIP3   OH237543   7.571   3.237   0.261 -0.3073 -0.7429 -0.6250
12529TIP3    H137544   7.657   3.218   0.224 -0.7926  0.0588 -2.2340
12529TIP3    H237545   7.518   3.266   0.187 -1.6887 -0.2697  0.4940
12530TIP3   OH237546   4.163   5.968   4.015 -0.2058  0.6295  0.0083
12530TIP3    H137547   4.135   5.911   4.087 -0.6484 -0.3100 -0.8886
12530TIP3    H237548   4.193   6.048   4.059 -0.1128 -0.0577  1.2607
12531TIP3   OH237549   7.577   6.287   5.459 -0.4790  0.4249 -0.6729
12531TIP3    H137550   7.531   6.370   5.471  1.2199  1.2118  0.7531
12531TIP3    H237551   7.648   6.307   5.398  2.6419  1.2656  2.8898
12532TIP3   OH237552   0.426   1.807   2.723  1.0912  0.5358  0.2452
12532TIP3    H137553   0.382   1.781   2.804  2.9393  1.7726  1.7345
12532TIP3    H237554   0.519   1.789   2.739  1.5205  0.8178 -1.6133
12533TIP3   OH237555   6.680   7.744   2.006 -0.2273  0.6116  0.1106
12533TIP3    H137556   6.760   7.768   1.958  0.1650 -0.3747  0.2391
12533TIP3    H237557   6.654   7.660   1.968 -1.3938  1.0662 -0.1370
12534TIP3   OH237558   0.911   2.785   6.404  0.3406 -0.1247  0.3986
12534TIP3    H137559   0.944   2.807   6.317  1.1186  1.2346  1.0071
12534TIP3    H237560   0.817   2.805   6.400  0.3441 -0.2149 -0.1585
12535TIP3   OH237561   0.280   0.720   3.002  0.5514 -0.3158 -0.1068
12535TIP3    H137562   0.247   0.651   2.945  0.0865 -0.7698  0.6987
12535TIP3    H237563   0.207   0.741   3.060  0.7651  0.6830 -0.1713
12536TIP3   OH237564   5.254   0.350   1.273 -0.0554 -0.0805 -0.0950
12536TIP3    H137565   5.308   0.346   1.194  2.5240  1.4997  1.4497
12536TIP3    H237566   5.293   0.285   1.332 -1.3175 -0.5181  0.3035
12537TIP3   OH237567   7.523   0.142   5.819  1.0401  0.1581  0.4352
12537TIP3    H137568   7.574   0.066   5.792  0.7983  0.5027 -1.0983
12537TIP3    H237569   7.432   0.114   5.811  0.9384 -0.1604  2.2748
12538TIP3   OH237570   0.840   0.085   3.831 -0.0776 -0.0576  0.2236
12538TIP3    H137571   0.811   0.176   3.839 -3.6899 -1.1146  1.1053
12538TIP3    H237572   0.870   0.077   3.741 -2.9221  1.2795 -0.9603
12539TIP3   OH237573   1.192   3.864   6.328 -0.1062  0.1566  0.1559
12539TIP3    H137574   1.197   3.958   6.349  0.7149  0.0435  0.4834
12539TIP3    H237575   1.185   3.861   6.233  1.0976  0.5138  0.0525
12540TIP3   OH237576   0.869   3.167   0.547  0.1640 -0.1143 -0.1185
12540TIP3    H137577   0.905   3.230   0.609 -0.9598  0.7722 -0.3414
12540TIP3    H237578   0.923   3.177   0.468  0.8910 -0.4637  0.3211
12541TIP3   OH237579   0.776   3.938   2.619  0.3540  0.1010  0.0627
12541TIP3    H137580   0.837   3.980   2.559 -0.6125 -0.3714 -1.3103
12541TIP3    H237581   0.690   3.969   2.591 -0.2097 -1.0344  0.4619
12542TIP3   OH237582   2.088   3.173   0.818 -0.6931 -0.7851  0.1004
12542TIP3    H137583   2.004   3.139   0.849 -0.2738 -2.5570 -0.5360
12542TIP3    H237584   2.151   3.104   0.840  0.4475  0.1251 -0.2025
12543TIP3   OH237585   3.058   0.098   1.084  0.4736 -1.0142  1.0789
12543TIP3    H137586   2.984   0.041   1.065 -0.1883 -0.2251  1.2528
12543TIP3    H237587   3.095   0.120   0.999  0.0414 -0.7906  0.9514
12544TIP3   OH237588   2.138   7.160   2.835 -0.0530  0.5180 -0.1140
12544TIP3    H137589   2.078   7.164   2.760 -2.3926 -1.1671  1.4970
12544TIP3    H237590   2.080   7.160   2.911  1.8463 -2.7953  1.5404
12545TIP3   OH237591   4.819   1.134   5.634  0.4422 -0.2567 -0.5378
12545TIP3    H137592   4.742   1.180   5.668  2.2441  1.3306  1.7287
12545TIP3    H237593   4.800   1.042   5.649 -0.6945  0.1529  0.7884
12546TIP3   OH237594   7.723   2.835   4.702 -0.0115 -0.2110 -0.2654
12546TIP3    H137595   7.650   2.820   4.643 -0.0388 -0.2406 -0.2246
12546TIP3    H237596   7.779   2.897   4.656  2.1784 -3.3511 -2.2744
12547TIP3   OH237597   6.014   2.074   3.143 -0.1216 -0.1837  0.4200
12547TIP3    H137598   6.060   2.019   3.079 -1.8400 -0.3177 -0.7784
12547TIP3    H237599   6.034   2.033   3.228 -0.7018 -2.2302 -0.3603
12548TIP3   OH237600   4.534   1.816   3.769  0.1400  0.0643  0.4479
12548TIP3    H137601   4.556   1.905   3.744  1.9380 -0.9286 -1.7964
12548TIP3    H237602   4.570   1.806   3.857  1.1855  1.1281  0.1558
12549TIP3   OH237603   6.422   2.196   1.618 -0.2977  0.1186  0.1783
12549TIP3    H137604   6.362   2.262   1.654 -0.0737 -0.0100  0.8010
12549TIP3    H237605   6.373   2.114   1.621 -0.9848  0.4336 -1.6484
12550TIP3   OH237606   4.611   1.898   4.959  0.4104 -0.1656  1.3010
12550TIP3    H137607   4.610   1.923   5.052  0.1866 -0.3096  1.3369
12550TIP3    H237608   4.529   1.851   4.946  0.7442 -0.7276  1.1898
12551TIP3   OH237609   1.354   0.689   1.192 -0.0884  0.1470 -0.6596
12551TIP3    H137610   1.439   0.655   1.165  0.1876  0.5944 -0.3548
12551TIP3    H237611   1.371   0.739   1.272 -0.3920  1.3941 -1.3398
12552TIP3   OH237612   3.777   4.320   5.356 -0.7237 -1.3007  0.2849
12552TIP3    H137613   3.688   4.323   5.393 -0.6548 -2.1369  0.5598
12552TIP3    H237614   3.814   4.239   5.392  0.0278 -1.1345 -0.1048
12553TIP3   OH237615   0.045   1.822   3.838 -0.2435  0.0832  0.5983
12553TIP3    H137616   0.071   1.776   3.917  1.9544  0.3965  0.1378
12553TIP3    H237617   0.041   1.914   3.863 -0.4141  0.0886  0.5523
12554TIP3   OH237618   6.700   6.703   5.633  0.4544 -0.1069 -0.0118
12554TIP3    H137619   6.777   6.751   5.665  0.7124 -1.1505  1.0516
12554TIP3    H237620   6.693   6.629   5.693 -2.5093  0.9367  1.0851
12555TIP3   OH237621   1.474   7.686   6.393 -0.0066 -0.1055 -0.0510
12555TIP3    H137622   1.516   7.664   6.476  2.5263 -0.1003 -1.2324
12555TIP3    H237623   1.483   7.781   6.386 -1.0807  0.0189  0.0679
12556TIP3   OH237624   0.135   2.295   3.214  0.0880  0.3166 -0.1158
12556TIP3    H137625   0.051   2.251   3.220  0.5989 -0.5195  1.3027
12556TIP3    H237626   0.169   2.271   3.128 -0.0101 -1.4269  0.2931
12557TIP3   OH237627   3.797   0.232   3.523 -0.0953 -0.6177 -0.0318
12557TIP3    H137628   3.711   0.199   3.498 -1.5716  1.6081  1.7078
12557TIP3    H237629   3.795   0.325   3.498  1.7810 -0.4846  0.1584
12558TIP3   OH237630   6.881   5.429   4.100 -0.4248  0.6046 -0.6588
12558TIP3    H137631   6.878   5.333   4.100 -1.9543  0.5973 -2.3958
12558TIP3    H237632   6.853   5.454   4.188  1.4104 -0.5180  0.3099
12559TIP3   OH237633   7.457   3.933   1.460 -0.4114  0.0792  0.0373
12559TIP3    H137634   7.365   3.957   1.448 -0.4922 -0.4014 -0.3530
12559TIP3    H237635   7.462   3.901   1.550 -0.6563 -0.0059  0.0221
12560TIP3   OH237636   3.419   7.230   4.991 -0.1332 -0.3063  0.0146
12560TIP3    H137637   3.424   7.315   4.947  0.3316 -0.2603  0.1489
12560TIP3    H237638   3.350   7.183   4.945 -0.4492  0.1739 -0.0131
12561TIP3   OH237639   5.736   3.840   1.340 -0.0846  0.1616 -0.8656
12561TIP3    H137640   5.784   3.844   1.258  0.4167  0.9084 -0.5466
12561TIP3    H237641   5.739   3.748   1.366  1.0184  0.1681 -0.9499
12562TIP3   OH237642   7.275   3.091   3.550 -0.1523 -0.1109 -0.4244
12562TIP3    H137643   7.327   3.017   3.583 -1.4087 -1.0261 -0.4436
12562TIP3    H237644   7.246   3.064   3.463 -1.4387 -0.0170 -0.0407
12563TIP3   OH237645   5.175   4.286   3.559  0.4159  0.0971 -0.2275
12563TIP3    H137646   5.207   4.376   3.556 -0.8067  0.5169 -1.7013
12563TIP3    H237647   5.080   4.294   3.563  0.3006 -1.1368 -0.1697
12564TIP3   OH237648   5.834   0.882   6.221 -0.5342  0.1546  0.1274
12564TIP3    H137649   5.890   0.956   6.244 -0.6891  0.3039  0.0240
12564TIP3    H237650   5.750   0.922   6.197 -0.8582 -0.0997  0.7953
12565TIP3   OH237651   7.322   2.995   2.419  0.3585  0.0665  0.4091
12565TIP3    H137652   7.384   2.995   2.492 -0.0767  2.0527  0.8475
12565TIP3    H237653   7.300   3.088   2.407 -2.7689 -0.5667  0.5068
12566TIP3   OH237654   0.718   7.060   4.601  0.3799  0.0653 -0.0206
12566TIP3    H137655   0.792   7.120   4.596  0.3739  0.1103  0.3969
12566TIP3    H237656   0.714   7.035   4.693  0.0723 -0.1849 -0.1009
12567TIP3   OH237657   0.215   2.591   6.140  0.9878 -0.1609  0.0694
12567TIP3    H137658   0.297   2.586   6.188  0.7611 -1.2061  0.3667
12567TIP3    H237659   0.177   2.675   6.167  0.5598 -0.9838  2.2413
12568TIP3   OH237660   1.139   5.874   4.123 -0.0076  0.0339 -0.1352
12568TIP3    H137661   1.101   5.787   4.137 -0.2171  0.2908  0.9921
12568TIP3    H237662   1.073   5.921   4.072 -0.6309  0.0551  0.6738
12569TIP3   OH237663   6.386   2.203   5.354 -0.1041  0.0505 -0.3644
12569TIP3    H137664   6.340   2.259   5.416  1.2643  0.0468  0.6834
12569TIP3    H237665   6.363   2.114   5.381  3.0677 -0.1020  2.3343
12570TIP3   OH237666   2.217   2.543   1.524  0.4827 -0.5725 -0.4595
12570TIP3    H137667   2.274   2.482   1.570  0.1798 -0.8138 -0.3992
12570TIP3    H237668   2.222   2.516   1.433  1.2700  0.0550 -0.6148
12571TIP3   OH237669   7.337   2.794   5.229 -0.2734 -0.3436 -0.4064
12571TIP3    H137670   7.369   2.879   5.201  1.4222 -0.6252  0.5455
12571TIP3    H237671   7.329   2.743   5.148  2.4088 -0.4564 -0.6816
12572TIP3   OH237672   3.688   1.806   3.331 -0.3785 -0.5402  0.5879
12572TIP3    H137673   3.701   1.820   3.237  0.8789  0.8022  0.9306
12572TIP3    H237674   3.670   1.893   3.366  0.6043 -0.7952  1.7918
12573TIP3   OH237675   1.156   0.539   3.186 -0.5717 -0.1719 -0.2533
12573TIP3    H137676   1.079   0.496   3.151  0.1833 -2.2652  0.4713
12573TIP3    H237677   1.228   0.479   3.167  0.4516  0.4637  1.3516
12574TIP3   OH237678   0.187   6.901   5.293  0.0519  0.0517 -0.5453
12574TIP3    H137679   0.180   6.892   5.388  0.2398 -0.0622 -0.5406
12574TIP3    H237680   0.213   6.814   5.263  2.0291  0.5585 -0.4870
12575TIP3   OH237681   6.266   2.655   2.959  0.0068 -0.0037  0.7681
12575TIP3    H137682   6.233   2.569   2.933 -1.1840  1.2567 -2.3144
12575TIP3    H237683   6.215   2.677   3.038 -3.0905 -0.2706 -0.9872
12576TIP3   OH237684   2.018   7.777   1.126 -0.0034 -0.3090  0.2405
12576TIP3    H137685   2.024   7.763   1.220  3.1054  0.1160  0.2049
12576TIP3    H237686   1.927   7.756   1.104 -0.5938 -1.2124  3.1690
12577TIP3   OH237687   0.333   2.231   1.370  0.3268 -0.0515 -0.0454
12577TIP3    H137688   0.284   2.298   1.323 -1.6199  0.0836  2.0174
12577TIP3    H237689   0.310   2.245   1.462  3.4137 -0.7124  0.9491
12578TIP3   OH237690   4.029   3.337   1.300  0.0894 -0.2778 -0.7063
12578TIP3    H137691   4.072   3.421   1.321  0.6944 -0.7981  0.2093
12578TIP3    H237692   4.100   3.282   1.268 -0.2160 -0.5927 -0.8397
12579TIP3   OH237693   7.043   6.708   1.805 -0.1987  0.3078  0.0122
12579TIP3    H137694   7.067   6.795   1.774 -1.3751  1.4641  2.1748
12579TIP3    H237695   6.993   6.723   1.885  0.9625 -2.4105  1.3921
12580TIP3   OH237696   4.009   1.863   6.375  0.3309 -0.1163  0.4519
12580TIP3    H137697   3.942   1.897   6.433 -0.1742 -0.4572  0.0797
12580TIP3    H237698   4.022   1.773   6.403  0.1140 -0.2704  0.0737
12581TIP3   OH237699   6.351   6.282   2.736  0.0269  0.8144 -0.6623
12581TIP3    H137700   6.324   6.212   2.796 -1.1271  2.7538  1.2045
12581TIP3    H237701   6.283   6.284   2.669 -0.1864  0.4934 -0.4567
12582TIP3   OH237702   7.190   7.794   5.785 -0.1403 -0.0957 -0.1082
12582TIP3    H137703   7.275   7.799   5.739 -0.3186  0.5475 -0.3773
12582TIP3    H237704   7.213   7.799   5.877  0.1685 -0.6775 -0.1415
12583TIP3   OH237705   3.915   3.983   2.087  1.0760 -0.1120 -0.3830
12583TIP3    H137706   3.896   3.997   2.180 -0.7383 -1.2431 -0.5262
12583TIP3    H237707   4.010   3.975   2.082  1.4225  2.3228  1.0016
12584TIP3   OH237708   6.652   7.240   5.096 -0.5463 -0.3964  0.1371
12584TIP3    H137709   6.611   7.323   5.119  0.0969 -0.5093  1.8151
12584TIP3    H237710   6.630   7.227   5.004 -1.2114  1.3012  0.0262
12585TIP3   OH237711   6.590   2.264   4.945  0.0213  0.2970 -0.2698
12585TIP3    H137712   6.600   2.169   4.954  0.6721  0.3943  0.1319
12585TIP3    H237713   6.611   2.282   4.853 -0.6910 -0.0130 -0.4992
12586TIP3   OH237714   2.488   3.214   2.103 -0.1558  0.3037  0.1221
12586TIP3    H137715   2.499   3.157   2.179 -0.0534 -1.3460 -1.0820
12586TIP3    H237716   2.413   3.178   2.056  0.4473  0.6298 -1.1355
12587TIP3   OH237717   5.448   2.318   1.337  0.3234 -0.1850 -0.2195
12587TIP3    H137718   5.453   2.360   1.251 -1.0338  0.5771  0.0371
12587TIP3    H237719   5.409   2.233   1.320 -4.9880  1.7902  0.0094
12588TIP3   OH237720   7.390   6.843   2.195 -0.1815 -0.1974  0.0783
12588TIP3    H137721   7.455   6.913   2.201 -0.0572 -0.3306  0.2927
12588TIP3    H237722   7.316   6.883   2.149 -0.1885  0.1322  0.3787
12589TIP3   OH237723   3.326   4.571   3.129 -0.0187 -0.6106 -0.3116
12589TIP3    H137724   3.288   4.526   3.205  0.7436 -2.0905 -0.7648
12589TIP3    H237725   3.276   4.539   3.054 -1.4231  1.5923 -0.3913
12590TIP3   OH237726   1.250   2.016   1.583 -0.7235  0.8711 -0.2906
12590TIP3    H137727   1.235   2.045   1.673 -2.1047  0.0038 -0.2026
12590TIP3    H237728   1.275   1.924   1.592 -1.0678  0.7239 -0.7844
12591TIP3   OH237729   8.180   3.455   0.268  0.3042  0.3397 -0.4716
12591TIP3    H137730   8.160   3.510   0.192  1.6032  2.9291  0.9553
12591TIP3    H237731   8.095   3.434   0.306 -0.2555  0.7502 -1.4524
12592TIP3   OH237732   2.406   0.292   0.237  0.4697 -0.9564 -0.0889
12592TIP3    H137733   2.484   0.323   0.190  0.7808 -0.8720  0.4707
12592TIP3    H237734   2.410   0.196   0.228  0.9957 -0.9978  0.4712
12593TIP3   OH237735   6.693   7.565   3.626  0.1764  0.0552  0.2436
12593TIP3    H137736   6.626   7.578   3.559 -0.3783 -1.2965  0.5058
12593TIP3    H237737   6.752   7.500   3.588  0.3623 -0.0485  0.7040
12594TIP3   OH237738   1.679   7.094   2.333  0.3767  0.1073  0.3020
12594TIP3    H137739   1.740   7.038   2.381  0.9440  0.8137  0.4250
12594TIP3    H237740   1.736   7.155   2.285 -0.1542 -0.6677 -1.4003
12595TIP3   OH237741   3.562   0.095   4.501 -0.3197  0.1164 -0.0936
12595TIP3    H137742   3.516   0.011   4.507  0.0767 -0.0010  1.8349
12595TIP3    H237743   3.510   0.146   4.438 -2.9388 -0.1325  1.7150
12596TIP3   OH237744   3.226   6.557   2.714  0.4617 -0.3191 -0.3799
12596TIP3    H137745   3.158   6.573   2.649  0.6333  1.9174 -0.0934
12596TIP3    H237746   3.227   6.637   2.767  2.3644 -0.8571  0.4728
12597TIP3   OH237747   7.046   5.001   6.590  0.0818  0.7578  0.3808
12597TIP3    H137748   7.032   5.087   6.550  0.3889  0.9572  0.6980
12597TIP3    H237749   6.976   4.946   6.553  0.4589  0.8890 -0.5559
12598TIP3   OH237750   1.353   1.656   5.743 -0.3492  0.5729 -0.4876
12598TIP3    H137751   1.439   1.689   5.771  0.1030  1.2008 -2.4426
12598TIP3    H237752   1.362   1.561   5.746  0.5023  0.6300 -0.8534
12599TIP3   OH237753   6.804   0.836   1.805 -0.0778 -0.5535 -0.2877
12599TIP3    H137754   6.726   0.867   1.760  0.6768  1.1510 -0.5076
12599TIP3    H237755   6.785   0.848   1.898 -0.2003 -0.4318 -0.3286
12600TIP3   OH237756   6.168   0.532   2.691  0.0765 -0.4763 -0.5812
12600TIP3    H137757   6.119   0.596   2.742 -0.0019 -0.8695 -0.1620
12600TIP3    H237758   6.259   0.560   2.698  0.1682 -1.0027  0.4704
12601TIP3   OH237759   7.422   1.060   4.617 -0.1349 -0.0555 -0.7377
12601TIP3    H137760   7.355   1.095   4.559 -0.0571 -0.6943 -1.2217
12601TIP3    H237761   7.473   1.136   4.644 -0.2718  0.2672 -1.3808
12602TIP3   OH237762   2.343   6.261   5.638  0.1707 -0.4288 -0.0270
12602TIP3    H137763   2.393   6.266   5.719  0.9715  2.7497 -0.5794
12602TIP3    H237764   2.258   6.300   5.660  0.0665 -0.3744 -0.5241
12603TIP3   OH237765   5.834   0.461   6.504 -0.8619 -0.1832 -0.4399
12603TIP3    H137766   5.913   0.515   6.495 -1.0733  0.4500  1.1836
12603TIP3    H237767   5.865   0.371   6.489  0.2468  0.0262  0.4408
12604TIP3   OH237768   0.938   2.018   6.636  0.1321  0.8684 -0.2565
12604TIP3    H137769   0.895   1.986   6.556  1.2337 -2.0358  0.2302
12604TIP3    H237770   1.031   2.020   6.614  0.4363  0.1091  0.9311
12605TIP3   OH237771   7.054   4.133   0.264  0.2512  0.1355  0.2404
12605TIP3    H137772   6.981   4.195   0.263  1.0277  1.0560 -0.0936
12605TIP3    H237773   7.074   4.120   0.357 -0.6767 -0.5524  0.3615
12606TIP3   OH237774   7.803   2.053   4.404  0.2755 -0.1109 -0.1827
12606TIP3    H137775   7.850   2.049   4.321  0.3693  0.0511 -0.1386
12606TIP3    H237776   7.715   2.082   4.381 -0.9084 -3.5834 -0.7071
12607TIP3   OH237777   2.331   6.727   2.491  0.6481  0.3309  0.6580
12607TIP3    H137778   2.357   6.818   2.508 -0.6689  0.6637  1.0787
12607TIP3    H237779   2.239   6.734   2.464  0.9335 -0.7619 -0.7146
12608TIP3   OH237780   0.324   3.047   5.497 -0.3784 -0.0199 -0.3069
12608TIP3    H137781   0.404   2.996   5.510  0.0301  0.5507 -0.5817
12608TIP3    H237782   0.254   2.987   5.523  0.1936 -0.1811  0.9477
12609TIP3   OH237783   1.043   5.508   0.411  0.1508  0.2349 -0.3771
12609TIP3    H137784   1.069   5.573   0.345 -2.4952  2.0139  0.1602
12609TIP3    H237785   1.023   5.559   0.489  2.2691 -1.7364  1.6088
12610TIP3   OH237786   5.097   7.146   0.648  0.2834 -0.2161 -0.5344
12610TIP3    H137787   5.082   7.178   0.559  1.6918 -2.0748 -1.5078
12610TIP3    H237788   5.165   7.203   0.683 -1.0833  1.2584 -0.1623
12611TIP3   OH237789   2.154   0.376   3.242  0.0842 -0.4254 -0.7794
12611TIP3    H137790   2.177   0.376   3.150 -1.3102  0.7873 -1.1582
12611TIP3    H237791   2.201   0.451   3.279 -1.1819  0.5108 -1.0204
12612TIP3   OH237792   2.713   3.741   2.337 -0.0371 -0.5103  0.5992
12612TIP3    H137793   2.635   3.788   2.306  1.3603 -0.0588 -2.6883
12612TIP3    H237794   2.691   3.648   2.324 -0.7526 -0.5135  1.7125
12613TIP3   OH237795   1.207   3.830   2.409  0.0804  0.6177  0.5363
12613TIP3    H137796   1.249   3.902   2.361  2.7343 -1.2705 -0.2165
12613TIP3    H237797   1.144   3.793   2.347  0.6408  0.6496 -0.0592
12614TIP3   OH237798   5.443   3.817   5.610 -0.4393 -0.7372  0.2122
12614TIP3    H137799   5.408   3.739   5.653 -1.3207  0.2096  1.2582
12614TIP3    H237800   5.384   3.832   5.536  0.1227 -1.4287 -0.3892
12615TIP3   OH237801   0.311   7.496   3.020 -0.5971 -0.4095 -0.2986
12615TIP3    H137802   0.342   7.573   3.067 -0.5250  0.1657 -1.2657
12615TIP3    H237803   0.217   7.493   3.039 -0.5714 -0.1792 -0.1260
12616TIP3   OH237804   3.367   7.139   1.018 -0.2894  0.6656 -0.2808
12616TIP3    H137805   3.358   7.077   1.090  0.8453 -0.6236 -1.1892
12616TIP3    H237806   3.339   7.223   1.054  2.3388  0.5400  2.3682
12617TIP3   OH237807   6.214   7.122   2.923 -0.0954 -0.5509  0.1194
12617TIP3    H137808   6.132   7.126   2.873 -0.1520 -0.0026  0.2562
12617TIP3    H237809   6.198   7.053   2.988  0.0728 -1.4559 -0.7752
12618TIP3   OH237810   3.170   5.184   5.151  0.1380  0.1297 -0.7448
12618TIP3    H137811   3.210   5.097   5.141 -0.7133 -0.5894  1.3740
12618TIP3    H237812   3.244   5.243   5.164  0.6687 -0.9057  1.4594
12619TIP3   OH237813   6.757   4.707   1.862  0.0105 -0.5042 -0.3217
12619TIP3    H137814   6.673   4.672   1.890 -0.0642  0.6219  0.9742
12619TIP3    H237815   6.736   4.765   1.789 -0.2552 -0.6403 -0.3560
12620TIP3   OH237816   5.833   1.465   1.548  0.4804  0.2918 -0.0993
12620TIP3    H137817   5.759   1.476   1.488  0.2898  0.8120  0.2267
12620TIP3    H237818   5.863   1.375   1.533 -0.7746 -0.2278  0.4080
12621TIP3   OH237819   6.567   7.536   2.989  0.1760 -0.0175 -0.4590
12621TIP3    H137820   6.598   7.574   3.071 -0.3294 -1.0920  0.2609
12621TIP3    H237821   6.511   7.463   3.016 -0.3344 -0.1453 -1.7574
12622TIP3   OH237822   0.082   4.166   2.813 -0.6647 -0.1766 -0.6115
12622TIP3    H137823   0.143   4.117   2.868  1.6625  0.8238 -2.1403
12622TIP3    H237824   0.059   4.107   2.742  0.0032  0.0474 -1.0172
12623TIP3   OH237825   7.852   0.636   6.129  0.5725 -0.3723  0.3769
12623TIP3    H137826   7.837   0.544   6.150 -0.2786 -0.3404 -0.0279
12623TIP3    H237827   7.776   0.681   6.166 -0.0474 -0.0965 -1.1715
12624TIP3   OH237828   2.481   0.109   3.410 -0.7115 -0.3312  0.1396
12624TIP3    H137829   2.411   0.172   3.394  0.3454  0.5608 -1.2555
12624TIP3    H237830   2.519   0.135   3.494 -0.6125  0.6247 -0.1825
12625TIP3   OH237831   5.750   5.840   4.794 -0.1850  0.1212  0.2667
12625TIP3    H137832   5.760   5.747   4.814 -0.8823  0.4839  2.5439
12625TIP3    H237833   5.688   5.842   4.721  1.8318 -1.2517 -1.6094
12626TIP3   OH237834   5.065   2.313   5.315  0.1131 -0.2326 -0.1032
12626TIP3    H137835   5.159   2.318   5.303  0.2901 -1.0678  0.8211
12626TIP3    H237836   5.029   2.319   5.226  0.9593  1.1560 -0.3822
12627TIP3   OH237837   7.410   1.238   1.499  0.3323 -0.3581  0.2737
12627TIP3    H137838   7.364   1.202   1.575  0.2943 -0.5397  0.1634
12627TIP3    H237839   7.498   1.203   1.505  0.1874 -0.7851 -0.0489
12628TIP3   OH237840   1.032   0.872   3.190 -0.3458 -0.0005 -0.0135
12628TIP3    H137841   1.013   0.864   3.097 -1.1797 -1.1176  0.2300
12628TIP3    H237842   0.950   0.847   3.233  0.0395  0.4620  1.0214
12629TIP3   OH237843   5.009   0.091   3.455 -0.6178 -0.0177 -0.0481
12629TIP3    H137844   5.098   0.120   3.437 -0.6382  0.1763  0.1644
12629TIP3    H237845   4.968   0.085   3.368 -0.6924  0.8474 -0.0815
12630TIP3   OH237846   0.262   5.249   3.464  0.5496 -0.3027  0.2900
12630TIP3    H137847   0.294   5.303   3.536  0.1690  0.3138  0.0078
12630TIP3    H237848   0.313   5.277   3.388  1.2969 -1.2936  0.4007
12631TIP3   OH237849   6.378   1.916   5.403 -0.7858 -0.0701 -0.3283
12631TIP3    H137850   6.470   1.910   5.376  0.3160  0.8197  2.8808
12631TIP3    H237851   6.330   1.870   5.333  2.0101 -0.2391 -2.2973
12632TIP3   OH237852   5.282   0.151   2.589  0.0221 -0.2001  0.3744
12632TIP3    H137853   5.267   0.063   2.624 -1.8347 -0.0602  0.0432
12632TIP3    H237854   5.340   0.137   2.514  1.2950 -0.8802  1.4322
12633TIP3   OH237855   2.133   7.120   2.129  0.2904  0.1951 -0.1281
12633TIP3    H137856   2.181   7.181   2.186  0.2514 -1.0523  1.2996
12633TIP3    H237857   2.195   7.049   2.113  0.1603  0.3418 -1.3580
12634TIP3   OH237858   1.146   0.868   5.984  0.1814  0.0661 -0.0942
12634TIP3    H137859   1.197   0.941   5.950  0.6243  0.5387  1.4657
12634TIP3    H237860   1.059   0.905   6.001 -0.1537 -0.2650 -1.0251
12635TIP3   OH237861   8.191   5.442   4.049 -0.0440 -0.9676 -0.8795
12635TIP3    H137862   8.164   5.365   4.098 -1.0137 -1.0475 -1.5037
12635TIP3    H237863   8.267   5.413   3.998  0.9002 -0.9104  0.4464
12636TIP3   OH237864   3.867   4.389   4.070  0.3343  0.0740 -0.0256
12636TIP3    H137865   3.939   4.329   4.090  0.9741  1.2785  1.4971
12636TIP3    H237866   3.864   4.448   4.145 -0.2121  2.0127 -1.4998
12637TIP3   OH237867   3.070   1.139   6.163 -0.0135  0.5363 -0.3408
12637TIP3    H137868   3.128   1.081   6.113 -0.6937  0.4607 -1.0572
12637TIP3    H237869   3.053   1.212   6.103  0.5293  1.3097  0.4103
12638TIP3   OH237870   3.048   4.094   1.058  0.3609  0.2294 -0.3949
12638TIP3    H137871   3.103   4.097   1.136  1.2005  0.1500 -0.9675
12638TIP3    H237872   3.103   4.052   0.991 -1.0155 -1.5597 -0.5011
12639TIP3   OH237873   0.304   6.961   4.554  0.0473  0.6486  0.1524
12639TIP3    H137874   0.273   6.933   4.640  1.0235  1.2704  0.7217
12639TIP3    H237875   0.330   6.879   4.511 -1.9326  0.1530 -0.1986
12640TIP3   OH237876   6.546   5.254   0.015 -0.3151 -0.1733  0.2030
12640TIP3    H137877   6.635   5.287   0.020  0.1335 -1.1741 -0.7054
12640TIP3    H237878   6.555   5.159   0.021 -1.2036 -0.3525 -0.8651
12641TIP3   OH237879   4.714   4.485   0.312 -0.3984 -0.2309  0.0315
12641TIP3    H137880   4.740   4.576   0.324 -0.4764 -0.1027 -0.7009
12641TIP3    H237881   4.764   4.455   0.236 -2.3609  0.0438 -1.4572
12642TIP3   OH237882   3.558   5.108   6.045  0.1608 -0.3588 -0.0245
12642TIP3    H137883   3.477   5.082   6.090  0.8072 -0.9539  0.8135
12642TIP3    H237884   3.603   5.026   6.027  0.7134 -0.0128 -0.2419
12643TIP3   OH237885   0.689   3.377   2.862 -0.0977  0.5404 -0.2779
12643TIP3    H137886   0.627   3.438   2.821  0.1711  0.2388 -1.1507
12643TIP3    H237887   0.635   3.324   2.920 -0.8029 -0.1943 -1.5536
12644TIP3   OH237888   8.229   0.513   4.541  0.0069 -0.7785  0.2076
12644TIP3    H137889   8.212   0.550   4.627  0.4776 -1.8479  0.7737
12644TIP3    H237890   8.156   0.453   4.525 -0.5566  0.0681 -0.5474
12645TIP3   OH237891   7.595   6.361   3.870  0.0611  0.0780 -0.3638
12645TIP3    H137892   7.613   6.377   3.778 -1.8866  0.0093 -0.7907
12645TIP3    H237893   7.634   6.275   3.887 -2.0384 -1.3117 -1.9563
12646TIP3   OH237894   3.036   0.201   5.551  0.3997  0.3780 -0.1075
12646TIP3    H137895   3.066   0.128   5.606  0.4348  0.9227  0.6052
12646TIP3    H237896   3.091   0.275   5.578  0.5787  0.5952 -1.0458
12647TIP3   OH237897   3.987   5.965   6.414  0.2649 -0.2277  0.4247
12647TIP3    H137898   4.082   5.972   6.420  0.1816  1.1270  0.4565
12647TIP3    H237899   3.971   5.932   6.326  0.7721 -0.9475  0.5918
12648TIP3   OH237900   4.719   0.485   4.907 -0.3087  0.0135 -0.4217
12648TIP3    H137901   4.691   0.454   4.821 -0.9683  0.8023 -0.5035
12648TIP3    H237902   4.788   0.549   4.888 -1.3692  1.1792 -0.4549
12649TIP3   OH237903   5.741   7.147   6.137 -0.3752  0.6301 -0.6973
12649TIP3    H137904   5.810   7.208   6.114  1.2450 -0.4945  0.8999
12649TIP3    H237905   5.718   7.169   6.227 -1.3765  0.3351 -0.8746
12650TIP3   OH237906   3.991   0.051   4.409  0.4837 -0.1204 -0.2079
12650TIP3    H137907   3.951   0.120   4.356  1.4782  0.3963 -0.3096
12650TIP3    H237908   3.950   0.062   4.495 -0.4161 -0.3364 -0.5954
12651TIP3   OH237909   7.688   0.724   5.443  0.0146 -0.9267 -0.6295
12651TIP3    H137910   7.683   0.634   5.475  0.6271 -1.0268 -0.8053
12651TIP3    H237911   7.753   0.721   5.372 -0.7590 -0.5598 -1.3759
12652TIP3   OH237912   3.314   5.342   5.610 -0.4885 -0.0314  0.3575
12652TIP3    H137913   3.349   5.423   5.649 -1.3617  0.2524  0.5727
12652TIP3    H237914   3.391   5.299   5.573  0.2227  0.1842  1.5184
12653TIP3   OH237915   7.607   6.638   3.897 -0.6280 -0.4032 -0.1943
12653TIP3    H137916   7.600   6.544   3.883 -0.9449 -0.5216  0.6903
12653TIP3    H237917   7.608   6.648   3.993  1.0816  0.3595 -0.2576
12654TIP3   OH237918   1.546   3.094   4.329 -0.0976 -0.3583 -0.0652
12654TIP3    H137919   1.538   3.111   4.423  0.8579  1.4202 -0.2715
12654TIP3    H237920   1.456   3.083   4.299 -0.4568 -0.2579  0.9478
12655TIP3   OH237921   2.914   7.094   2.054 -0.5451  0.3716 -0.7706
12655TIP3    H137922   2.985   7.153   2.081 -1.3080  0.5662  0.8657
12655TIP3    H237923   2.921   7.092   1.958  2.5380 -0.6990 -0.6536
12656TIP3   OH237924   5.103   2.368   1.991  0.7464  0.0152 -0.3787
12656TIP3    H137925   5.021   2.410   1.963  1.0084  0.1814 -0.9095
12656TIP3    H237926   5.116   2.298   1.927  1.1038  0.0934 -0.3941
12657TIP3   OH237927   4.942   5.798   2.455 -0.1819  0.2853  0.1837
12657TIP3    H137928   4.927   5.882   2.413 -0.6706 -0.4943 -1.3116
12657TIP3    H237929   5.014   5.759   2.405  0.7090  0.2024  1.4812
12658TIP3   OH237930   1.143   7.054   0.281  0.0388  0.1591 -0.7968
12658TIP3    H137931   1.234   7.021   0.279 -0.1645 -0.4715 -0.1668
12658TIP3    H237932   1.151   7.143   0.314  0.5365  0.5209 -1.8384
12659TIP3   OH237933   6.741   3.300   2.276  0.5804  0.4567  0.2396
12659TIP3    H137934   6.807   3.232   2.284  0.0907 -0.1154 -0.4736
12659TIP3    H237935   6.771   3.370   2.335  1.7741  0.1891 -0.0326
12660TIP3   OH237936   3.816   4.766  -0.021  0.0804  0.3210 -0.2084
12660TIP3    H137937   3.727   4.795  -0.040  0.3206  0.1421 -1.8061
12660TIP3    H237938   3.809   4.718   0.062 -1.1158  1.1373  0.1933
12661TIP3   OH237939   6.496   6.518   4.623  0.4476  0.1130  0.8348
12661TIP3    H137940   6.586   6.487   4.631  0.5911  0.4287  0.4383
12661TIP3    H237941   6.501   6.592   4.563  0.0493  0.6934  1.5045
12662TIP3   OH237942   7.632   7.011   1.553  0.8216  0.2292  0.2257
12662TIP3    H137943   7.631   7.100   1.518 -1.2481  0.6867  1.2880
12662TIP3    H237944   7.665   7.021   1.642 -0.4496  0.1265  0.7253
12663TIP3   OH237945   3.356   1.312   3.599 -0.4548  0.1273 -0.5887
12663TIP3    H137946   3.414   1.388   3.605  1.2305 -1.1612  0.0293
12663TIP3    H237947   3.372   1.275   3.513  0.1080 -0.5781 -0.1888
12664TIP3   OH237948   4.359   4.037   2.997  0.0492 -0.1264 -0.4586
12664TIP3    H137949   4.384   4.073   2.912 -2.1290  2.7134 -0.0609
12664TIP3    H237950   4.303   3.962   2.976 -0.1175  0.2921 -1.5580
12665TIP3   OH237951   4.167   6.312   3.840  0.4629 -0.6883 -0.4649
12665TIP3    H137952   4.164   6.350   3.928  0.2340  0.2113 -0.8504
12665TIP3    H237953   4.115   6.371   3.786  2.1071 -0.1781 -1.5974
12666TIP3   OH237954   2.694   0.587   5.127 -0.2639 -0.3532  0.6472
12666TIP3    H137955   2.613   0.595   5.178 -0.9350  0.2430 -0.4520
12666TIP3    H237956   2.764   0.608   5.189 -0.9723 -0.5433  1.5344
12667TIP3   OH237957   8.276   0.120   2.918 -0.6060 -0.1028 -0.8101
12667TIP3    H137958   8.286   0.201   2.867  0.0348  0.2030 -0.2121
12667TIP3    H237959   8.192   0.129   2.962 -1.2691 -0.4578 -1.9467
12668TIP3   OH237960   1.350   0.200   1.961  0.3504  0.4124  0.6887
12668TIP3    H137961   1.415   0.198   2.030  1.7387 -0.8255 -0.5704
12668TIP3    H237962   1.397   0.232   1.884 -0.5152 -0.4350 -0.2332
12669TIP3   OH237963   6.127   3.869   0.712 -0.1429  0.2007 -0.0619
12669TIP3    H137964   6.125   3.964   0.700  0.7073  0.5658  2.2123
12669TIP3    H237965   6.052   3.852   0.770  1.0774 -0.1432  1.4699
12670TIP3   OH237966   7.582   1.080   6.241  0.2648 -0.4399 -0.2601
12670TIP3    H137967   7.671   1.072   6.205  0.0213 -0.2194 -0.9303
12670TIP3    H237968   7.589   1.150   6.306  0.4468  0.0174 -0.7646
12671TIP3   OH237969   7.278   5.871   3.704 -0.2312  0.0090  0.2173
12671TIP3    H137970   7.315   5.856   3.617  0.4079  0.8584  0.3284
12671TIP3    H237971   7.260   5.783   3.738 -0.2337 -0.3361 -0.6628
12672TIP3   OH237972   1.289   4.703   0.436  0.1012  0.0566  0.3852
12672TIP3    H137973   1.201   4.741   0.436  0.7271  1.6407 -0.9218
12672TIP3    H237974   1.323   4.722   0.348  1.1736 -1.9393  0.3148
12673TIP3   OH237975   0.544   1.163   4.639  0.0256  0.1701  0.5146
12673TIP3    H137976   0.599   1.113   4.578 -0.5818  0.2448 -0.1047
12673TIP3    H237977   0.514   1.098   4.702  0.4267  0.0342  0.5703
12674TIP3   OH237978   2.431   1.151   3.307  0.4631  0.2035 -0.0695
12674TIP3    H137979   2.392   1.200   3.234  1.0382 -1.7642 -1.8212
12674TIP3    H237980   2.357   1.106   3.348  0.3854 -0.5606 -1.0044
12675TIP3   OH237981   1.353   0.350   0.577  0.1995 -0.0554  0.0176
12675TIP3    H137982   1.301   0.406   0.520 -0.1161  0.4117  0.7521
12675TIP3    H237983   1.307   0.267   0.579 -0.3127  0.2294  0.3411
12676TIP3   OH237984   4.207   4.392   0.200 -0.5894 -0.1612  0.0813
12676TIP3    H137985   4.286   4.444   0.186 -0.5344 -0.1831  0.3046
12676TIP3    H237986   4.136   4.445   0.164 -0.5167  0.0070  0.1872
12677TIP3   OH237987   5.148   1.942   3.759 -0.4876 -0.0281  0.0709
12677TIP3    H137988   5.074   1.991   3.722  0.1678  0.6478 -0.3817
12677TIP3    H237989   5.171   1.879   3.691 -0.6187 -0.2090  0.1939
12678TIP3   OH237990   3.322   0.222   3.171  0.0311  0.3431 -0.0720
12678TIP3    H137991   3.258   0.265   3.228  0.5160  0.8459  0.0979
12678TIP3    H237992   3.293   0.131   3.167 -0.6136  0.5338  0.1165
12679TIP3   OH237993   5.691   0.863   2.837 -0.1881  0.1106  0.2910
12679TIP3    H137994   5.638   0.912   2.899 -0.6725 -1.0965  0.8715
12679TIP3    H237995   5.630   0.800   2.798  0.2312  0.4718 -1.0138
12680TIP3   OH237996   6.179   1.129   3.245 -0.5497  0.0441 -0.1266
12680TIP3    H137997   6.150   1.207   3.293  0.7831  1.3959 -1.3706
12680TIP3    H237998   6.107   1.110   3.184  0.1756  2.0766 -1.7451
12681TIP3   OH237999   2.672   1.417   0.717  0.1534  0.3202 -0.5625
12681TIP3    H138000   2.669   1.331   0.758  0.2578 -1.2231 -3.4946
12681TIP3    H238001   2.752   1.457   0.751 -0.0403 -0.5922  1.0671
12682TIP3   OH238002   0.207   5.574   3.877  0.8334 -0.3733 -0.2693
12682TIP3    H138003   0.270   5.600   3.810  2.2895 -0.0581  1.1477
12682TIP3    H238004   0.162   5.655   3.901  3.6459  0.6343  2.3891
12683TIP3   OH238005   5.511   4.173   4.418  0.1184 -0.1777  0.0431
12683TIP3    H138006   5.502   4.092   4.368 -2.1865 -0.0871  0.1664
12683TIP3    H238007   5.541   4.238   4.354 -0.2630 -0.6295 -0.6105
12684TIP3   OH238008   5.906  -0.008   2.503 -1.1500 -0.6300 -0.2481
12684TIP3    H138009   5.997   0.011   2.528 -1.1922 -0.0672 -0.5130
12684TIP3    H238010   5.853   0.034   2.571 -1.2132 -1.2804  0.1183
12685TIP3   OH238011   6.019   0.937   5.825  0.2065  0.1467  0.4438
12685TIP3    H138012   6.100   0.937   5.772  0.4018 -1.4497  0.6924
12685TIP3    H238013   6.018   1.023   5.867  1.2435  0.5814 -0.3690
12686TIP3   OH238014   7.047   5.749   0.416  0.0227 -0.5609  0.0952
12686TIP3    H138015   7.117   5.701   0.372 -1.1804 -1.6266 -0.7293
12686TIP3    H238016   6.966   5.711   0.382 -0.9976  1.4222  0.1221
12687TIP3   OH238017   2.317   4.313   4.901 -0.4011  0.0418 -0.1336
12687TIP3    H138018   2.318   4.396   4.949 -0.1226 -0.7557  1.3011
12687TIP3    H238019   2.225   4.285   4.903  0.0327 -1.6887  3.1356
12688TIP3   OH238020   4.788   3.024   4.613  0.0426  0.2251  0.7957
12688TIP3    H138021   4.871   3.070   4.605  0.7760 -1.0381  0.8565
12688TIP3    H238022   4.786   2.964   4.539 -1.4143  1.1044  0.0702
12689TIP3   OH238023   6.416   3.089   6.348  0.6141  0.0210  0.3436
12689TIP3    H138024   6.454   3.169   6.311  1.7148 -0.4624  0.3859
12689TIP3    H238025   6.384   3.116   6.434 -1.8081  1.1057 -0.8044
12690TIP3   OH238026   6.800   0.275   0.147  0.6771 -0.0930 -1.0504
12690TIP3    H138027   6.854   0.281   0.226  0.8919 -0.7405 -1.1446
12690TIP3    H238028   6.710   0.278   0.179  0.7611 -0.6858 -0.7456
12691TIP3   OH238029   5.617   0.590   2.729 -0.3530  0.6893 -0.0235
12691TIP3    H138030   5.612   0.502   2.692 -0.3665  0.5910  0.2077
12691TIP3    H238031   5.579   0.647   2.662  1.4142  0.7755 -0.9860
12692TIP3   OH238032   0.007   2.117   5.785  0.0522 -0.1779  0.6278
12692TIP3    H138033   0.072   2.184   5.803  0.5464 -0.3884 -0.2989
12692TIP3    H238034  -0.057   2.160   5.728  1.4351 -0.9902 -1.6638
12693TIP3   OH238035   2.735   6.102   4.164  0.1094  0.0737 -0.1508
12693TIP3    H138036   2.714   6.195   4.164  0.7481  0.2268  0.8904
12693TIP3    H238037   2.823   6.097   4.128 -0.3163 -0.2434 -1.1954
12694TIP3   OH238038   3.302   0.807   5.731 -0.0507 -0.0036 -0.1988
12694TIP3    H138039   3.256   0.734   5.771  0.5652 -1.5040 -2.0602
12694TIP3    H238040   3.267   0.812   5.642  0.6078  1.3690 -0.4140
12695TIP3   OH238041   2.393   1.239   0.997 -0.7204  0.3887 -0.3478
12695TIP3    H138042   2.371   1.186   0.920 -0.0554  0.1184 -0.3610
12695TIP3    H238043   2.418   1.175   1.064 -1.7664  0.5912  0.2715
12696TIP3   OH238044   1.201   3.584   3.601 -0.0232 -0.2818  0.3342
12696TIP3    H138045   1.247   3.537   3.531  0.0429  1.2169 -0.6705
12696TIP3    H238046   1.207   3.676   3.576 -0.1090  0.2854  2.2712
12697TIP3   OH238047   7.530   1.253   2.702  0.7797  0.4751  0.4594
12697TIP3    H138048   7.540   1.181   2.764 -0.6975  1.2490  1.6623
12697TIP3    H238049   7.436   1.271   2.701  0.5366 -0.3871 -3.0915
12698TIP3   OH238050   1.632   4.459   5.909 -0.0302  0.4764 -0.2953
12698TIP3    H138051   1.654   4.552   5.906 -0.3266  0.5554 -0.0460
12698TIP3    H238052   1.672   4.423   5.829  2.9333  0.1763  1.1657
12699TIP3   OH238053   3.117   0.445   3.637  0.0433 -0.0289 -0.1089
12699TIP3    H138054   3.030   0.411   3.656  0.1857  0.1489  0.9209
12699TIP3    H238055   3.158   0.456   3.723  0.0869  2.5469 -0.3959
12700TIP3   OH238056   2.667   3.320   1.647 -0.3710  0.1696 -0.0770
12700TIP3    H138057   2.589   3.353   1.692 -0.9796 -0.1510 -0.8643
12700TIP3    H238058   2.699   3.395   1.597 -0.2082  0.2839  0.1965
12701TIP3   OH238059   5.029   4.029   5.827  0.5101  0.0112  0.4838
12701TIP3    H138060   5.040   3.944   5.783  1.1417  0.6844 -0.7140
12701TIP3    H238061   5.106   4.037   5.883  0.8019  0.0962  0.0718
12702TIP3   OH238062   2.796   2.210   3.289  0.1748 -0.2127  0.5447
12702TIP3    H138063   2.757   2.188   3.204  1.4324  0.1714 -0.1632
12702TIP3    H238064   2.883   2.170   3.286  0.7785  1.0223  1.0555
12703TIP3   OH238065   5.983   3.945   0.184 -0.2380 -0.8929 -0.8957
12703TIP3    H138066   6.015   4.014   0.125  1.3549  0.4592  1.4148
12703TIP3    H238067   6.018   3.864   0.146  1.8042  0.0600 -1.2085
12704TIP3   OH238068   2.268   4.832   1.601  0.1680 -0.0226 -0.1650
12704TIP3    H138069   2.278   4.850   1.695  0.2609 -1.1495  0.0541
12704TIP3    H238070   2.349   4.864   1.562 -0.1998  1.1968  0.0016
12705TIP3   OH238071   2.821   5.602   5.776  0.1648 -0.2030 -0.1328
12705TIP3    H138072   2.824   5.625   5.683  0.2233  0.1708 -0.0434
12705TIP3    H238073   2.740   5.552   5.786  0.9359 -1.5813 -0.6665
12706TIP3   OH238074   4.762   2.003   4.673 -0.3085  0.1120 -0.6060
12706TIP3    H138075   4.738   2.085   4.716 -0.9016 -0.2084 -0.3216
12706TIP3    H238076   4.819   1.959   4.736 -1.7055 -0.6564  0.1504
12707TIP3   OH238077   3.771   7.340   2.669  0.0223 -0.6247 -0.2734
12707TIP3    H138078   3.678   7.357   2.682  0.5037  1.9259  0.4680
12707TIP3    H238079   3.788   7.367   2.579  0.6033  2.3915  0.6177
12708TIP3   OH238080   7.705   4.945   4.876  0.1202 -0.3109 -0.3575
12708TIP3    H138081   7.756   4.866   4.894  1.0572  0.1487 -0.8982
12708TIP3    H238082   7.696   4.946   4.781 -2.0505 -1.0633 -0.2079
12709TIP3   OH238083   6.449   6.148   0.380  0.1690  0.6242  0.3587
12709TIP3    H138084   6.421   6.223   0.433 -0.4355  1.0960 -0.6129
12709TIP3    H238085   6.375   6.088   0.383 -0.0256  0.8297 -0.2770
12710TIP3   OH238086   6.404   6.455   1.595  0.6736  0.2696  0.2256
12710TIP3    H138087   6.483   6.414   1.629  1.4948  1.5980 -0.0232
12710TIP3    H238088   6.418   6.461   1.501  0.8423  1.6164  0.3086
12711TIP3   OH238089   3.075   0.930   3.820  0.3790 -0.0033 -0.1877
12711TIP3    H138090   2.994   0.956   3.775 -0.8324 -2.1563  0.6365
12711TIP3    H238091   3.135   1.003   3.804 -2.3859  2.7699  1.0063
12712TIP3   OH238092   4.833   5.043   2.192 -0.2027  0.1341  0.6192
12712TIP3    H138093   4.900   5.047   2.124  0.8549 -1.7407  1.4570
12712TIP3    H238094   4.750   5.044   2.143  0.4975 -0.1968 -0.6356
12713TIP3   OH238095   7.736   6.760   2.439  0.4541  0.3053  0.5833
12713TIP3    H138096   7.705   6.848   2.420  0.2612  0.4176  1.3644
12713TIP3    H238097   7.685   6.733   2.515 -0.1407 -0.8326 -0.1899
12714TIP3   OH238098   3.982   7.293   6.103  0.3846 -0.2952  0.0274
12714TIP3    H138099   4.030   7.232   6.047  2.2551  0.7655  0.4094
12714TIP3    H238100   4.001   7.264   6.192 -0.3609 -0.3325  0.1824
12715TIP3   OH238101   0.377   6.271   0.196 -0.4503  0.4788 -0.1057
12715TIP3    H138102   0.403   6.361   0.214  2.2970 -0.0419 -1.0643
12715TIP3    H238103   0.324   6.277   0.117 -0.0659  1.2426 -0.3189
12716TIP3   OH238104   8.225   6.323   2.452  0.0547  0.2038 -0.0169
12716TIP3    H138105   8.269   6.238   2.443 -1.0401 -0.2215 -1.9124
12716TIP3    H238106   8.295   6.387   2.435  0.4625 -0.3869 -0.6231
12717TIP3   OH238107   4.459   3.418   1.075 -0.2028 -0.4504  0.1481
12717TIP3    H138108   4.429   3.447   0.989 -1.5478 -2.9084 -0.2925
12717TIP3    H238109   4.553   3.439   1.076 -0.6277  1.8619 -0.8743
12718TIP3   OH238110   0.545   2.660   3.635  0.0637  0.0568 -0.7306
12718TIP3    H138111   0.604   2.678   3.708  1.1397  1.9246 -1.9793
12718TIP3    H238112   0.531   2.745   3.594 -1.6549 -0.7274 -1.8678
12719TIP3   OH238113   0.619   4.322   4.827 -0.2398  0.1183  1.4196
12719TIP3    H138114   0.598   4.228   4.832 -0.1524  0.0975  1.3945
12719TIP3    H238115   0.698   4.332   4.880  0.6483 -0.0936  0.1935
12720TIP3   OH238116   4.904   3.188   5.857  0.0045  0.4294 -0.3750
12720TIP3    H138117   4.922   3.136   5.936  0.3186  2.2522  0.8173
12720TIP3    H238118   4.981   3.242   5.846 -0.8611  1.6191 -0.7504
12721TIP3   OH238119   1.200   6.578   6.360  0.5327  0.1583  0.0601
12721TIP3    H138120   1.262   6.622   6.302  0.2664  1.6640  0.8396
12721TIP3    H238121   1.182   6.643   6.429 -0.4945 -0.9164  0.8539
12722TIP3   OH238122   5.092   5.714   4.964  0.1485  0.3465 -0.5576
12722TIP3    H138123   5.042   5.653   5.018  1.8764  0.8307  1.7686
12722TIP3    H238124   5.183   5.697   4.986  0.8913  1.2662 -2.6585
12723TIP3   OH238125   2.717   2.860   6.075 -0.6440  0.5855 -0.0323
12723TIP3    H138126   2.798   2.890   6.117 -1.0195 -1.3345  2.2675
12723TIP3    H238127   2.698   2.927   6.010  1.9270  1.9184  0.4369
12724TIP3   OH238128   6.165   2.365   1.680  0.0551  0.2915 -0.0728
12724TIP3    H138129   6.230   2.415   1.730  0.8767 -0.2582 -0.5835
12724TIP3    H238130   6.170   2.402   1.592  1.1217 -1.0912 -0.6186
12725TIP3   OH238131   4.958   6.093   5.238  0.4818 -0.6951  0.0324
12725TIP3    H138132   4.948   6.104   5.144  1.3989  1.7283  0.1449
12725TIP3    H238133   5.037   6.039   5.248  0.6428 -0.5729 -0.5805
12726TIP3   OH238134   0.112   7.634   0.301  0.2901  0.1540  0.1438
12726TIP3    H138135   0.181   7.684   0.259  1.1289 -0.3221  0.9181
12726TIP3    H238136   0.098   7.559   0.243 -0.7344  1.0729 -0.8436
12727TIP3   OH238137   1.156   5.245   6.438 -0.1389 -0.6613 -0.5056
12727TIP3    H138138   1.251   5.242   6.424 -0.0648 -0.3862 -0.0908
12727TIP3    H238139   1.122   5.171   6.388  0.4753 -1.8812  0.7949
12728TIP3   OH238140   3.835   1.582   1.829 -0.2902 -0.1762 -0.1088
12728TIP3    H138141   3.835   1.671   1.793 -2.2117 -0.4361 -0.8916
12728TIP3    H238142   3.746   1.550   1.811  0.7014 -2.6764 -0.8504
12729TIP3   OH238143   0.779   0.053   1.470  0.7553  0.7347 -0.4341
12729TIP3    H138144   0.730   0.130   1.441  0.1523 -0.4396 -2.8069
12729TIP3    H238145   0.811   0.014   1.389  1.6527 -1.1280  0.7622
12730TIP3   OH238146   2.973   4.456   5.660  0.4632 -0.2253 -0.0762
12730TIP3    H138147   2.997   4.363   5.663  1.9680  0.1038 -0.9625
12730TIP3    H238148   2.914   4.463   5.585 -0.4436 -0.6148  0.5849
12731TIP3   OH238149   3.662   7.330   6.208 -0.4458 -0.0881 -0.0447
12731TIP3    H138150   3.733   7.297   6.153 -1.0597 -1.8459  0.1609
12731TIP3    H238151   3.597   7.259   6.209 -2.8040  1.9077 -1.1939
12732TIP3   OH238152   1.799   7.646   1.365 -0.3164  0.6548 -0.0548
12732TIP3    H138153   1.832   7.682   1.447  1.7766 -0.9830 -0.0813
12732TIP3    H238154   1.785   7.723   1.309 -0.2778  1.6928  1.3104
12733TIP3   OH238155   2.650   0.727   1.902 -0.0699 -0.1175 -0.2055
12733TIP3    H138156   2.578   0.680   1.860 -0.2167  0.4335 -0.5958
12733TIP3    H238157   2.659   0.807   1.849  0.4778  0.0627  0.1593
12734TIP3   OH238158   6.042   4.519   3.884 -0.1436  0.4766 -0.2790
12734TIP3    H138159   6.112   4.569   3.925  0.2129 -0.3244  0.1098
12734TIP3    H238160   6.082   4.481   3.805 -0.5617  1.2392 -0.8627
12735TIP3   OH238161   6.692   6.195   3.565  0.8612  0.2086  0.1905
12735TIP3    H138162   6.655   6.282   3.577  0.2993  0.0207 -0.1330
12735TIP3    H238163   6.635   6.154   3.499  0.9170 -0.5182  0.5884
12736TIP3   OH238164   4.830   4.572   1.235  0.7490 -0.0103  0.7554
12736TIP3    H138165   4.843   4.655   1.282 -0.6702  0.4622  0.3725
12736TIP3    H238166   4.749   4.537   1.271  0.7261 -0.6584  0.0974
12737TIP3   OH238167   5.621   2.855   0.447  0.4091 -0.4106  0.1550
12737TIP3    H138168   5.639   2.762   0.435 -0.4172 -0.4721 -0.7170
12737TIP3    H238169   5.706   2.894   0.467  0.8379 -1.2828  0.0531
12738TIP3   OH238170   2.052   7.658   2.616  0.0880  0.3274 -0.4333
12738TIP3    H138171   1.962   7.626   2.610  0.3965 -1.7689  3.2174
12738TIP3    H238172   2.098   7.611   2.546 -0.8885 -2.0841  0.4284
12739TIP3   OH238173   7.331   6.644   1.092 -0.0804 -0.3379 -0.2805
12739TIP3    H138174   7.336   6.690   1.176 -1.1095 -0.1722 -0.2982
12739TIP3    H238175   7.266   6.575   1.106 -1.7198  0.8801 -1.4480
12740TIP3   OH238176   4.087   6.362   3.239  0.0506 -0.0551 -0.1045
12740TIP3    H138177   4.155   6.338   3.302 -0.6161 -0.6003  0.4150
12740TIP3    H238178   4.009   6.316   3.269 -0.3965  0.0617 -1.0566
12741TIP3   OH238179   0.758   4.952   3.246  0.0961 -0.4056  0.0244
12741TIP3    H138180   0.808   5.032   3.233  1.2074 -0.8171  1.5608
12741TIP3    H238181   0.706   4.969   3.325  1.6746 -1.7831  1.4245
12742TIP3   OH238182   6.433   3.656   4.123 -0.0059  0.3645 -0.2582
12742TIP3    H138183   6.520   3.660   4.164  0.2516  1.2463 -0.8637
12742TIP3    H238184   6.440   3.713   4.046 -1.5117  1.5919  0.4400
12743TIP3   OH238185   3.348   1.393   6.161  0.0307  0.3675  0.2460
12743TIP3    H138186   3.289   1.468   6.162 -1.3837 -0.6777  2.5003
12743TIP3    H238187   3.421   1.420   6.217  1.1358  1.1678 -1.4908
12744TIP3   OH238188   7.784   4.445   1.261  0.2544  0.5826 -0.4850
12744TIP3    H138189   7.859   4.391   1.238 -1.0123 -1.6816  0.3818
12744TIP3    H238190   7.781   4.443   1.356 -0.6074  1.0527 -0.4925
12745TIP3   OH238191   2.724   0.564   5.851  0.4108 -0.1618  0.5084
12745TIP3    H138192   2.639   0.538   5.887  0.8127 -1.1200  0.8033
12745TIP3    H238193   2.704   0.636   5.792 -0.2927  1.5222  2.6767
12746TIP3   OH238194   6.516   5.278   5.179  0.6195  0.2361  0.5403
12746TIP3    H138195   6.420   5.288   5.178  0.5024 -0.7737  0.3729
12746TIP3    H238196   6.540   5.284   5.271  0.2516 -0.6810  0.7013
12747TIP3   OH238197   3.375   0.055   3.523  0.0462 -0.3217  0.6147
12747TIP3    H138198   3.280   0.058   3.512  0.1215 -1.1734 -0.4067
12747TIP3    H238199   3.404   0.145   3.507 -0.3452 -0.5521 -1.8533
12748TIP3   OH238200   1.796   1.314   6.722 -0.0593  0.1766 -0.2522
12748TIP3    H138201   1.760   1.317   6.810  0.3578  0.3328 -0.0844
12748TIP3    H238202   1.725   1.342   6.665 -0.6127 -0.7913 -0.0535
12749TIP3   OH238203   2.458   6.079   4.535 -0.2421  0.0729  0.3570
12749TIP3    H138204   2.364   6.083   4.550 -0.3905 -0.2883 -0.3887
12749TIP3    H238205   2.472   5.993   4.494  0.1635  0.8097 -1.1137
12750TIP3   OH238206   5.014   5.596   3.857 -0.4749 -0.4716  0.2900
12750TIP3    H138207   5.023   5.652   3.780  2.2554 -1.5242 -0.2747
12750TIP3    H238208   4.921   5.574   3.860 -1.1226  1.7563 -1.0898
12751TIP3   OH238209   7.687   5.173   2.470  0.6983 -0.4677  0.5490
12751TIP3    H138210   7.685   5.083   2.501  0.1180 -0.7054 -0.1523
12751TIP3    H238211   7.750   5.172   2.398 -1.4129 -0.9809 -1.3846
12752TIP3   OH238212   8.207   1.954   1.143 -0.8511  0.0652  0.2240
12752TIP3    H138213   8.178   2.036   1.182  0.0374  0.3331  0.3420
12752TIP3    H238214   8.132   1.923   1.092 -1.0189  1.1974 -0.2324
12753TIP3   OH238215   1.991   5.559   3.215  0.7878  0.0142  0.2344
12753TIP3    H138216   1.915   5.603   3.176  1.1619  0.8545  0.4244
12753TIP3    H238217   2.035   5.518   3.141  0.6656  0.3231 -0.0166
12754TIP3   OH238218   3.685   6.411   6.621 -0.2880 -0.0321  0.0855
12754TIP3    H138219   3.646   6.389   6.536 -0.2422  0.9716 -0.2085
12754TIP3    H238220   3.618   6.385   6.685 -2.4344  3.4312 -0.4896
12755TIP3   OH238221   0.276   4.244   0.272 -0.0139  0.1838 -0.3961
12755TIP3    H138222   0.317   4.319   0.316  1.4340 -1.0054  0.3663
12755TIP3    H238223   0.339   4.173   0.280 -0.9495 -0.8937 -1.9241
12756TIP3   OH238224   6.210   3.232   4.279  0.2977 -0.1886 -0.1719
12756TIP3    H138225   6.291   3.281   4.261 -1.4360  2.6053 -0.9330
12756TIP3    H238226   6.166   3.284   4.346 -0.2693 -2.4472  1.2852
12757TIP3   OH238227   2.951   1.061   0.367 -0.0894 -0.1990 -0.4886
12757TIP3    H138228   2.989   1.122   0.303 -0.3545 -0.8335 -1.2755
12757TIP3    H238229   2.871   1.029   0.325 -0.4874 -0.3220  0.3459
12758TIP3   OH238230   7.470   7.520   3.266 -0.1888 -0.2472 -0.1100
12758TIP3    H138231   7.497   7.460   3.197 -0.5115 -1.4721  0.8108
12758TIP3    H238232   7.405   7.577   3.224 -1.5314 -1.9535 -0.4488
12759TIP3   OH238233   7.549   4.438   6.560 -0.0024  0.1689 -0.4518
12759TIP3    H138234   7.596   4.421   6.478 -0.1238 -3.4014  0.0563
12759TIP3    H238235   7.609   4.489   6.613  1.2416  0.0602 -1.7096
12760TIP3   OH238236   1.098   4.078   2.000  0.2102 -0.3887 -1.1726
12760TIP3    H138237   1.058   4.006   1.952  0.3068 -0.8775 -0.5284
12760TIP3    H238238   1.177   4.041   2.038  1.0481  0.4404 -2.0370
12761TIP3   OH238239   2.670   2.843   5.269 -0.2476 -0.2984 -0.2122
12761TIP3    H138240   2.683   2.750   5.287  2.5877  0.1264  0.4706
12761TIP3    H238241   2.661   2.848   5.174  1.1611 -1.1747 -0.4310
12762TIP3   OH238242   3.451   3.112   2.238 -0.1539  0.0716  0.0055
12762TIP3    H138243   3.486   3.047   2.299  0.0814 -0.4430 -0.6663
12762TIP3    H238244   3.465   3.196   2.282 -0.4645 -0.3217  0.8839
12763TIP3   OH238245   0.880   2.673   3.455  0.4599 -0.6199  0.0995
12763TIP3    H138246   0.922   2.733   3.517  0.7708 -0.2092 -0.5003
12763TIP3    H238247   0.952   2.636   3.404  0.1129  0.1078 -0.9529
12764TIP3   OH238248   4.075   1.957   1.358 -0.1577  0.3251  0.7758
12764TIP3    H138249   4.087   1.876   1.406  0.3871 -0.1353 -0.0992
12764TIP3    H238250   4.009   2.005   1.407 -1.9768 -1.5017  0.2225
12765TIP3   OH238251   7.933   0.019   2.935  0.1268  0.1027  0.5255
12765TIP3    H138252   7.942  -0.041   3.009  3.2352  0.2553  0.4164
12765TIP3    H238253   7.934   0.106   2.975 -1.6417  0.1724  0.4860
12766TIP3   OH238254   3.105   7.575   6.782 -0.1126  0.0317  0.4010
12766TIP3    H138255   3.105   7.547   6.691  1.6423 -3.3149  1.2484
12766TIP3    H238256   3.184   7.628   6.791  0.0705 -0.1867  0.0932
12767TIP3   OH238257   6.279   4.259   3.412 -0.4720  0.9284  0.3785
12767TIP3    H138258   6.337   4.314   3.465  0.5288  0.6046 -0.3339
12767TIP3    H238259   6.332   4.237   3.335 -1.2185 -0.1725  0.1593
12768TIP3   OH238260   8.075   6.942   5.994  0.7213  0.1865 -0.4735
12768TIP3    H138261   8.040   6.888   6.065  1.5643 -1.4979 -1.2936
12768TIP3    H238262   8.154   6.981   6.031  0.3180  0.5959 -0.0097
12769TIP3   OH238263   7.353   6.218   2.504 -0.3152  0.3737  0.0847
12769TIP3    H138264   7.379   6.139   2.457  0.8135  0.9687 -0.3387
12769TIP3    H238265   7.351   6.286   2.437 -1.1002  0.7436  0.4763
12770TIP3   OH238266   2.795   7.028   4.205 -0.8737 -0.2853  0.6826
12770TIP3    H138267   2.746   7.069   4.134 -1.0423 -1.2103  0.2420
12770TIP3    H238268   2.807   6.937   4.177 -0.6952 -0.6000  1.7115
12771TIP3   OH238269   7.263   5.989   2.091  0.0629 -0.4585  0.5824
12771TIP3    H138270   7.202   5.917   2.109  0.8219 -1.3550 -0.3087
12771TIP3    H238271   7.231   6.029   2.010  1.5399 -2.0081 -0.8508
12772TIP3   OH238272   4.232   6.629   5.018  0.4985  0.0659 -0.7772
12772TIP3    H138273   4.224   6.686   5.094 -0.6082 -0.4431 -0.4901
12772TIP3    H238274   4.236   6.540   5.054 -0.4084 -0.2070 -1.3106
12773TIP3   OH238275   7.734   0.428   6.427 -0.2038 -0.4368 -0.0045
12773TIP3    H138276   7.822   0.395   6.406 -0.4633 -1.3032  0.2397
12773TIP3    H238277   7.683   0.410   6.348  0.1114  1.1399 -0.5958
12774TIP3   OH238278   0.790   6.723   6.184  0.2387 -0.8035  0.7556
12774TIP3    H138279   0.817   6.653   6.124 -1.7223 -1.0533  0.0781
12774TIP3    H238280   0.738   6.782   6.130 -0.3328 -0.2226  1.9025
12775TIP3   OH238281   4.045   0.779   2.265  0.3488  0.4873  0.6271
12775TIP3    H138282   4.086   0.736   2.340  1.1503  1.1352  0.5806
12775TIP3    H238283   3.974   0.831   2.303 -0.6233 -0.8392  0.6813
12776TIP3   OH238284   2.073   4.087   0.946  0.2751  0.5261  0.5335
12776TIP3    H138285   1.995   4.115   0.898  0.4473 -1.1064 -0.7785
12776TIP3    H238286   2.039   4.044   1.024 -0.0424  2.1072  1.2967
12777TIP3   OH238287   2.158   5.866   5.692  0.0888  0.5453 -0.2128
12777TIP3    H138288   2.063   5.857   5.679 -0.1298  0.0815  1.4582
12777TIP3    H238289   2.182   5.789   5.743  1.1509  1.2610  0.4005
12778TIP3   OH238290   2.494   5.181   6.137 -0.2867  0.0066 -0.3540
12778TIP3    H138291   2.540   5.193   6.220  0.2868  0.8773 -0.7949
12778TIP3    H238292   2.402   5.167   6.163 -0.2632  1.1190  0.3947
12779TIP3   OH238293   3.946   1.006   3.900 -0.5301 -0.1333  0.4302
12779TIP3    H138294   4.039   1.019   3.879 -0.6872 -0.7349 -0.7333
12779TIP3    H238295   3.939   0.911   3.915 -0.9931 -0.1107  0.3496
12780TIP3   OH238296   1.667   7.191   1.217 -0.2030  0.1116  0.4116
12780TIP3    H138297   1.574   7.178   1.200 -0.5130 -1.3799  2.6941
12780TIP3    H238298   1.673   7.279   1.254 -0.4859  0.6637 -0.7892
12781TIP3   OH238299   1.422   7.457   0.138 -0.1656 -0.1100  0.1436
12781TIP3    H138300   1.430   7.364   0.158 -0.6739 -0.3602 -0.7380
12781TIP3    H238301   1.424   7.501   0.223  1.1187 -0.8306  0.5048
12782TIP3   OH238302   6.260   4.132   4.377  0.1232  0.1653  0.3067
12782TIP3    H138303   6.186   4.188   4.354  1.9125  1.8535 -1.7718
12782TIP3    H238304   6.228   4.043   4.361 -0.9160  0.9179 -2.5884
12783TIP3   OH238305   2.061   1.962   4.271  0.6272 -0.1500 -0.2165
12783TIP3    H138306   1.967   1.959   4.251  0.3158 -0.7673  1.2047
12783TIP3    H238307   2.078   1.881   4.319  1.6796  0.4020  0.3820
12784TIP3   OH238308   5.118   3.675   4.559 -0.0734 -0.7899 -0.2241
12784TIP3    H138309   5.193   3.734   4.565 -0.4887 -0.2954  0.2728
12784TIP3    H238310   5.094   3.657   4.650 -1.2544 -0.0337 -0.3656
12785TIP3   OH238311   0.079   7.654   2.126 -0.2191 -0.0110  0.0275
12785TIP3    H138312   0.121   7.597   2.190 -1.2662  0.1506  0.8952
12785TIP3    H238313   0.044   7.594   2.059  1.0033 -0.1696 -0.4901
12786TIP3   OH238314   3.058   7.622   5.453  0.7025  0.2984 -0.1831
12786TIP3    H138315   3.053   7.715   5.477 -0.2130  0.0329  0.7084
12786TIP3    H238316   3.085   7.578   5.533 -1.0125 -0.4357  0.0479
12787TIP3   OH238317   2.860   5.345   4.645 -0.4924  0.3229 -0.2776
12787TIP3    H138318   2.926   5.337   4.577 -0.7397  0.1140 -0.4924
12787TIP3    H238319   2.800   5.272   4.629  0.3419 -0.7541  1.1452
12788TIP3   OH238320   2.985   1.195   3.923  0.2253  0.0950  0.4546
12788TIP3    H138321   3.005   1.218   4.014 -0.1802 -0.7802  0.7788
12788TIP3    H238322   3.068   1.206   3.877  0.8616 -1.0583  1.2706
12789TIP3   OH238323   3.931   6.164   3.413 -0.0432 -0.1700 -0.3322
12789TIP3    H138324   3.981   6.089   3.444  0.5043  0.3337  0.0385
12789TIP3    H238325   3.902   6.209   3.492 -0.1344  0.1581 -0.5469
12790TIP3   OH238326   6.477   4.217   6.553  0.0110  0.1195 -0.1410
12790TIP3    H138327   6.557   4.169   6.531 -0.8505 -0.5138 -2.1280
12790TIP3    H238328   6.406   4.158   6.529 -1.0632  1.7532 -1.2194
12791TIP3   OH238329   4.111   3.655   1.075  0.1430 -0.4320  0.0144
12791TIP3    H138330   4.149   3.718   1.136  0.0508  0.5533 -0.9236
12791TIP3    H238331   4.146   3.570   1.104  1.4944  0.2202  0.3685
12792TIP3   OH238332   6.130   0.878   6.622  0.4183 -0.5675 -0.1491
12792TIP3    H138333   6.083   0.827   6.556  3.1879 -1.7854 -1.3658
12792TIP3    H238334   6.083   0.962   6.625 -2.3879 -2.0131 -0.4011
12793TIP3   OH238335   0.145   3.817   1.405 -0.7820  0.0216  0.2466
12793TIP3    H138336   0.236   3.791   1.416  0.0983  2.6859 -0.0646
12793TIP3    H238337   0.140   3.848   1.314 -1.0188  3.1758  1.2335
12794TIP3   OH238338   5.287   3.610   0.888 -0.0219 -0.1894  0.1418
12794TIP3    H138339   5.355   3.542   0.894  0.3651  0.3106  2.4736
12794TIP3    H238340   5.207   3.567   0.916 -0.1887 -0.1776 -0.3109
12795TIP3   OH238341   1.101   0.340   6.476  0.0928 -0.1166  0.3099
12795TIP3    H138342   1.012   0.312   6.453  0.5788  0.2335 -2.2271
12795TIP3    H238343   1.089   0.424   6.520 -0.8214  0.0637 -0.2640
12796TIP3   OH238344   6.121   3.508   1.499  0.8302 -0.8117  0.3214
12796TIP3    H138345   6.101   3.553   1.581  0.7182  0.3658 -0.3351
12796TIP3    H238346   6.112   3.575   1.431 -3.2740 -2.5946 -1.2360
12797TIP3   OH238347   6.100   1.940   5.503  0.1239 -0.4800  0.9541
12797TIP3    H138348   6.051   1.858   5.498  0.2115 -0.4791 -0.0598
12797TIP3    H238349   6.191   1.913   5.513  0.0718 -0.4979  1.3782
12798TIP3   OH238350   5.419   2.804   1.788 -0.3476  0.1391 -0.0689
12798TIP3    H138351   5.409   2.875   1.851 -1.1930  0.0417 -0.0801
12798TIP3    H238352   5.365   2.830   1.713  0.0850 -0.0753 -0.4664
12799TIP3   OH238353   2.952   0.178   5.883  0.4619  0.3001 -0.9847
12799TIP3    H138354   3.040   0.143   5.900  0.2111 -0.1455 -0.5674
12799TIP3    H238355   2.903   0.156   5.962 -0.0620  0.4328 -1.2724
12800TIP3   OH238356   6.613   5.089   0.337  0.0915  0.4468 -0.0589
12800TIP3    H138357   6.637   5.070   0.246 -0.4291 -0.1560 -0.0787
12800TIP3    H238358   6.524   5.056   0.345  0.2402  0.2365  0.7525
12801TIP3   OH238359   4.067   0.732   1.534 -0.0900  0.5567  0.2362
12801TIP3    H138360   4.131   0.786   1.488 -0.6442  0.8997 -0.1534
12801TIP3    H238361   4.082   0.751   1.627  0.6863  0.2611  0.1751
12802TIP3   OH238362   2.496   7.477   1.977  0.3468 -0.0144  0.0649
12802TIP3    H138363   2.555   7.402   1.965  2.7195  1.2440  2.8072
12802TIP3    H238364   2.509   7.531   1.899  3.8720  0.7896  1.0484
12803TIP3   OH238365   6.557   5.867   4.238  0.1506 -0.0727 -0.2772
12803TIP3    H138366   6.592   5.891   4.153 -0.1876  1.6991  0.0440
12803TIP3    H238367   6.505   5.943   4.265 -0.8410 -1.1310  0.9143
12804TIP3   OH238368   7.156   1.567   1.299 -0.0018  0.1393  0.6667
12804TIP3    H138369   7.125   1.484   1.334 -0.6513 -0.0556 -0.3352
12804TIP3    H238370   7.107   1.579   1.218  1.4529  0.5780 -0.1824
12805TIP3   OH238371   2.101   6.096   6.438  0.3113 -0.1407 -0.0196
12805TIP3    H138372   2.057   6.048   6.508  1.2326  0.4229  0.9750
12805TIP3    H238373   2.171   6.038   6.409 -0.4379 -0.6224 -0.9103
12806TIP3   OH238374   0.333   7.699   0.474 -0.6486  0.0325  0.0008
12806TIP3    H138375   0.357   7.715   0.383  0.7556 -1.0266  0.1621
12806TIP3    H238376   0.415   7.675   0.517 -0.9640  2.1265  1.9460
12807TIP3   OH238377   4.642   0.282   2.294 -0.7323  0.2295 -0.0426
12807TIP3    H138378   4.619   0.197   2.332 -0.7513 -0.0717 -0.7153
12807TIP3    H238379   4.661   0.337   2.370 -1.2694 -0.2114  0.4275
12808TIP3   OH238380   6.195   5.601   3.348 -0.2541 -0.2967 -0.5441
12808TIP3    H138381   6.123   5.574   3.406 -1.0713  1.0200 -0.9070
12808TIP3    H238382   6.151   5.641   3.273  0.8578  1.9263 -0.0713
12809TIP3   OH238383   6.373   4.584   0.268  0.7099  0.6664  0.2456
12809TIP3    H138384   6.416   4.643   0.330 -0.6804  2.6383 -0.5774
12809TIP3    H238385   6.288   4.564   0.308  0.2642  1.0412 -0.5042
12810TIP3   OH238386   7.539   4.424   5.924 -0.1662 -0.8017 -0.3165
12810TIP3    H138387   7.484   4.346   5.928 -0.4174 -0.6682 -1.0812
12810TIP3    H238388   7.508   4.471   5.847 -0.0846  0.1087  0.1937
12811TIP3   OH238389   6.377   7.774   4.976  0.0745 -0.8920 -0.1085
12811TIP3    H138390   6.283   7.759   4.989  0.2895 -2.4273 -0.2580
12811TIP3    H238391   6.399   7.724   4.898  1.1449 -0.9905  0.2496
12812TIP3   OH238392   3.672   1.309   3.492  0.5372  0.3949  0.5167
12812TIP3    H138393   3.677   1.303   3.587 -1.6248 -0.8954  0.6017
12812TIP3    H238394   3.647   1.400   3.475  0.7663  0.5839  1.1740
12813TIP3   OH238395   6.409   3.174   5.859 -0.1175 -0.2931  0.2647
12813TIP3    H138396   6.450   3.098   5.818 -0.6449  0.0221 -0.8905
12813TIP3    H238397   6.460   3.189   5.938  0.6262 -1.2241 -0.0193
12814TIP3   OH238398   0.092   4.404   3.973  0.1389  0.0546  0.0917
12814TIP3    H138399   0.117   4.496   3.980 -0.2207  0.1089  0.7198
12814TIP3    H238400   0.140   4.361   4.044  2.9570 -0.8560 -2.1188
12815TIP3   OH238401   3.491   7.733   1.594 -0.2329  0.2665  0.0771
12815TIP3    H138402   3.511   7.732   1.500 -1.3042  0.2515 -0.1638
12815TIP3    H238403   3.399   7.761   1.599 -0.6551 -1.1679  1.0272
12816TIP3   OH238404   5.048   1.367   6.036 -0.0831  0.0668 -0.3384
12816TIP3    H138405   5.144   1.368   6.039 -0.0379 -0.0482 -1.3935
12816TIP3    H238406   5.027   1.383   5.944 -1.0306 -1.7680 -0.4818
12817TIP3   OH238407   8.000   5.631   4.012 -0.1436 -0.6569 -0.5917
12817TIP3    H138408   7.983   5.623   3.918  1.7213 -0.0495 -1.0185
12817TIP3    H238409   8.063   5.562   4.031  0.1167 -0.2515  0.0321
12818TIP3   OH238410   6.884   1.739   0.118  0.4626 -0.5501 -0.3872
12818TIP3    H138411   6.877   1.820   0.170  1.0693 -1.5556  1.3223
12818TIP3    H238412   6.899   1.770   0.029 -3.6313  1.3498 -0.6539
12819TIP3   OH238413   5.527   6.130   2.561  0.2144  0.1736  0.0761
12819TIP3    H138414   5.454   6.133   2.622  0.7831  0.2328  0.7555
12819TIP3    H238415   5.542   6.037   2.546  0.0893  0.1592  0.0404
12820TIP3   OH238416   5.546   0.963   2.169  0.0276  0.0234  0.1850
12820TIP3    H138417   5.456   0.988   2.189 -0.2918 -1.6155  0.9718
12820TIP3    H238418   5.598   1.002   2.238 -0.3051 -0.4128  0.6916
12821TIP3   OH238419   7.313   7.662   5.407 -0.1226  0.3306  0.9666
12821TIP3    H138420   7.367   7.659   5.328  0.1630  2.1698  1.0577
12821TIP3    H238421   7.254   7.587   5.399  1.5882 -1.0052  0.2538
12822TIP3   OH238422   4.735   1.211   6.710 -0.2200  0.3464 -0.0673
12822TIP3    H138423   4.719   1.196   6.617 -1.6482  1.6591 -0.0727
12822TIP3    H238424   4.649   1.233   6.746  0.4868  0.9149  1.3524
12823TIP3   OH238425   2.459   3.418   3.463 -0.2630  0.0972 -0.3227
12823TIP3    H138426   2.472   3.333   3.506 -2.6069 -0.5246 -0.6763
12823TIP3    H238427   2.543   3.439   3.424  0.8661 -1.1924  1.2783
12824TIP3   OH238428   5.072   5.203   5.169 -0.0818  0.3692  0.4289
12824TIP3    H138429   5.148   5.153   5.140 -0.7317 -1.3260  1.5052
12824TIP3    H238430   5.016   5.208   5.091  0.0041 -0.6036  0.2926
12825TIP3   OH238431   2.358   6.363   4.058 -0.8355 -0.4808 -0.0601
12825TIP3    H138432   2.383   6.435   4.000  0.8025  0.4348  1.6887
12825TIP3    H238433   2.403   6.287   4.023  0.7276  0.2119  0.3916
12826TIP3   OH238434   0.857   0.468   0.938  0.0429  0.3223 -0.2176
12826TIP3    H138435   0.951   0.453   0.923  0.0417 -0.0045  0.0926
12826TIP3    H238436   0.819   0.380   0.939 -0.3630  0.4796 -0.9381
12827TIP3   OH238437   6.987   0.869   5.725  0.1607  0.6434  0.5316
12827TIP3    H138438   7.074   0.861   5.764  0.4018 -0.5853 -0.1808
12827TIP3    H238439   7.002   0.858   5.631 -0.7388  0.6087  0.3835
12828TIP3   OH238440   7.903   7.277   1.868 -0.0055 -0.1561 -0.2298
12828TIP3    H138441   7.984   7.245   1.906 -0.7694 -0.4347  1.2503
12828TIP3    H238442   7.916   7.372   1.861  0.2743 -0.1348  0.4662
12829TIP3   OH238443   3.300   3.840   4.299  0.4613  0.5502 -0.6203
12829TIP3    H138444   3.215   3.880   4.318  0.5187 -0.3787  2.0486
12829TIP3    H238445   3.364   3.901   4.336  0.6483 -0.8892  1.6014
12830TIP3   OH238446   2.084   3.885   2.013 -0.6855  0.3876 -0.2613
12830TIP3    H138447   2.005   3.836   1.990 -0.2696 -0.7793  0.6800
12830TIP3    H238448   2.136   3.885   1.933 -2.0239  2.0235 -1.1927
12831TIP3   OH238449   1.597   1.299   3.560 -0.3627  0.0173  0.3493
12831TIP3    H138450   1.650   1.290   3.481 -1.7196  0.0999 -0.6054
12831TIP3    H238451   1.512   1.261   3.537 -2.0882  3.3877  0.4109
12832TIP3   OH238452   5.794   6.154   3.730  0.6872  0.1650  0.2137
12832TIP3    H138453   5.742   6.192   3.801  0.8806 -1.1773  1.1095
12832TIP3    H238454   5.807   6.226   3.669 -1.7044  0.7104  0.2381
12833TIP3   OH238455   5.099   3.382   3.275 -0.6545  0.0576 -0.0175
12833TIP3    H138456   5.105   3.453   3.338 -0.7826 -0.9258  1.1569
12833TIP3    H238457   5.011   3.390   3.238 -1.2901 -0.4117  1.2980
12834TIP3   OH238458   2.795   3.034   0.851 -0.2127  0.1185  0.6667
12834TIP3    H138459   2.797   3.128   0.833 -0.0999 -0.2689 -1.6151
12834TIP3    H238460   2.833   2.994   0.773 -1.1031 -1.8788  1.1998
12835TIP3   OH238461   7.575   0.977   2.934  0.2870  0.3445 -0.2374
12835TIP3    H138462   7.627   0.899   2.958  1.4230  1.0557 -0.3140
12835TIP3    H238463   7.489   0.942   2.912  0.7075 -0.8751 -0.0439
12836TIP3   OH238464   4.641   3.773   5.958 -0.5985  0.5945  0.6032
12836TIP3    H138465   4.684   3.836   6.016 -0.1392 -1.1333  2.2326
12836TIP3    H238466   4.598   3.712   6.017  0.3480 -1.5678 -0.8397
12837TIP3   OH238467   5.013   6.882   6.370 -0.0244 -0.4655 -0.3345
12837TIP3    H138468   5.091   6.833   6.396  0.5544 -0.2114 -1.5604
12837TIP3    H238469   4.941   6.820   6.385  0.7558 -2.0393 -2.5710
12838TIP3   OH238470   6.815   1.220   0.387 -0.1500  0.0861 -0.1038
12838TIP3    H138471   6.725   1.229   0.418 -1.3183  0.2146 -3.1346
12838TIP3    H238472   6.846   1.140   0.428 -2.2730 -0.8753 -0.2014
12839TIP3   OH238473   1.947   6.251   6.246  0.5478  0.2715 -0.6125
12839TIP3    H138474   2.019   6.195   6.276  0.1784 -0.2802 -0.7376
12839TIP3    H238475   1.871   6.193   6.242  0.2278  0.7066 -1.0648
12840TIP3   OH238476   4.313   6.570   3.113 -0.8127 -0.1340  0.2372
12840TIP3    H138477   4.406   6.548   3.110 -0.9517 -0.5969 -1.1656
12840TIP3    H238478   4.309   6.663   3.089 -0.7418 -0.1920  0.0062
12841TIP3   OH238479   3.599   6.298   4.794 -0.4289  0.1176 -0.1422
12841TIP3    H138480   3.511   6.282   4.830  0.3564 -0.0441  1.8011
12841TIP3    H238481   3.608   6.393   4.793 -0.6557  0.1409 -0.4912
12842TIP3   OH238482   2.410   1.428   0.282  0.1135  0.1573 -0.2408
12842TIP3    H138483   2.325   1.468   0.268  1.4387  2.5519 -2.5087
12842TIP3    H238484   2.449   1.477   0.354 -0.4663 -1.0930  0.9546
12843TIP3   OH238485   4.213   6.189   4.177  0.3828  0.2062 -0.0599
12843TIP3    H138486   4.270   6.265   4.193  0.5312  0.1925 -0.5003
12843TIP3    H238487   4.125   6.222   4.193  0.5871 -0.1748  2.1661
12844TIP3   OH238488   2.154   5.783   3.188 -0.0700 -0.7189 -0.3471
12844TIP3    H138489   2.131   5.692   3.206 -1.6991 -0.0205  1.4853
12844TIP3    H238490   2.158   5.825   3.274  3.1549  0.4768 -0.9327
12845TIP3   OH238491   5.312   1.177   1.498  0.6563 -1.0666  0.1928
12845TIP3    H138492   5.264   1.121   1.438 -1.4503  0.6831  0.1023
12845TIP3    H238493   5.338   1.119   1.570  0.0021 -2.4564 -0.6589
12846TIP3   OH238494   4.146   2.039   5.776  0.9420  0.3753  0.7362
12846TIP3    H138495   4.206   2.036   5.851  1.3454 -0.3297  0.3995
12846TIP3    H238496   4.184   2.104   5.717  1.4093 -0.0965  0.5068
12847TIP3   OH238497   5.584   4.832   5.342 -0.1776  0.3213  0.3251
12847TIP3    H138498   5.643   4.815   5.269  0.0849  1.5621  0.2268
12847TIP3    H238499   5.499   4.799   5.312 -0.1145  0.9699 -0.6241
12848TIP3   OH238500   5.107   1.640   4.929 -0.4901  0.0529  0.2644
12848TIP3    H138501   5.053   1.712   4.897  2.3158  1.7120 -1.1322
12848TIP3    H238502   5.080   1.564   4.877 -0.5031  1.1901 -1.4618
12849TIP3   OH238503   1.819   5.963   4.972  0.0193 -0.2093 -0.3071
12849TIP3    H138504   1.797   5.967   4.878  0.4614 -2.2732 -0.5477
12849TIP3    H238505   1.787   5.877   5.000  0.6962  0.0191  1.2293
12850TIP3   OH238506   3.370   4.799   2.937 -0.3465 -0.2994  0.2475
12850TIP3    H138507   3.346   4.877   2.987  0.5007 -0.7235  1.3379
12850TIP3    H238508   3.363   4.727   3.000  0.3842 -0.8963 -0.3372
12851TIP3   OH238509   4.656   3.692   3.498  0.3599 -0.0070 -0.1142
12851TIP3    H138510   4.564   3.675   3.479  0.7152 -0.8865 -1.1919
12851TIP3    H238511   4.692   3.607   3.522  0.7399  0.4648  1.0409
12852TIP3   OH238512   2.658   1.638   4.911  0.1726  0.8297  0.0684
12852TIP3    H138513   2.566   1.664   4.906 -0.4109 -1.3001 -2.6875
12852TIP3    H238514   2.706   1.720   4.915 -1.8112  2.0188  0.6818
12853TIP3   OH238515   3.929   1.368   2.945  0.6444 -0.0867 -0.0242
12853TIP3    H138516   3.979   1.423   3.005  1.4485 -0.7607 -0.0528
12853TIP3    H238517   3.974   1.376   2.861 -0.7843  1.2699 -0.7094
12854TIP3   OH238518   7.648   7.278   3.553  0.4504 -0.6952 -0.0104
12854TIP3    H138519   7.722   7.264   3.612 -0.3478 -0.7498  1.0048
12854TIP3    H238520   7.603   7.194   3.549 -1.0667 -0.0119  1.5230
12855TIP3   OH238521   4.293   7.398   4.441 -0.4091  0.1099 -0.0361
12855TIP3    H138522   4.266   7.476   4.491  1.9514  1.3749 -0.6056
12855TIP3    H238523   4.365   7.429   4.386  0.1059 -2.3351 -0.8249
12856TIP3   OH238524   6.237   7.385   2.789  0.3816 -0.0622  0.7409
12856TIP3    H138525   6.295   7.315   2.759  0.6908  0.4357  0.1487
12856TIP3    H238526   6.176   7.398   2.716  1.3214  1.3630  0.1718
12857TIP3   OH238527   4.132   5.339   5.100 -0.1593 -0.1103 -0.0034
12857TIP3    H138528   4.155   5.257   5.056 -1.8290 -0.5022 -0.2097
12857TIP3    H238529   4.196   5.348   5.170  0.2448 -1.4188 -0.1836
12858TIP3   OH238530   5.319   3.509   0.589 -0.3954  0.1055 -0.4166
12858TIP3    H138531   5.312   3.586   0.534 -0.7849 -0.2942 -0.9292
12858TIP3    H238532   5.400   3.522   0.639 -2.1413  2.4834  2.0564
12859TIP3   OH238533   0.417   3.178   3.846 -0.4783  0.1317 -0.4271
12859TIP3    H138534   0.343   3.166   3.906  0.0120  0.5831  0.2819
12859TIP3    H238535   0.482   3.226   3.897  0.7198 -1.1384 -0.7148
12860TIP3   OH238536   0.251   3.363   2.015 -0.1525 -0.5319  0.5152
12860TIP3    H138537   0.218   3.280   1.979  0.3488 -0.1790 -0.7999
12860TIP3    H238538   0.300   3.403   1.943  0.6269  0.3558  1.5042
12861TIP3   OH238539   0.461   6.867   3.893 -0.4777  0.3317  0.6196
12861TIP3    H138540   0.412   6.896   3.816 -1.3275  0.1241  1.0712
12861TIP3    H238541   0.513   6.943   3.918 -0.8188  0.6635  0.3318
12862TIP3   OH238542   3.789   5.336   6.652  0.4364  0.0978  0.1681
12862TIP3    H138543   3.722   5.275   6.683  0.4361  0.5921  1.2024
12862TIP3    H238544   3.872   5.295   6.676  0.4395  0.4134  0.7267
12863TIP3   OH238545   2.977   2.816   1.967  0.2537 -0.1287  0.1759
12863TIP3    H138546   2.898   2.775   1.932  0.8522  0.0343 -1.4157
12863TIP3    H238547   2.978   2.903   1.928 -1.5237  1.9900  4.2125
12864TIP3   OH238548   1.061   2.719   3.943 -1.0604  0.0624  0.3455
12864TIP3    H138549   1.017   2.699   4.026 -1.8620  1.9253  0.4210
12864TIP3    H238550   1.053   2.639   3.892  0.2852 -1.4647  2.3823
12865TIP3   OH238551   3.530   5.179   5.517  0.5239  0.2227 -0.1321
12865TIP3    H138552   3.609   5.214   5.474 -0.3082 -0.0459 -1.9742
12865TIP3    H238553   3.519   5.092   5.480 -0.6385  0.2538  0.1085
12866TIP3   OH238554   5.822   0.825   2.368  0.3265 -0.0743  0.2448
12866TIP3    H138555   5.911   0.817   2.403 -0.0976 -0.4635  1.2531
12866TIP3    H238556   5.793   0.912   2.393  0.1373 -0.2364  0.5891
12867TIP3   OH238557   2.934   6.036   2.279  0.0925  0.1379 -0.0500
12867TIP3    H138558   2.998   6.022   2.210 -1.7809  0.2373 -1.8876
12867TIP3    H238559   2.876   5.960   2.274 -0.3307  0.3582  1.1546
12868TIP3   OH238560   1.875   2.579   2.911 -0.4666  0.1871 -0.6904
12868TIP3    H138561   1.882   2.660   2.960 -0.8084  1.1237 -2.1302
12868TIP3    H238562   1.855   2.606   2.822  1.7992 -1.3472 -1.7790
12869TIP3   OH238563   6.564   1.668   3.197 -0.2727  0.0224  0.2581
12869TIP3    H138564   6.505   1.739   3.220  0.3158  0.5337  0.2130
12869TIP3    H238565   6.641   1.682   3.252 -0.2130 -0.6708  0.3604
12870TIP3   OH238566   4.188   1.680   2.559 -0.0972  0.2037 -0.7779
12870TIP3    H138567   4.108   1.686   2.507 -0.2960 -0.7017 -0.5844
12870TIP3    H238568   4.159   1.654   2.646  0.3024  1.0319 -0.3787
12871TIP3   OH238569   5.634   1.109   1.735 -0.0794  0.2365  0.0657
12871TIP3    H138570   5.633   1.176   1.667 -0.1582  1.7012  1.4595
12871TIP3    H238571   5.543   1.078   1.739 -0.1110  0.2669 -0.3605
12872TIP3   OH238572   2.464   1.976   2.421 -0.4133  0.0845 -0.1121
12872TIP3    H138573   2.479   2.062   2.381 -2.3280  0.4165 -0.2103
12872TIP3    H238574   2.452   1.995   2.514  2.0775 -0.4668  0.3943
12873TIP3   OH238575   5.201   0.832   5.534  0.1129  0.6384  0.4329
12873TIP3    H138576   5.254   0.908   5.510  0.6446  0.2002  0.1915
12873TIP3    H238577   5.127   0.833   5.473  0.3587  0.7094  0.1330
12874TIP3   OH238578   5.293   6.854   1.140  0.8932  0.0634  0.1359
12874TIP3    H138579   5.347   6.813   1.207  1.9636  0.3336 -0.5422
12874TIP3    H238580   5.294   6.792   1.067 -0.0765 -0.1258  0.2727
12875TIP3   OH238581   2.869   3.127   6.306  0.0818 -0.3155  0.0874
12875TIP3    H138582   2.918   3.045   6.302  0.5069 -0.1293  1.1357
12875TIP3    H238583   2.896   3.167   6.389 -1.9467 -0.2777  0.7788
12876TIP3   OH238584   0.939   7.501   6.032 -0.2999  0.2693 -0.1704
12876TIP3    H138585   0.893   7.584   6.042 -0.1355  0.2906  0.4891
12876TIP3    H238586   1.023   7.525   5.992 -0.1640  0.4498  0.2196
12877TIP3   OH238587   5.677   1.315   6.112 -0.4727  0.2127  0.0974
12877TIP3    H138588   5.650   1.363   6.034 -0.5342 -0.5752 -0.3703
12877TIP3    H238589   5.738   1.374   6.156  0.7797  0.0475 -1.3487
12878TIP3   OH238590   1.604   2.185   6.541  0.1123  0.0563 -0.2156
12878TIP3    H138591   1.592   2.181   6.635  1.6706 -1.3315 -0.0296
12878TIP3    H238592   1.543   2.121   6.505  1.9607 -2.0600  0.1894
12879TIP3   OH238593   7.749   7.063   1.824  0.2825  0.0251  0.4603
12879TIP3    H138594   7.795   7.140   1.857  0.4335  0.1921 -0.1241
12879TIP3    H238595   7.814   6.993   1.828  0.2886  0.0350  0.5446
12880TIP3   OH238596   4.186   3.614   4.096 -1.0140 -0.6925  0.1708
12880TIP3    H138597   4.281   3.627   4.088 -1.1227  0.2259  0.2208
12880TIP3    H238598   4.172   3.522   4.073  0.1475 -1.4852  2.4135
12881TIP3   OH238599   5.185   2.030   3.287  0.2090 -0.3012 -0.0692
12881TIP3    H138600   5.178   1.975   3.209 -2.7686  0.2209 -0.2763
12881TIP3    H238601   5.186   2.120   3.254 -1.6309 -0.0522  0.4417
12882TIP3   OH238602   3.901   0.520   4.403  0.5951  0.4585 -0.2504
12882TIP3    H138603   3.840   0.453   4.434  0.2930  0.7461 -0.2227
12882TIP3    H238604   3.847   0.581   4.353 -0.1062  3.3872  3.6247
12883TIP3   OH238605   6.082   0.929   0.177  0.4966 -0.5553  0.3454
12883TIP3    H138606   6.029   0.861   0.219  0.0528 -1.6081 -1.7691
12883TIP3    H238607   6.157   0.881   0.140  1.0329  0.3708  0.1930
12884TIP3   OH238608   3.834   1.721   0.433  0.0214  0.4586  0.1512
12884TIP3    H138609   3.818   1.709   0.526 -0.3858  1.2908  0.1985
12884TIP3    H238610   3.863   1.812   0.425  2.3436 -0.2553 -0.2508
12885TIP3   OH238611   5.652   2.795   4.563 -0.3313  0.2956  0.5055
12885TIP3    H138612   5.680   2.706   4.583 -0.1192  0.2466  0.0045
12885TIP3    H238613   5.663   2.803   4.468  0.1413  1.0295  0.6140
12886TIP3   OH238614   0.358   5.867   4.947 -0.0048 -0.4136  0.1966
12886TIP3    H138615   0.395   5.946   4.906  1.1017 -1.0249 -0.0313
12886TIP3    H238616   0.269   5.862   4.914 -0.7903  1.8378  1.7580
12887TIP3   OH238617   4.586   7.466   0.742 -0.3760  0.2038  0.3764
12887TIP3    H138618   4.539   7.439   0.821 -0.7583  0.6774  0.3158
12887TIP3    H238619   4.620   7.553   0.763 -2.1178  1.1861 -0.6348
12888TIP3   OH238620   1.851   6.763   2.158  1.0287  0.0916 -0.6625
12888TIP3    H138621   1.835   6.713   2.077  0.8118  0.1580 -0.6593
12888TIP3    H238622   1.887   6.846   2.127 -0.7380  0.8454 -0.8006
12889TIP3   OH238623   1.077   3.317   4.887 -0.0296 -0.3363 -0.3522
12889TIP3    H138624   1.091   3.225   4.866  0.3976 -0.6092  0.9934
12889TIP3    H238625   0.986   3.334   4.863  0.3919 -0.6107 -2.2416
12890TIP3   OH238626   3.177   0.010   1.925 -0.1207  0.1415  0.4443
12890TIP3    H138627   3.098  -0.017   1.880  0.3731 -0.7808  0.0920
12890TIP3    H238628   3.242   0.021   1.855  0.9583 -2.3829  0.9311
12891TIP3   OH238629   8.245   1.112   4.771  0.0790  0.0066 -0.6043
12891TIP3    H138630   8.259   1.046   4.839 -1.7093 -1.3613 -1.4723
12891TIP3    H238631   8.298   1.082   4.697 -0.5194 -0.3297 -0.9053
12892TIP3   OH238632   4.710   2.684   2.628  0.3255 -0.5404  0.1574
12892TIP3    H138633   4.704   2.637   2.711  2.8787  2.5363  2.3673
12892TIP3    H238634   4.799   2.718   2.627 -0.0701  0.7514 -3.2246
12893TIP3   OH238635   6.553   4.128   3.631  0.4064  0.3659  0.2693
12893TIP3    H138636   6.570   4.152   3.540 -0.3006 -1.0805 -0.2769
12893TIP3    H238637   6.598   4.044   3.642  2.0335  1.3769  1.8308
12894TIP3   OH238638   3.612   3.383   4.936 -0.4650 -0.0985 -0.0211
12894TIP3    H138639   3.574   3.394   4.849  0.6001 -2.0480 -0.8096
12894TIP3    H238640   3.663   3.463   4.950  0.2995 -0.2310 -1.7291
12895TIP3   OH238641   7.619   5.195   5.099 -0.1488  0.3427  0.3871
12895TIP3    H138642   7.634   5.100   5.101  0.6718  0.4318 -0.6577
12895TIP3    H238643   7.700   5.231   5.065 -0.7682  1.3592 -0.0557
12896TIP3   OH238644   7.704   5.084   6.682  0.1501 -0.5713  0.2476
12896TIP3    H138645   7.676   5.003   6.724  0.1108 -0.1065  1.1325
12896TIP3    H238646   7.701   5.065   6.588  0.0536 -1.5611  0.4469
12897TIP3   OH238647   1.807   4.868   2.767  0.9264  0.2388  0.0124
12897TIP3    H138648   1.776   4.828   2.686 -2.8723 -0.7099  1.7015
12897TIP3    H238649   1.757   4.950   2.774  1.8727  0.7608  0.9956
12898TIP3   OH238650   6.474   3.491   6.532  0.0930 -0.2220 -0.2258
12898TIP3    H138651   6.413   3.495   6.458  0.1510  0.9308 -0.2227
12898TIP3    H238652   6.550   3.541   6.503 -0.5825  1.7324  1.2405
12899TIP3   OH238653   0.860   7.030   1.503  0.2120 -0.1443  0.2681
12899TIP3    H138654   0.777   6.989   1.479 -0.3540 -0.3713  2.4004
12899TIP3    H238655   0.854   7.119   1.467 -0.9792 -0.1494  0.4295
12900TIP3   OH238656   3.959   4.752   1.479  0.1524 -0.3406 -0.0347
12900TIP3    H138657   3.977   4.779   1.569 -1.0474  0.5512 -0.0339
12900TIP3    H238658   3.883   4.804   1.453  1.0008  0.0700 -1.8732
12901TIP3   OH238659   5.455   3.611   2.955  0.5186  0.1599 -0.0134
12901TIP3    H138660   5.365   3.578   2.962  0.2821  0.7125 -0.3767
12901TIP3    H238661   5.451   3.698   2.994  1.1610 -0.2577  1.0384
12902TIP3   OH238662   2.359   4.464   0.149 -0.0991  0.1830 -0.6781
12902TIP3    H138663   2.314   4.413   0.083 -2.4273  0.0168  0.9281
12902TIP3    H238664   2.339   4.555   0.127  1.5087  0.3141 -1.7744
12903TIP3   OH238665   6.176   3.475   2.238  0.2649  0.1847 -0.7613
12903TIP3    H138666   6.125   3.527   2.300 -1.0950 -0.9880 -0.8682
12903TIP3    H238667   6.235   3.539   2.198 -1.6165  1.7671 -1.1802
12904TIP3   OH238668   0.587   7.616   3.480 -0.3896  0.1586  0.5803
12904TIP3    H138669   0.510   7.619   3.424 -0.7100  0.0861  1.0152
12904TIP3    H238670   0.612   7.707   3.492 -0.3014  0.1734  0.3001
12905TIP3   OH238671   2.975   6.752   0.726 -0.0954 -0.3181 -0.0274
12905TIP3    H138672   2.939   6.694   0.794  2.0087  0.0445  1.5196
12905TIP3    H238673   2.928   6.728   0.647 -2.1238 -1.3220  1.3803
12906TIP3   OH238674   2.225   0.406   6.654  0.0518  0.2216  0.2119
12906TIP3    H138675   2.319   0.422   6.645  0.1376 -0.6902 -0.6779
12906TIP3    H238676   2.213   0.317   6.621 -1.1885  0.4917 -0.1023
12907TIP3   OH238677   1.987   7.179   5.298  0.1466  0.2679  0.3218
12907TIP3    H138678   1.946   7.220   5.374 -0.8432  2.4909 -1.2869
12907TIP3    H238679   2.081   7.176   5.320  0.1786  2.8759  0.8150
12908TIP3   OH238680   0.104   1.787   6.222 -0.4831 -0.0797 -0.1330
12908TIP3    H138681   0.110   1.854   6.153 -0.1537 -0.5520 -0.5757
12908TIP3    H238682   0.039   1.725   6.188 -1.3935  0.4295  0.6437
12909TIP3   OH238683   4.561   7.577   5.855 -0.3681  0.1677 -0.1212
12909TIP3    H138684   4.595   7.664   5.835 -0.1292 -0.2329 -1.5939
12909TIP3    H238685   4.480   7.570   5.803 -1.5816  0.3169  1.6857
12910TIP3   OH238686   1.907   0.907   3.549 -0.0609 -0.0279  0.2842
12910TIP3    H138687   1.926   0.816   3.526  0.2031 -0.3783  1.7708
12910TIP3    H238688   1.817   0.921   3.518  0.0348 -0.6729 -0.2996
12911TIP3   OH238689   2.874   3.145   3.369 -0.1025  0.3056  0.2335
12911TIP3    H138690   2.841   3.222   3.417 -0.2834 -0.1846  0.9125
12911TIP3    H238691   2.969   3.151   3.378 -0.1648 -0.3725  1.6272
12912TIP3   OH238692   6.205   0.592   0.296  0.1562 -0.2904  0.1465
12912TIP3    H138693   6.175   0.505   0.267 -0.2129 -0.4689  1.0199
12912TIP3    H238694   6.130   0.629   0.342  1.0228 -0.4519  1.7703
12913TIP3   OH238695   6.818   4.541   1.243  0.3248 -0.2481 -0.0360
12913TIP3    H138696   6.831   4.462   1.191 -1.7108 -1.4762  1.1795
12913TIP3    H238697   6.854   4.519   1.329  0.0773  0.2866  0.2112
12914TIP3   OH238698   7.780   5.611   3.065 -0.4470  0.2973 -0.0483
12914TIP3    H138699   7.756   5.595   3.156 -0.3959 -0.2887 -0.1324
12914TIP3    H238700   7.772   5.705   3.054  0.3725  0.4768  0.8032
12915TIP3   OH238701   5.294   5.246   4.878  0.1177 -0.1119  0.9530
12915TIP3    H138702   5.277   5.152   4.870 -0.4659 -0.0603  1.5145
12915TIP3    H238703   5.212   5.288   4.851  1.0531  0.3347 -1.4826
12916TIP3   OH238704   1.913   1.706   3.275 -0.4536  0.6295 -0.3112
12916TIP3    H138705   1.951   1.763   3.208 -0.1215  0.2308 -0.4672
12916TIP3    H238706   1.843   1.759   3.314  0.8769  1.7507  0.6603
12917TIP3   OH238707   4.852   4.390   0.552  0.5186  0.0056 -0.1585
12917TIP3    H138708   4.802   4.436   0.485 -0.5559 -1.2888 -0.2969
12917TIP3    H238709   4.820   4.299   0.548  1.5097 -0.4357  1.0774
12918TIP3   OH238710   6.871   2.521   2.875  0.2758  0.0247  0.1280
12918TIP3    H138711   6.925   2.597   2.897  1.3134 -0.9424  1.0423
12918TIP3    H238712   6.918   2.446   2.912  0.0306 -1.2597 -1.9580
12919TIP3   OH238713   1.682   0.440   4.211  0.0327  0.3451  0.1255
12919TIP3    H138714   1.610   0.385   4.180  1.0397 -0.8771 -0.1219
12919TIP3    H238715   1.738   0.380   4.261  2.5553  0.4365 -2.3211
12920TIP3   OH238716   6.353   3.952   3.700 -0.4052  0.3886 -0.2142
12920TIP3    H138717   6.405   3.879   3.666 -0.0017  0.0931  0.9675
12920TIP3    H238718   6.415   4.025   3.705 -0.5220  0.4958 -0.3445
12921TIP3   OH238719   3.011   0.708   5.127 -0.1066 -0.2576 -0.0260
12921TIP3    H138720   3.088   0.716   5.183 -0.2134 -2.1901  0.4691
12921TIP3    H238721   2.938   0.736   5.182  0.1742  1.3868 -0.4319
12922TIP3   OH238722   5.333   2.796   6.393  1.0548  0.9072 -0.0832
12922TIP3    H138723   5.377   2.711   6.388  2.2181  1.5225 -0.6126
12922TIP3    H238724   5.283   2.802   6.312  0.8340  0.6585  0.0332
12923TIP3   OH238725   4.393   3.039   2.348  0.5270  0.6544 -0.2743
12923TIP3    H138726   4.393   3.034   2.252 -1.3708 -0.7294 -0.2590
12923TIP3    H238727   4.467   2.984   2.375 -0.5510 -1.2035 -0.9370
12924TIP3   OH238728   1.148   6.711   3.229 -0.1077  0.0815 -0.2758
12924TIP3    H138729   1.208   6.769   3.182 -1.1343  1.0759 -0.4179
12924TIP3    H238730   1.128   6.758   3.310 -0.8161 -0.1403 -0.3135
12925TIP3   OH238731   5.582   5.674   6.299 -0.2515  0.0895 -0.2322
12925TIP3    H138732   5.646   5.717   6.243  0.8125 -1.6030 -0.3850
12925TIP3    H238733   5.536   5.613   6.242  0.2826 -1.0672  0.5408
12926TIP3   OH238734   0.953   2.728   2.866  0.1471 -0.7241 -0.0229
12926TIP3    H138735   0.866   2.692   2.849  0.6566 -1.2019 -1.8483
12926TIP3    H238736   1.012   2.653   2.861  0.7802 -0.2489  0.1335
12927TIP3   OH238737   6.213   3.560   0.582 -0.2099 -0.2189 -0.1580
12927TIP3    H138738   6.226   3.466   0.580 -0.0309 -0.1908 -0.3317
12927TIP3    H238739   6.118   3.572   0.577 -0.1646 -0.3424 -2.0386
12928TIP3   OH238740   6.653   4.858   1.667 -0.2725  0.4429  0.1544
12928TIP3    H138741   6.715   4.929   1.684  1.4548 -1.1750  0.8838
12928TIP3    H238742   6.653   4.850   1.571 -0.0823  1.0643  0.0936
12929TIP3   OH238743   2.241   1.422   6.247 -0.0956  0.4443 -0.3127
12929TIP3    H138744   2.298   1.456   6.316 -1.7124  1.5244  0.5752
12929TIP3    H238745   2.293   1.356   6.202  0.6544 -1.2216  2.7183
12930TIP3   OH238746   2.023   6.013   6.695 -0.0084  0.0260  0.2826
12930TIP3    H138747   2.025   6.064   6.776 -2.4042 -1.2147  1.2099
12930TIP3    H238748   2.046   5.924   6.722  0.6942 -0.1077 -0.6993
12931TIP3   OH238749   1.904   3.857   0.787 -0.3770  0.2000 -0.5655
12931TIP3    H138750   1.817   3.892   0.807  0.4629  1.5309  1.0924
12931TIP3    H238751   1.927   3.805   0.864  0.2727 -0.2080 -1.0244
12932TIP3   OH238752   7.143   4.538   5.618  0.0909 -0.3514 -0.1388
12932TIP3    H138753   7.116   4.449   5.638  0.7519 -0.5800 -0.2262
12932TIP3    H238754   7.198   4.529   5.540 -0.3731  0.2120 -0.5382
12933TIP3   OH238755   5.113   6.308   1.645  0.3267  0.5503  0.3237
12933TIP3    H138756   5.065   6.227   1.632  0.8808  0.2131  0.3600
12933TIP3    H238757   5.197   6.281   1.682  0.5248  1.1329  0.3132
12934TIP3   OH238758   5.447   4.722   1.463 -0.5717  0.5188 -0.4330
12934TIP3    H138759   5.531   4.678   1.449 -2.1520 -2.6517 -0.7633
12934TIP3    H238760   5.455   4.762   1.550  0.7291 -1.1142  0.2585
12935TIP3   OH238761   8.026   1.681   2.443  0.1659  0.1710  0.2127
12935TIP3    H138762   8.056   1.722   2.524  0.4213  0.7646 -0.1749
12935TIP3    H238763   7.931   1.682   2.448  0.1591  1.1933  0.0295
12936TIP3   OH238764   4.430   0.290   4.181  0.1224  0.4618  0.1138
12936TIP3    H138765   4.361   0.227   4.201  1.3950 -0.9751  0.1452
12936TIP3    H238766   4.416   0.312   4.089 -0.4768  0.3320  0.1675
12937TIP3   OH238767   1.858   2.077   1.403  0.1336  0.2475  0.2998
12937TIP3    H138768   1.810   2.159   1.404 -3.4884 -1.6222 -0.8408
12937TIP3    H238769   1.839   2.037   1.489  1.8018  0.5204  0.8232
12938TIP3   OH238770   8.001   2.717   5.739 -0.2150  0.3736  0.3785
12938TIP3    H138771   8.040   2.787   5.688  0.2024  0.4459  0.7801
12938TIP3    H238772   7.989   2.645   5.677  0.4699  0.3912  0.2129
12939TIP3   OH238773   0.138   3.305   1.459  0.2013 -0.1047  0.0562
12939TIP3    H138774   0.059   3.358   1.469 -1.1063 -1.6203 -1.5324
12939TIP3    H238775   0.122   3.229   1.515 -1.2093 -2.1645 -2.8692
12940TIP3   OH238776   2.969   0.406   5.314 -0.4309  0.5014 -0.2455
12940TIP3    H138777   2.974   0.497   5.343 -1.9546  0.6537 -0.3765
12940TIP3    H238778   3.038   0.361   5.362 -0.4364  1.4925  0.7139
12941TIP3   OH238779   0.819   1.813   4.520 -0.2789  0.1218 -0.5630
12941TIP3    H138780   0.725   1.796   4.521 -0.2715  0.0857 -0.2426
12941TIP3    H238781   0.848   1.784   4.433 -0.5559  0.0930 -0.6463
12942TIP3   OH238782   6.318   2.332   6.009 -0.1587 -0.0633  0.4131
12942TIP3    H138783   6.230   2.299   5.991 -0.3038  0.6495 -0.2660
12942TIP3    H238784   6.319   2.348   6.103 -0.2482 -1.4799  0.6776
12943TIP3   OH238785   5.192   1.241   1.058  0.2638 -0.6097 -0.2134
12943TIP3    H138786   5.270   1.231   1.005  0.0660 -1.9085 -0.2860
12943TIP3    H238787   5.223   1.281   1.140  1.2370 -2.2789  0.2721
12944TIP3   OH238788   2.334   6.385   0.383  0.6052 -0.4753  0.5284
12944TIP3    H138789   2.242   6.368   0.404  0.4524  0.0369  0.2943
12944TIP3    H238790   2.331   6.443   0.307  1.0391  1.7899  2.1148
12945TIP3   OH238791   0.904   3.224   5.262 -0.3156  0.1848 -0.2192
12945TIP3    H138792   0.885   3.141   5.217  2.0560 -1.1705  1.0434
12945TIP3    H238793   0.877   3.209   5.352  1.1676  0.3037  0.2774
12946TIP3   OH238794   2.016   1.609   1.523 -0.5161 -0.0786  0.0680
12946TIP3    H138795   2.061   1.680   1.569  1.5932 -1.7358  0.7016
12946TIP3    H238796   1.950   1.654   1.470 -0.2587  2.2260  1.5418
12947TIP3   OH238797   3.638   0.727   5.094 -0.0063  0.1145  0.3869
12947TIP3    H138798   3.726   0.766   5.092  0.1836 -0.3124 -1.4598
12947TIP3    H238799   3.651   0.642   5.136  0.2319  0.5074  1.1429
12948TIP3   OH238800   0.956   2.048   4.586 -0.3001  0.1110 -0.6167
12948TIP3    H138801   0.928   1.964   4.549 -3.1887  1.4568 -1.8567
12948TIP3    H238802   0.884   2.107   4.566  1.8941  3.0790 -0.3522
12949TIP3   OH238803   0.796   5.191   3.520 -0.1260 -0.0090  0.0778
12949TIP3    H138804   0.849   5.140   3.581  1.3969  0.0999 -1.0904
12949TIP3    H238805   0.728   5.130   3.491  0.8701 -0.9754 -0.2905
12950TIP3   OH238806   3.449   1.061   1.248  0.8296 -0.0136 -0.3383
12950TIP3    H138807   3.404   1.025   1.172 -0.9179 -0.5722  0.8959
12950TIP3    H238808   3.442   1.156   1.237  0.8478 -0.0825 -1.0018
12951TIP3   OH238809   1.018   4.824   4.217  0.1963  0.6255  0.1172
12951TIP3    H138810   1.050   4.816   4.127  0.8520  0.5740  0.3472
12951TIP3    H238811   1.041   4.740   4.258 -0.2543  0.5819  0.2817
12952TIP3   OH238812   0.496   6.689   1.604  0.2350 -0.1719  0.6614
12952TIP3    H138813   0.526   6.770   1.645 -0.3629 -0.1841  1.1233
12952TIP3    H238814   0.473   6.632   1.677 -0.6340 -0.2657  0.3220
12953TIP3   OH238815   1.473   4.669   2.344 -0.6547 -0.4713 -0.5694
12953TIP3    H138816   1.480   4.646   2.251 -0.1343 -2.2187 -0.1362
12953TIP3    H238817   1.552   4.632   2.384 -0.8451  0.2982  0.5678
12954TIP3   OH238818   5.364   1.634   3.610  0.5075 -0.0987 -0.8227
12954TIP3    H138819   5.294   1.679   3.656  1.9888  1.6138 -0.1063
12954TIP3    H238820   5.321   1.562   3.565 -1.6906  0.9090 -0.4644
12955TIP3   OH238821   1.198   2.142   4.679 -0.7260  0.7352  0.5409
12955TIP3    H138822   1.194   2.228   4.638 -0.3100  0.2959 -0.4456
12955TIP3    H238823   1.112   2.103   4.663 -0.0636 -0.0428 -1.3090
12956TIP3   OH238824   1.659   6.804   4.410  0.1685 -0.0770  0.0233
12956TIP3    H138825   1.654   6.894   4.379  0.7023  0.4683  1.4585
12956TIP3    H238826   1.694   6.811   4.498 -0.0533 -1.6776  0.2611
12957TIP3   OH238827   0.976   4.466   6.257  0.0485 -0.3126  0.7390
12957TIP3    H138828   1.056   4.470   6.309 -0.8446 -1.8341  2.3299
12957TIP3    H238829   0.967   4.374   6.233 -0.0421  0.2166 -1.4132
12958TIP3   OH238830   1.903   2.666   0.535  0.1645  0.4976 -0.0937
12958TIP3    H138831   1.943   2.612   0.468  2.6793  0.6780  1.1414
12958TIP3    H238832   1.839   2.608   0.578  0.4214 -0.4231 -0.9243
12959TIP3   OH238833   7.128   5.792   2.882  0.0301  0.7077 -0.5085
12959TIP3    H138834   7.209   5.760   2.842  0.9424  1.0943  0.9452
12959TIP3    H238835   7.108   5.727   2.950 -0.6191  0.8746 -0.5324
12960TIP3   OH238836   7.715   1.963   5.784 -0.4025 -0.2063  0.5609
12960TIP3    H138837   7.731   1.872   5.810  0.5716  0.0856  1.0435
12960TIP3    H238838   7.794   1.987   5.735 -1.0030  0.1363 -0.2625
12961TIP3   OH238839   7.303   0.046   6.151  0.1011  0.5926  0.0796
12961TIP3    H138840   7.286   0.038   6.245  1.0923  1.0429  0.3144
12961TIP3    H238841   7.222   0.017   6.109  0.3306 -1.6413  1.0201
12962TIP3   OH238842   2.460   3.812   0.526  0.2469 -0.7018  1.0896
12962TIP3    H138843   2.455   3.898   0.567 -1.4384 -1.0656  1.7740
12962TIP3    H238844   2.468   3.751   0.600 -1.4337 -1.2801  0.8553
12963TIP3   OH238845   2.299   0.862   6.248  0.0527  0.1742 -0.2087
12963TIP3    H138846   2.259   0.777   6.266 -2.2801  0.8339 -1.7319
12963TIP3    H238847   2.322   0.858   6.155  1.8361  0.5330  0.1799
12964TIP3   OH238848   1.202   5.929   0.616 -0.0303 -0.0293  0.1685
12964TIP3    H138849   1.232   6.020   0.617  1.4536 -0.4838 -0.4942
12964TIP3    H238850   1.228   5.896   0.530 -0.1090 -1.2271  0.5854
12965TIP3   OH238851   1.902   0.759   1.259  0.2288 -0.7900 -0.0698
12965TIP3    H138852   1.905   0.704   1.337  0.5770 -0.0029  0.4833
12965TIP3    H238853   1.821   0.808   1.267  0.9853  0.4163  0.6052
12966TIP3   OH238854   2.784   4.895   1.585  0.2558  0.0369 -0.7717
12966TIP3    H138855   2.809   4.886   1.493  3.0904  1.6832 -0.2926
12966TIP3    H238856   2.744   4.981   1.591 -2.5976 -1.1801 -0.8622
12967TIP3   OH238857   2.725   1.335   4.861 -0.0476  0.4382  0.2033
12967TIP3    H138858   2.816   1.307   4.858 -0.0172  0.5782 -0.4450
12967TIP3    H238859   2.729   1.430   4.863 -0.1754  0.4539 -0.1281
12968TIP3   OH238860   5.580   4.956   4.845 -0.1330 -0.1901 -0.0307
12968TIP3    H138861   5.501   4.905   4.829 -0.5627 -0.3236  2.2538
12968TIP3    H238862   5.650   4.907   4.802 -1.0823 -0.7548 -0.9718
12969TIP3   OH238863   6.530   0.879   2.333 -0.0387 -0.0035  0.2415
12969TIP3    H138864   6.624   0.869   2.348 -0.3073 -2.3820  0.9236
12969TIP3    H238865   6.519   0.865   2.239  0.2568 -0.2070  0.2350
12970TIP3   OH238866   2.363   1.940   4.932 -0.1289  0.1873 -0.0253
12970TIP3    H138867   2.421   2.009   4.965 -0.7384  1.0937 -0.7915
12970TIP3    H238868   2.367   1.872   4.998  2.1941  0.0032 -0.2771
12971TIP3   OH238869   3.831   3.883   3.012 -0.5335 -0.4453  0.4289
12971TIP3    H138870   3.820   3.865   2.919 -0.4400 -1.5167  0.6145
12971TIP3    H238871   3.837   3.979   3.017  0.2303 -0.4077 -0.7504
12972TIP3   OH238872   6.099   6.515   4.573  0.1798  0.1945  0.2808
12972TIP3    H138873   6.013   6.479   4.594  0.9477 -1.1357  1.3359
12972TIP3    H238874   6.152   6.438   4.552  1.7097  0.7308  1.9355
12973TIP3   OH238875   4.593   3.842   6.230 -0.2752  0.2500 -0.8112
12973TIP3    H138876   4.644   3.766   6.260 -1.6083 -0.5408 -0.4855
12973TIP3    H238877   4.509   3.834   6.275  0.1646  2.9566  0.6792
12974TIP3   OH238878   4.877   3.582   5.280 -0.4082  0.7482 -0.5349
12974TIP3    H138879   4.822   3.507   5.306  3.1246 -1.7292  0.4712
12974TIP3    H238880   4.885   3.573   5.185  0.9298 -0.9891 -0.3083
12975TIP3   OH238881   6.971   2.168   4.351  0.0302  0.0520  0.3128
12975TIP3    H138882   6.975   2.127   4.265  2.5411 -2.6132  1.5058
12975TIP3    H238883   6.987   2.261   4.335  1.7803 -0.5583 -2.0141
12976TIP3   OH238884   1.739   1.322   3.302  0.5918 -0.4389 -0.4109
12976TIP3    H138885   1.698   1.259   3.243 -1.1388  0.2486 -0.0314
12976TIP3    H238886   1.827   1.334   3.268  0.5601 -2.1664 -1.1733
12977TIP3   OH238887   2.306   4.289   6.633  0.4833 -0.0533  0.0474
12977TIP3    H138888   2.292   4.231   6.708  1.6246 -0.8834 -0.3353
12977TIP3    H238889   2.386   4.338   6.656 -0.6325  1.6448  0.5003
12978TIP3   OH238890   2.749   5.094   3.586  0.0152 -0.1522 -0.2185
12978TIP3    H138891   2.656   5.085   3.604  0.0153  0.5832  0.2089
12978TIP3    H238892   2.775   5.173   3.633  0.6940  0.0774 -0.9531
12979TIP3   OH238893   1.976   1.748   3.765 -0.2647  0.1944 -0.2378
12979TIP3    H138894   2.016   1.694   3.697 -1.2286  1.3455 -1.7709
12979TIP3    H238895   1.906   1.693   3.800  1.4669 -1.1745  1.2929
12980TIP3   OH238896   4.114   5.105   5.680 -0.3548 -0.6841  0.2547
12980TIP3    H138897   4.081   5.089   5.591  0.1702  1.2630 -0.3605
12980TIP3    H238898   4.042   5.149   5.725  0.3590  1.0638 -0.2152
12981TIP3   OH238899   3.211   1.344   5.436 -0.2621  0.4642 -0.0251
12981TIP3    H138900   3.144   1.276   5.445 -1.3109  1.3702 -0.6750
12981TIP3    H238901   3.277   1.305   5.379 -0.2916 -0.3977  0.5057
12982TIP3   OH238902   6.751   1.304   2.924 -0.2665 -0.0942  0.6361
12982TIP3    H138903   6.829   1.358   2.937 -0.8938  1.1997 -0.7039
12982TIP3    H238904   6.683   1.366   2.897 -0.3784 -1.6993 -3.6139
12983TIP3   OH238905   7.248   3.322   1.912 -0.1586  0.0026  0.0566
12983TIP3    H138906   7.257   3.231   1.884  1.1894  0.7366 -2.1269
12983TIP3    H238907   7.167   3.352   1.870 -0.6148 -0.1759  0.7942
12984TIP3   OH238908   3.904   5.230   5.800 -0.6902 -0.0282  0.2437
12984TIP3    H138909   3.810   5.230   5.818 -0.5436  1.4165  1.1113
12984TIP3    H238910   3.925   5.321   5.778  0.3733 -0.4845 -0.7625
12985TIP3   OH238911   0.307   5.054   2.594  0.4262 -0.7172  0.6427
12985TIP3    H138912   0.354   5.137   2.590 -0.9212  0.0597  0.3472
12985TIP3    H238913   0.215   5.078   2.586  0.0563 -2.3162 -0.3126
12986TIP3   OH238914   6.646   1.791   5.613 -0.3267 -0.5928 -0.1169
12986TIP3    H138915   6.645   1.840   5.531  0.9393 -0.4435 -0.0586
12986TIP3    H238916   6.738   1.769   5.627  0.0169  2.0492  2.8431
12987TIP3   OH238917   7.701   4.812   6.693 -0.0485  0.0114 -1.0615
12987TIP3    H138918   7.624   4.756   6.706  0.4023 -0.4158 -0.0937
12987TIP3    H238919   7.748   4.771   6.620 -0.7538  0.3055 -1.6918
12988TIP3   OH238920   1.076   1.316   3.962 -0.8867  0.6080  0.9115
12988TIP3    H138921   1.078   1.396   3.910  0.7819  0.7464  1.1410
12988TIP3    H238922   1.073   1.246   3.897  1.5771  0.7642  0.5236
12989TIP3   OH238923   0.185   7.107   5.102 -0.0965 -0.4680 -0.2483
12989TIP3    H138924   0.174   7.037   5.166  2.0834 -1.0642 -0.4516
12989TIP3    H238925   0.119   7.172   5.125  0.4713 -0.7579  2.4622
12990TIP3   OH238926   6.090   1.808   2.537 -0.1371 -0.2257  0.2461
12990TIP3    H138927   6.110   1.888   2.488 -2.5183  0.9411  1.0645
12990TIP3    H238928   6.012   1.772   2.495  0.7334 -2.0131  0.0653
12991TIP3   OH238929   3.453   2.799   5.000  0.7200  0.1190 -0.5425
12991TIP3    H138930   3.380   2.754   4.958  0.3766  0.7121 -0.5795
12991TIP3    H238931   3.529   2.743   4.982  0.1267 -1.0279  0.3358
12992TIP3   OH238932   4.953   1.656   2.454  0.3777 -0.2327  0.0320
12992TIP3    H138933   4.950   1.646   2.549  1.1292  0.6842  0.1745
12992TIP3    H238934   4.880   1.604   2.421 -0.5888  0.3393  1.1958
12993TIP3   OH238935   7.292   7.778   6.448  0.3241  0.3753  0.2263
12993TIP3    H138936   7.310   7.732   6.366 -1.3968 -0.0276  0.0295
12993TIP3    H238937   7.378   7.794   6.487  1.1779  0.6282 -1.6770
12994TIP3   OH238938   5.143   0.994   3.689 -0.2914  0.2681 -0.0773
12994TIP3    H138939   5.238   0.999   3.702 -0.4997  2.5573  1.1114
12994TIP3    H238940   5.107   0.989   3.777 -1.3043 -0.0044 -0.4952
12995TIP3   OH238941   2.737   2.546   6.664  0.0427 -0.1652 -0.2543
12995TIP3    H138942   2.667   2.549   6.729  0.7429  2.5401  0.5250
12995TIP3    H238943   2.700   2.497   6.591 -2.2751  0.2409  0.5578
12996TIP3   OH238944   0.551   1.139   5.802  0.3705  0.6388 -0.7209
12996TIP3    H138945   0.536   1.173   5.890  0.0684  1.3172 -1.0220
12996TIP3    H238946   0.642   1.159   5.783  0.0603  1.7704 -1.0878
12997TIP3   OH238947   5.761   2.353   2.839 -0.7349  0.1456 -0.5095
12997TIP3    H138948   5.766   2.344   2.934  0.5432  2.4520 -0.2755
12997TIP3    H238949   5.852   2.346   2.810 -1.1012 -0.4161 -1.5575
12998TIP3   OH238950   0.342   5.827   6.780  0.0078 -0.0636 -0.1661
12998TIP3    H138951   0.396   5.820   6.702 -0.1344  0.2292 -0.2941
12998TIP3    H238952   0.354   5.744   6.826 -0.2440 -0.4108 -0.7161
12999TIP3   OH238953   3.704   7.088   1.665  0.5162 -0.4252 -0.2657
12999TIP3    H138954   3.658   7.157   1.713  0.8065  0.2056 -0.8831
12999TIP3    H238955   3.643   7.064   1.595 -0.2360 -1.8811  0.8285
13000TIP3   OH238956   1.800   6.597   5.065 -0.4868 -0.1507  0.0666
13000TIP3    H138957   1.728   6.542   5.030 -1.2836  0.7092  0.3185
13000TIP3    H238958   1.755   6.664   5.116  0.6165 -0.9061  2.1252
13001TIP3   OH238959   1.782   4.162   2.541  0.6441 -0.8246 -0.4051
13001TIP3    H138960   1.714   4.095   2.539 -0.3300  0.1215  0.1742
13001TIP3    H238961   1.837   4.139   2.615 -0.8468  0.0765  1.0465
13002TIP3   OH238962   8.222   0.460   4.008  0.2304  0.4664  0.4853
13002TIP3    H138963   8.140   0.466   4.057  0.1046  1.7265  0.1526
13002TIP3    H238964   8.206   0.393   3.942  0.5195 -1.5561  2.3294
13003TIP3   OH238965   5.013   0.322   4.767  0.0983  0.3020 -0.3346
13003TIP3    H138966   5.083   0.375   4.728  0.2923  0.3348  0.0556
13003TIP3    H238967   5.009   0.351   4.858 -0.5640  0.4478 -0.4055
13004TIP3   OH238968   6.779   1.055   1.245  0.1634 -0.3105 -0.2928
13004TIP3    H138969   6.805   1.005   1.323 -0.5204  1.1617  0.9183
13004TIP3    H238970   6.701   1.009   1.213 -1.3754  0.7515  1.6887
13005TIP3   OH238971   4.294   0.574   1.630  0.7142  0.3063 -0.0900
13005TIP3    H138972   4.369   0.591   1.686  0.6317 -1.2209  0.5278
13005TIP3    H238973   4.268   0.484   1.651 -4.3407  2.1255  3.4294
13006TIP3   OH238974   5.535   1.514   1.065  0.4953 -0.2049 -0.0200
13006TIP3    H138975   5.624   1.490   1.041  0.0746  0.0651 -2.0028
13006TIP3    H238976   5.491   1.431   1.081  1.0474 -0.3422  0.8487
13007TIP3   OH238977   5.030   1.405   0.265 -0.8054 -0.0415 -0.3106
13007TIP3    H138978   5.008   1.423   0.356  1.8526 -2.1808  0.9062
13007TIP3    H238979   4.946   1.397   0.221 -2.1938  0.7041  2.0102
13008TIP3   OH238980   1.833   5.305   1.707  0.5505  0.1663 -0.4545
13008TIP3    H138981   1.864   5.314   1.797  2.6319  0.9399 -1.1783
13008TIP3    H238982   1.775   5.380   1.693  0.2825  0.0855  0.2135
13009TIP3   OH238983   0.990   2.477   5.406 -0.2269  0.0415  0.0523
13009TIP3    H138984   0.972   2.388   5.375 -1.2397 -0.2236  1.3244
13009TIP3    H238985   0.906   2.508   5.439  0.5391  0.7479  1.4042
13010TIP3   OH238986   0.298   7.628   5.905 -0.1956  0.4590 -0.3327
13010TIP3    H138987   0.269   7.628   5.814 -2.6124  1.0379  0.3604
13010TIP3    H238988   0.326   7.538   5.922 -1.6596 -0.1593 -1.0869
13011TIP3   OH238989   0.155   0.480   4.742  0.5576  0.1185 -0.3329
13011TIP3    H138990   0.155   0.515   4.653  1.0159  0.6628 -0.1329
13011TIP3    H238991   0.247   0.460   4.760  0.8055  1.9005  0.7037
13012TIP3   OH238992   0.977   0.101   1.725  0.1550  0.6986  0.3894
13012TIP3    H138993   0.906   0.156   1.692 -1.2388 -0.3504  1.4627
13012TIP3    H238994   0.932   0.024   1.762  1.9185 -0.4208  0.3306
13013TIP3   OH238995   5.062   5.168   2.034 -0.0367 -0.0070  0.2279
13013TIP3    H138996   5.052   5.113   1.957 -0.1757 -1.7206  1.4055
13013TIP3    H238997   5.157   5.180   2.043  0.2237 -2.2331  1.3298
13014TIP3   OH238998   8.075   5.503   2.527 -0.4773 -0.7344  0.1476
13014TIP3    H138999   8.000   5.455   2.562  0.4075 -1.4834  1.0976
13014TIP3    H239000   8.094   5.569   2.593 -2.1345  1.5140 -1.4767
13015TIP3   OH239001   0.700   1.170   4.068 -0.0390  0.2491 -0.3350
13015TIP3    H139002   0.793   1.160   4.048  0.4577  0.6919  1.5096
13015TIP3    H239003   0.659   1.093   4.030  0.7020  1.0743 -3.0621
13016TIP3   OH239004   7.446   4.504   0.409 -0.0136  0.4333 -0.2999
13016TIP3    H139005   7.535   4.469   0.418 -0.8357 -1.7193  0.0626
13016TIP3    H239006   7.444   4.541   0.321  0.9440 -0.4444 -0.7171
13017TIP3   OH239007   4.267   2.745   1.821 -0.1371 -0.1397 -0.6802
13017TIP3    H139008   4.292   2.675   1.881 -1.9759 -0.1532  0.1350
13017TIP3    H239009   4.177   2.723   1.795 -0.9205  2.0834 -0.0859
13018TIP3   OH239010   2.512   1.951   6.005  0.4248  0.0948 -0.0816
13018TIP3    H139011   2.576   1.884   5.983  0.7550  0.6545 -0.8722
13018TIP3    H239012   2.526   2.020   5.941 -0.6914  0.4145 -0.0146
13019TIP3   OH239013   5.568   4.941   0.693 -0.7365  0.0564 -0.5306
13019TIP3    H139014   5.503   4.990   0.744 -0.5327 -0.6425  0.4390
13019TIP3    H239015   5.527   4.856   0.677 -0.4350 -0.0498 -0.7474
13020TIP3   OH239016   7.087   6.865   5.348  0.6967  0.4513 -0.3643
13020TIP3    H139017   7.064   6.772   5.342  0.5917  0.5556 -1.8649
13020TIP3    H239018   7.141   6.881   5.270  2.3061  1.2155  0.8459
13021TIP3   OH239019   5.162   7.034   1.443 -0.3859  0.2185 -0.1333
13021TIP3    H139020   5.234   6.972   1.454 -0.7993  0.0476  1.9099
13021TIP3    H239021   5.131   7.019   1.353  1.9201  0.1305 -0.9818
13022TIP3   OH239022   4.724   2.754   5.610  0.9892  0.4803 -0.0244
13022TIP3    H139023   4.811   2.791   5.627  1.7789  0.0508 -2.6452
13022TIP3    H239024   4.670   2.829   5.585  0.5952  0.7259  1.4566
13023TIP3   OH239025   3.385   4.196   5.239  0.0411  0.2072  0.1585
13023TIP3    H139026   3.346   4.255   5.174 -1.6965 -0.3315  0.6522
13023TIP3    H239027   3.313   4.176   5.299  0.8537 -1.5856  0.6002
13024TIP3   OH239028   7.471   3.051   1.722 -0.3395  0.5247 -0.1063
13024TIP3    H139029   7.474   3.008   1.807  1.9020  0.1474 -0.2979
13024TIP3    H239030   7.436   2.984   1.663 -0.6433  0.3353  0.2845
13025TIP3   OH239031   8.203   4.288   4.245 -0.1037  0.1821  0.2575
13025TIP3    H139032   8.183   4.366   4.296 -0.7077  0.1776  0.0343
13025TIP3    H239033   8.299   4.280   4.250  0.1343  1.7538 -0.9069
13026TIP3   OH239034   4.095   5.573   2.468  0.3218  0.6095 -0.0140
13026TIP3    H139035   4.163   5.506   2.473 -1.1881 -0.9345  0.6855
13026TIP3    H239036   4.086   5.605   2.558  0.8305  1.5710 -0.2931
13027TIP3   OH239037   5.431   4.488   6.092  0.4314 -0.0787 -0.2232
13027TIP3    H139038   5.410   4.552   6.024  3.0155  2.0674  0.8234
13027TIP3    H239039   5.455   4.408   6.044 -0.9284  0.3316 -1.6470
13028TIP3   OH239040   2.022   3.676   0.184 -0.1395 -0.2441  0.1380
13028TIP3    H139041   2.048   3.662   0.093 -0.0426 -0.9520  0.2686
13028TIP3    H239042   1.936   3.716   0.178 -0.7911 -1.6363 -0.2667
13029TIP3   OH239043   4.105   2.286   3.724  0.1122 -0.1034  0.6511
13029TIP3    H139044   4.047   2.353   3.688 -0.3637 -1.5106 -1.4231
13029TIP3    H239045   4.046   2.222   3.763  0.4398 -0.2914  0.8394
13030TIP3   OH239046   2.678   4.232   4.811 -0.0837  0.4111  0.2174
13030TIP3    H139047   2.591   4.247   4.776 -0.3743 -0.6094  0.4679
13030TIP3    H239048   2.671   4.254   4.904 -0.0943  0.2678  0.2509
13031TIP3   OH239049   6.476   2.136   0.670  0.2414 -0.2953  0.0844
13031TIP3    H139050   6.423   2.214   0.686  1.3114  0.5302 -0.2789
13031TIP3    H239051   6.530   2.127   0.748  0.7594 -0.1396 -0.2530
13032TIP3   OH239052   0.248   6.466   5.681 -0.7884 -0.4397 -0.6445
13032TIP3    H139053   0.226   6.546   5.729 -3.1431 -0.3072 -1.7962
13032TIP3    H239054   0.317   6.493   5.620 -0.3832  0.2805  0.1055
13033TIP3   OH239055   2.885   3.795   2.068 -0.4392  0.6500 -0.4957
13033TIP3    H139056   2.972   3.835   2.068 -0.4185  0.6184 -1.1949
13033TIP3    H239057   2.895   3.716   2.122  0.1701  0.2191 -1.2185
13034TIP3   OH239058   0.588   1.263   1.570 -0.5895  0.0343  0.1432
13034TIP3    H139059   0.512   1.219   1.608 -1.0652  0.1778 -0.6149
13034TIP3    H239060   0.640   1.291   1.645 -1.7214  0.7049  0.7063
13035TIP3   OH239061   4.832   6.542   1.913  0.8090  0.4925  0.1222
13035TIP3    H139062   4.917   6.534   1.870 -0.2933  0.0465 -2.1706
13035TIP3    H239063   4.805   6.452   1.929  0.2480  0.5561 -0.3787
13036TIP3   OH239064   8.219   5.848   2.866  0.4107  0.1520 -0.0484
13036TIP3    H139065   8.294   5.908   2.867  0.3736  0.1977 -0.0322
13036TIP3    H239066   8.162   5.880   2.935  0.7235 -0.3257  0.4378
13037TIP3   OH239067   7.228   3.381   6.766 -0.3241  0.0408  0.4699
13037TIP3    H139068   7.244   3.464   6.721 -0.6592 -0.3449 -0.3932
13037TIP3    H239069   7.245   3.314   6.699  0.6515 -0.6307  1.3424
13038TIP3   OH239070   6.312   2.328   4.949 -0.2071 -0.2039 -0.2614
13038TIP3    H139071   6.401   2.311   4.979  0.4407  1.5335 -1.0410
13038TIP3    H239072   6.259   2.325   5.028  0.6618 -0.5821  0.3181
13039TIP3   OH239073   6.859   0.283   2.713  0.9047  0.5805 -0.3253
13039TIP3    H139074   6.801   0.339   2.765  0.5209 -1.3844  1.5063
13039TIP3    H239075   6.817   0.277   2.627 -1.3258 -0.2373  0.7404
13040TIP3   OH239076   1.594   7.437   2.144 -0.0022  0.7293 -0.6334
13040TIP3    H139077   1.564   7.434   2.235  0.9277  0.9238 -0.3126
13040TIP3    H239078   1.665   7.373   2.140 -0.2203  0.5171 -1.3017
13041TIP3   OH239079   3.679   6.920   1.944  0.0616 -0.1528 -0.0168
13041TIP3    H139080   3.704   6.982   1.876  2.8499 -1.7111 -0.5647
13041TIP3    H239081   3.736   6.941   2.018  0.0279 -1.1035  0.2976
13042TIP3   OH239082   7.132   6.953   4.049  0.2545  0.0592 -0.2639
13042TIP3    H139083   7.124   7.041   4.012  1.3460 -0.2307 -1.2414
13042TIP3    H239084   7.053   6.907   4.019 -0.6073  0.8410  0.7197
13043TIP3   OH239085   1.411   6.603   2.459  0.8872 -0.6148 -0.0032
13043TIP3    H139086   1.473   6.674   2.443 -0.1932  0.5813  0.8740
13043TIP3    H239087   1.432   6.572   2.547  1.8008 -1.8986 -0.6377
13044TIP3   OH239088   7.367   0.631   2.395  0.2845  0.3622  0.6364
13044TIP3    H139089   7.306   0.688   2.442 -0.5798 -0.5370  0.6463
13044TIP3    H239090   7.416   0.689   2.337 -0.6293  1.0990  0.5908
13045TIP3   OH239091   4.804   5.135   2.451  0.4167 -0.5310  0.4503
13045TIP3    H139092   4.893   5.163   2.472  0.7147 -0.1994 -1.1415
13045TIP3    H239093   4.810   5.101   2.362 -0.8234 -1.6386  0.7530
13046TIP3   OH239094   4.464   3.685   3.027 -0.0804 -0.3956  0.4465
13046TIP3    H139095   4.462   3.724   3.114 -0.0714 -1.5521  0.9917
13046TIP3    H239096   4.499   3.596   3.042 -0.6552 -0.8198 -0.6419
13047TIP3   OH239097   7.211  -0.003   6.415  0.5514 -0.3353 -0.2055
13047TIP3    H139098   7.162   0.077   6.431 -0.6099 -1.4084  1.8576
13047TIP3    H239099   7.266  -0.014   6.492  0.8028 -1.4531 -0.5225
13048TIP3   OH239100   3.256   6.615   0.166  0.7390  0.1743 -0.4184
13048TIP3    H139101   3.285   6.580   0.081  0.8468 -0.5719 -0.0807
13048TIP3    H239102   3.174   6.661   0.146  1.2736  0.8774 -1.0944
13049TIP3   OH239103   7.462   6.376   5.047  0.1360 -0.1125  0.1082
13049TIP3    H139104   7.414   6.403   4.968  0.4808 -0.4405 -0.2189
13049TIP3    H239105   7.416   6.418   5.119  0.2759  0.8228 -0.3348
13050TIP3   OH239106   4.214   5.955   1.973  0.1802 -0.3078 -0.3496
13050TIP3    H139107   4.265   5.879   2.001  2.4529  0.2806 -2.5475
13050TIP3    H239108   4.149   5.920   1.912 -0.4667 -0.7488  0.5656
13051TIP3   OH239109   1.049   3.419   3.945 -0.1934 -0.4018 -0.4610
13051TIP3    H139110   1.006   3.491   3.991  1.7459  1.3617 -1.2624
13051TIP3    H239111   1.076   3.359   4.014 -1.5290 -0.2167  0.2520
13052TIP3   OH239112   6.899   4.771   4.494  0.2950 -0.3958  0.3039
13052TIP3    H139113   6.886   4.685   4.453  0.4878 -0.0446 -0.4890
13052TIP3    H239114   6.927   4.750   4.583  4.3921 -1.2486 -0.9796
13053TIP3   OH239115   0.397   0.035   0.355  0.3297  0.6812  0.2951
13053TIP3    H139116   0.380   0.129   0.358 -0.1760  0.5675  1.0760
13053TIP3    H239117   0.476   0.027   0.301 -1.4480  1.2984 -2.6596
13054TIP3   OH239118   0.541   2.519   5.799  0.5214  0.0213 -0.3010
13054TIP3    H139119   0.573   2.533   5.888  1.9573  2.1081 -1.0722
13054TIP3    H239120   0.481   2.592   5.784 -0.2540 -0.7085 -0.8410
13055TIP3   OH239121   1.829   7.266   2.750 -0.5453 -0.4372 -0.0429
13055TIP3    H139122   1.743   7.296   2.719 -0.1227 -0.7558 -1.6131
13055TIP3    H239123   1.810   7.209   2.824 -1.6737 -0.2872 -0.2037
13056TIP3   OH239124   3.572   0.803   0.538 -0.6925 -0.6382 -0.8511
13056TIP3    H139125   3.611   0.724   0.576 -0.3573  0.9898  2.6668
13056TIP3    H239126   3.646   0.863   0.526 -1.3882  0.7195  1.1091
13057TIP3   OH239127   5.580   0.781   1.218  0.0058 -0.1167 -0.2286
13057TIP3    H139128   5.612   0.701   1.261  0.1040 -0.0364 -0.1523
13057TIP3    H239129   5.539   0.750   1.137  1.6069 -0.1116 -1.0907
13058TIP3   OH239130   0.149   2.476   4.020  0.3548  0.0132  0.0673
13058TIP3    H139131   0.113   2.532   4.089 -1.3349 -2.2371  1.1498
13058TIP3    H239132   0.082   2.409   4.006  1.8975 -1.2620 -1.7561
13059TIP3   OH239133   5.327   4.420   4.271  0.2800 -0.1700  0.3604
13059TIP3    H139134   5.368   4.396   4.188  0.4829 -1.0146  0.6952
13059TIP3    H239135   5.365   4.505   4.293  0.4525 -0.0828 -0.2566
13060TIP3   OH239136   2.190   4.967   2.715 -0.5435  0.2527 -0.3095
13060TIP3    H139137   2.139   5.048   2.710  0.3751  0.7979 -1.3419
13060TIP3    H239138   2.148   4.916   2.785  0.6064  2.8512  2.5227
13061TIP3   OH239139   1.839   1.638   0.269  0.4672  0.2108  0.2587
13061TIP3    H139140   1.805   1.566   0.322  0.9831 -0.3786 -0.1903
13061TIP3    H239141   1.780   1.641   0.193  0.2697  0.4646  0.4181
13062TIP3   OH239142   4.014   0.468   3.248  0.5785 -0.4099 -0.4833
13062TIP3    H139143   3.923   0.499   3.255 -0.0539 -2.2281 -0.2324
13062TIP3    H239144   4.039   0.488   3.158  0.6502  1.8869 -0.0206
13063TIP3   OH239145   0.744   0.579   2.171  0.2632  0.1397  0.3437
13063TIP3    H139146   0.822   0.537   2.134  0.2090 -1.2912  1.7303
13063TIP3    H239147   0.702   0.510   2.222 -0.6640  1.5096  1.5076
13064TIP3   OH239148   8.001   0.308   2.720 -0.2649  0.6491  0.0254
13064TIP3    H139149   8.022   0.239   2.658  1.2704  1.1004 -0.0181
13064TIP3    H239150   7.929   0.356   2.680 -1.9713 -1.4084  0.4716
13065TIP3   OH239151   5.071   7.036   1.180 -0.5549 -0.1607  0.1499
13065TIP3    H139152   5.023   7.026   1.098  1.8435  2.4975 -1.7652
13065TIP3    H239153   5.148   6.980   1.170 -0.3180  0.0655  0.6382
13066TIP3   OH239154   1.721   4.273   5.227  0.0072 -0.4536  0.4128
13066TIP3    H139155   1.811   4.287   5.258 -0.4231  0.2578  1.3751
13066TIP3    H239156   1.723   4.301   5.135  0.4760  0.7710  0.7739
13067TIP3   OH239157   3.083   4.185   5.063  0.3511 -0.8095 -0.3143
13067TIP3    H139158   3.053   4.164   4.975  2.6790 -1.1672 -1.1090
13067TIP3    H239159   3.151   4.252   5.050 -0.5898  0.5597  1.4054
13068TIP3   OH239160   2.591   4.085   4.200 -0.0354 -0.4733  0.0595
13068TIP3    H139161   2.579   3.996   4.233 -2.7852  0.0313  0.6822
13068TIP3    H239162   2.634   4.131   4.272 -1.5338 -0.5716  1.0581
13069TIP3   OH239163   7.996   3.267   0.740  0.0413 -0.0994 -0.4270
13069TIP3    H139164   7.902   3.279   0.726  0.0104 -0.5641 -0.6123
13069TIP3    H239165   8.027   3.225   0.659  0.4866  0.4596 -0.5519
13070TIP3   OH239166   6.015   3.757   5.069 -0.0523  0.4530  0.1989
13070TIP3    H139167   6.064   3.826   5.025 -0.6988  1.4872  1.0710
13070TIP3    H239168   6.062   3.677   5.046  1.5712  1.3141  0.3519
13071TIP3   OH239169   4.658   1.243   5.229 -0.7350 -0.6260 -0.6468
13071TIP3    H139170   4.661   1.210   5.140 -0.7696 -0.3084 -0.7680
13071TIP3    H239171   4.750   1.262   5.251 -0.7738 -0.2242 -0.8032
13072TIP3   OH239172   0.254   0.818   5.140  0.0214  0.1658 -0.4912
13072TIP3    H139173   0.250   0.787   5.230 -0.8089 -0.0798 -0.6069
13072TIP3    H239174   0.319   0.889   5.142 -0.6129  0.7406  0.4595
13073TIP3   OH239175   6.248   6.891   6.684  0.4619 -0.1529 -0.2068
13073TIP3    H139176   6.334   6.860   6.656 -0.0034 -0.3999 -1.3898
13073TIP3    H239177   6.258   6.986   6.691  0.5753 -0.0867 -1.2447
13074TIP3   OH239178   2.663   7.789   0.512 -0.1728  0.4597 -0.0877
13074TIP3    H139179   2.633   7.815   0.425  0.2173  1.2364  0.0015
13074TIP3    H239180   2.585   7.754   0.555  0.2984 -3.3406 -1.9326
13075TIP3   OH239181   1.093   6.948   2.399 -0.6497 -0.6731 -0.1897
13075TIP3    H139182   1.170   6.929   2.346  1.5416  1.0380  2.1598
13075TIP3    H239183   1.098   6.887   2.472 -1.9304 -0.9643 -0.3128
13076TIP3   OH239184   6.940   5.988   4.066  0.2355 -0.3358  0.4310
13076TIP3    H139185   6.919   5.957   4.154 -2.0464 -0.6740 -0.1609
13076TIP3    H239186   6.997   6.064   4.081 -0.7302  0.1099  2.2468
13077TIP3   OH239187   8.293   7.298   2.830 -0.0809 -0.2735 -0.0365
13077TIP3    H139188   8.207   7.336   2.809  0.1313 -0.5524 -1.5283
13077TIP3    H239189   8.310   7.326   2.920 -0.9630  1.2192 -0.2961
13078TIP3   OH239190   5.851   3.229   3.854 -0.0083  0.4565 -0.3521
13078TIP3    H139191   5.910   3.180   3.912 -0.1152 -1.0107 -1.4348
13078TIP3    H239192   5.801   3.161   3.808  0.0549  1.5688 -2.1462
13079TIP3   OH239193   0.917   5.510   2.366  0.3997  0.0712 -0.1603
13079TIP3    H139194   0.914   5.478   2.275  0.8940 -0.3893 -0.0256
13079TIP3    H239195   1.001   5.479   2.398  0.8643  1.4655  0.0194
13080TIP3   OH239196   1.399   6.905   4.123 -0.1078  0.1768  0.5155
13080TIP3    H139197   1.485   6.946   4.123 -0.7263  1.5768  1.7144
13080TIP3    H239198   1.354   6.944   4.198 -1.1047 -1.9890  1.1433
13081TIP3   OH239199   6.283   0.308   2.436 -0.6701  0.6234 -0.2258
13081TIP3    H139200   6.353   0.257   2.394 -0.8951 -0.4148  0.6144
13081TIP3    H239201   6.215   0.243   2.455 -0.9926  1.2548  0.8175
13082TIP3   OH239202   0.901   1.247   3.691 -0.0181 -0.4999 -0.4159
13082TIP3    H139203   0.957   1.275   3.619 -0.3312  0.3968 -0.3284
13082TIP3    H239204   0.876   1.157   3.670  0.6612 -0.5705 -0.9399
13083TIP3   OH239205   5.870   6.395   0.948  0.3565  0.2996  0.3364
13083TIP3    H139206   5.850   6.324   1.009  0.0653  3.0107  3.7111
13083TIP3    H239207   5.784   6.423   0.916  0.2216  0.7852  1.0965
13084TIP3   OH239208   3.059   0.387   6.648 -0.6715  0.2427  0.1872
13084TIP3    H139209   3.119   0.331   6.600 -0.4220  0.9728 -0.3743
13084TIP3    H239210   3.100   0.402   6.733  0.4888  1.5967 -0.5644
13085TIP3   OH239211   8.188   7.698   3.767 -0.2227 -0.6232  0.2584
13085TIP3    H139212   8.257   7.652   3.814  0.9629  0.7619 -0.0480
13085TIP3    H239213   8.122   7.631   3.748 -0.0853 -1.5224  2.6231
13086TIP3   OH239214   7.030   7.253   0.872  0.0740 -0.1458  0.0521
13086TIP3    H139215   7.019   7.225   0.963 -0.8537  0.5433  0.1696
13086TIP3    H239216   7.027   7.172   0.821 -2.3112 -0.3633  0.3983
13087TIP3   OH239217   8.164   5.605   2.119  0.4596 -0.1297 -0.2644
13087TIP3    H139218   8.154   5.538   2.052 -1.1330  0.1096 -0.3017
13087TIP3    H239219   8.080   5.606   2.164  0.9969  0.7675  0.7517
13088TIP3   OH239220   3.187   2.797   1.701 -0.2551 -0.4788  0.3713
13088TIP3    H139221   3.115   2.778   1.761 -0.5489 -0.3545  0.0588
13088TIP3    H239222   3.264   2.805   1.758 -0.5355 -0.3432  0.7345
13089TIP3   OH239223   5.960   5.686   5.904 -0.3196  0.6637 -0.5060
13089TIP3    H139224   5.890   5.692   5.968  0.4907 -1.3972  0.6889
13089TIP3    H239225   5.988   5.776   5.890 -1.0200  1.2428  1.4762
13090TIP3   OH239226   4.859   3.338   0.458  0.3804 -0.2199 -0.1910
13090TIP3    H139227   4.825   3.264   0.509  0.0966 -1.1066 -1.6087
13090TIP3    H239228   4.952   3.343   0.482 -0.2772  1.2629  2.5767
13091TIP3   OH239229   2.632   3.718   6.100  0.8516  0.2282  0.6816
13091TIP3    H139230   2.600   3.630   6.081 -0.5299  0.3224  2.3259
13091TIP3    H239231   2.647   3.718   6.194  1.4246  1.5875  0.6154
13092TIP3   OH239232   5.545   3.289   0.587 -0.3526  0.2106  0.3519
13092TIP3    H139233   5.571   3.218   0.528 -0.4586 -1.2553  1.9800
13092TIP3    H239234   5.471   3.331   0.544 -1.5110 -1.8922  0.1518
13093TIP3   OH239235   6.829   3.249   5.357  0.5858 -0.0707 -0.0543
13093TIP3    H139236   6.887   3.266   5.431  0.1745 -0.8767  0.4670
13093TIP3    H239237   6.822   3.333   5.312  1.0144  0.3756  0.6972
13094TIP3   OH239238   2.058   6.933   4.742 -0.4164 -0.1035  0.4504
13094TIP3    H139239   2.099   6.982   4.670  0.8555 -0.3110  1.0039
13094TIP3    H239240   1.978   6.981   4.760  0.5323  1.4899  0.6190
13095TIP3   OH239241   5.439   1.890   4.684  0.4243  0.2200 -0.2634
13095TIP3    H139242   5.423   1.800   4.713  0.3177 -0.5840 -2.5708
13095TIP3    H239243   5.531   1.891   4.659  0.1235  0.3434 -1.4424
13096TIP3   OH239244   1.115   7.739   0.268  0.5269  0.2488  0.7530
13096TIP3    H139245   1.151   7.684   0.198  1.8047  0.6504  1.0733
13096TIP3    H239246   1.099   7.678   0.340  1.6853  0.2255  1.0123
13097TIP3   OH239247   4.623   6.064   5.467 -0.2920  0.3780 -0.5417
13097TIP3    H139248   4.700   6.010   5.487 -0.1096  0.0384 -2.0619
13097TIP3    H239249   4.549   6.005   5.481 -0.1170 -0.1619 -1.7370
13098TIP3   OH239250   4.196   5.891   3.760 -0.2023 -0.6370  0.0465
13098TIP3    H139251   4.244   5.809   3.763  1.2740  0.2005  0.5028
13098TIP3    H239252   4.184   5.916   3.852 -2.6814 -1.4275  0.0148
13099TIP3   OH239253   6.117   4.888   6.504 -0.3111 -0.2019 -0.6289
13099TIP3    H139254   6.106   4.923   6.593 -3.1840 -0.8001 -0.6562
13099TIP3    H239255   6.188   4.940   6.467  0.4998  0.5328  1.7779
13100TIP3   OH239256   7.839   1.723   0.428 -0.3990  0.5873  0.0497
13100TIP3    H139257   7.920   1.683   0.460 -0.8268 -0.1886  0.1800
13100TIP3    H239258   7.836   1.808   0.471  0.5865  0.8233 -0.3216
13101TIP3   OH239259   4.421   0.072   6.360  0.2308 -0.4443  0.5237
13101TIP3    H139260   4.440   0.164   6.376 -0.0518 -0.1939 -0.5427
13101TIP3    H239261   4.507   0.029   6.363  0.3926 -0.1166  0.7493
13102TIP3   OH239262   2.803   1.965   5.824 -0.0690 -0.1380  0.0790
13102TIP3    H139263   2.882   1.919   5.798  0.0748 -0.2937  0.7679
13102TIP3    H239264   2.820   2.057   5.802  0.5795 -0.0654  0.8267
13103TIP3   OH239265   5.009   0.720   5.114 -0.3220 -0.0989 -0.2005
13103TIP3    H139266   5.098   0.695   5.139 -1.3112 -0.9425  2.8390
13103TIP3    H239267   4.957   0.641   5.127 -1.5797  0.4043 -1.8517
13104TIP3   OH239268   2.470   7.642   0.638 -0.1043  0.3503 -0.2970
13104TIP3    H139269   2.409   7.587   0.687  0.0524  0.4020 -0.0413
13104TIP3    H239270   2.489   7.592   0.559  0.6566 -0.3398  0.2963
13105TIP3   OH239271   6.702   6.914   4.811  0.4380  0.1748  0.4994
13105TIP3    H139272   6.719   6.821   4.798 -0.4411  0.0896 -0.0901
13105TIP3    H239273   6.639   6.917   4.883 -1.9540  0.0986 -1.4672
13106TIP3   OH239274   5.238   0.565   5.532  0.3015 -0.4829  0.5436
13106TIP3    H139275   5.315   0.553   5.476  1.0261  2.2017  0.8151
13106TIP3    H239276   5.224   0.660   5.533 -1.9810 -0.7613  1.9060
13107TIP3   OH239277   1.339   0.412   3.873 -0.3827 -0.0940 -0.0218
13107TIP3    H139278   1.413   0.433   3.929 -0.1601 -2.7961  0.8029
13107TIP3    H239279   1.363   0.331   3.828 -1.9995  0.0805 -1.3340
13108TIP3   OH239280   3.207   1.681   0.241 -0.0630  0.0297  0.1504
13108TIP3    H139281   3.253   1.765   0.245  0.6760 -0.3873  2.5366
13108TIP3    H239282   3.120   1.700   0.277 -1.0631  0.3622 -2.2891
13109TIP3   OH239283   0.776   4.512   1.772  0.4290 -0.0831 -0.1095
13109TIP3    H139284   0.810   4.508   1.861 -0.4543  1.6182  0.3628
13109TIP3    H239285   0.725   4.432   1.761  0.2330 -0.1285  1.0524
13110TIP3   OH239286   2.285   3.030   2.373 -0.4425 -0.5227 -0.5081
13110TIP3    H139287   2.379   3.020   2.354 -0.6552 -0.3869 -1.6965
13110TIP3    H239288   2.278   3.118   2.411  0.1911 -1.3456  1.6278
13111TIP3   OH239289   6.267   7.543   5.622  0.3093 -0.4415  0.0809
13111TIP3    H139290   6.199   7.605   5.593  1.0599 -0.0287 -0.8486
13111TIP3    H239291   6.272   7.557   5.717 -1.8079 -1.4133  0.4030
13112TIP3   OH239292   6.737   2.839   6.130  0.1992 -0.0169 -0.1544
13112TIP3    H139293   6.657   2.792   6.106  0.7403 -0.5189 -1.0241
13112TIP3    H239294   6.800   2.770   6.150  0.5816  0.3634 -0.0353
13113TIP3   OH239295   2.190   7.419   0.121  0.3185 -0.2553  0.4233
13113TIP3    H139296   2.126   7.351   0.102  0.0847  0.0117  0.2576
13113TIP3    H239297   2.141   7.501   0.120  1.1547  0.3931 -3.0802
13114TIP3   OH239298   2.343   7.418   5.795  0.4611 -0.0699  0.0585
13114TIP3    H139299   2.403   7.476   5.841  0.8813 -1.3088  1.1392
13114TIP3    H239300   2.399   7.361   5.743  0.0191  0.9214 -1.5918
13115TIP3   OH239301   1.051   5.320   0.643 -0.1452 -0.0811 -0.1384
13115TIP3    H139302   1.009   5.406   0.643 -0.3054 -0.1586 -0.0296
13115TIP3    H239303   1.144   5.338   0.659 -0.2866  0.0195  0.6086
13116TIP3   OH239304   7.932   7.643   6.572  0.0564  0.7772 -0.3280
13116TIP3    H139305   7.932   7.680   6.660 -1.7649  0.2806 -0.0781
13116TIP3    H239306   7.978   7.560   6.581 -3.2855 -1.0998  1.0747
13117TIP3   OH239307   7.455   2.046   2.363 -0.0964  0.0252  0.2179
13117TIP3    H139308   7.415   2.061   2.277 -0.1105 -2.2507 -0.2440
13117TIP3    H239309   7.522   2.114   2.371 -1.9845  2.0465 -0.3060
13118TIP3   OH239310   7.205   1.377   4.818  0.3442  0.6121  0.1315
13118TIP3    H139311   7.205   1.287   4.784  2.2097  0.4627  0.4048
13118TIP3    H239312   7.207   1.365   4.913 -3.0497  1.0140  0.3638
13119TIP3   OH239313   0.663   2.150   0.736  0.9116 -0.2108 -0.6321
13119TIP3    H139314   0.757   2.149   0.752  0.7315 -0.8402  0.5140
13119TIP3    H239315   0.630   2.072   0.781 -0.6341  1.8621  2.1724
13120TIP3   OH239316   2.961   6.663   2.890 -0.3052  0.2291 -0.4230
13120TIP3    H139317   2.894   6.599   2.914  0.9945  0.0914  3.3923
13120TIP3    H239318   2.918   6.717   2.823 -4.3935  0.3156  1.9227
13121TIP3   OH239319   1.181   6.921   2.876 -0.5064 -0.0772  0.4517
13121TIP3    H139320   1.239   6.998   2.869 -0.2237 -0.4065 -1.0805
13121TIP3    H239321   1.109   6.951   2.931 -0.7365  1.5151 -0.6495
13122TIP3   OH239322   7.709   0.439   3.279  0.3855  0.0026  0.0507
13122TIP3    H139323   7.642   0.440   3.211 -0.5568 -1.7960  0.8739
13122TIP3    H239324   7.664   0.471   3.358  0.9590  0.3353  0.2512
13123TIP3   OH239325   2.307   3.193   5.927 -0.0124  0.0884  0.1474
13123TIP3    H139326   2.389   3.239   5.910 -0.2098  0.2227 -0.4593
13123TIP3    H239327   2.256   3.252   5.983 -0.0410  0.3717 -0.1757
13124TIP3   OH239328   8.129   7.780   5.566 -0.2078 -0.0943 -0.1120
13124TIP3    H139329   8.172   7.694   5.574  0.5253  0.0434 -2.0995
13124TIP3    H239330   8.201   7.842   5.557 -0.7712  0.5279 -0.4223
13125TIP3   OH239331   8.046   6.152   1.354  0.0518 -0.2596  0.0406
13125TIP3    H139332   7.988   6.099   1.409 -0.3613 -0.3254 -0.4507
13125TIP3    H239333   8.090   6.211   1.416  0.3069 -0.9795  0.5512
13126TIP3   OH239334   8.146   4.732   2.372  0.2369 -0.2111  0.3401
13126TIP3    H139335   8.209   4.680   2.424  0.2518 -1.2246 -0.6565
13126TIP3    H239336   8.173   4.823   2.386  1.1753 -0.5567  0.9028
13127TIP3   OH239337   7.651   3.092   3.814  1.1770  0.0856 -0.0505
13127TIP3    H139338   7.572   3.142   3.837  1.1441  0.7951 -1.5442
13127TIP3    H239339   7.713   3.159   3.784  1.2127 -0.7232 -1.8719
13128TIP3   OH239340   1.383   4.257   4.775 -0.1289  0.0133  0.2676
13128TIP3    H139341   1.407   4.215   4.858 -0.2325  0.7162  0.6594
13128TIP3    H239342   1.302   4.212   4.749  1.3615 -2.1742 -0.9185
13129TIP3   OH239343   5.843   6.428   1.984  0.0606 -0.4052  0.1390
13129TIP3    H139344   5.784   6.390   1.919  0.3036  0.2608 -0.4937
13129TIP3    H239345   5.836   6.371   2.060 -0.5978 -0.9286 -0.3051
13130TIP3   OH239346   5.297   1.412   6.143 -0.4128  0.6318  0.7714
13130TIP3    H139347   5.320   1.502   6.120 -0.4599  0.9030  1.7514
13130TIP3    H239348   5.237   1.420   6.217 -1.2073 -0.1827  0.2295
13131TIP3   OH239349   5.269   3.144   6.308  0.4335 -0.2622 -0.0370
13131TIP3    H139350   5.311   3.210   6.362 -0.5988  0.8391 -0.5304
13131TIP3    H239351   5.340   3.087   6.279  1.3813  0.7690  0.2209
13132TIP3   OH239352   2.622   7.728   4.555  0.1300  0.3651  0.1543
13132TIP3    H139353   2.556   7.709   4.622 -0.8037  1.0339 -0.5438
13132TIP3    H239354   2.613   7.822   4.538  1.9659  0.6897  0.7502
13133TIP3   OH239355   7.620   1.435   0.712  0.2418 -0.1363 -0.3292
13133TIP3    H139356   7.713   1.453   0.728  0.3771 -0.5385 -0.6594
13133TIP3    H239357   7.600   1.361   0.769 -0.3580  1.0914  1.1447
13134TIP3   OH239358   3.038   1.867   5.440  0.1668  0.1037 -0.0199
13134TIP3    H139359   2.950   1.868   5.403  0.7298  0.6069 -1.4134
13134TIP3    H239360   3.078   1.787   5.406  0.4009  0.1116  0.2268
13135TIP3   OH239361   3.467   2.022   0.963  0.0554  0.5218 -0.1206
13135TIP3    H139362   3.549   2.052   1.002 -0.0934  1.0810 -0.2353
13135TIP3    H239363   3.411   2.001   1.038 -0.0739  1.1675 -0.0359
13136TIP3   OH239364   6.632   3.586   6.242 -0.2152 -0.0993 -0.3099
13136TIP3    H139365   6.559   3.634   6.202  0.9162  0.7757 -1.3707
13136TIP3    H239366   6.710   3.616   6.195  1.0230 -0.0254  1.6670
13137TIP3   OH239367   1.771   4.284   0.376 -0.5171  0.2695 -0.2176
13137TIP3    H139368   1.692   4.279   0.430 -1.1569 -1.1152 -1.2124
13137TIP3    H239369   1.785   4.378   0.364 -0.4312  0.6313  2.1667
13138TIP3   OH239370   1.020   6.365   6.665 -0.1553 -0.3685  0.2565
13138TIP3    H139371   1.019   6.435   6.730  2.0466 -0.3497  0.3418
13138TIP3    H239372   1.090   6.306   6.694 -0.8706 -1.7378 -0.7017
13139TIP3   OH239373   1.806   0.104   2.900 -0.1833  0.2436  0.0643
13139TIP3    H139374   1.869   0.082   2.969 -1.0209  0.8947  1.0682
13139TIP3    H239375   1.791   0.021   2.854 -0.8128 -0.6014  1.6992
13140TIP3   OH239376   7.630   3.605   2.636 -0.0351 -0.4712  0.1541
13140TIP3    H139377   7.709   3.583   2.686 -0.2191 -2.9186 -0.4919
13140TIP3    H239378   7.579   3.525   2.637 -1.8487  0.6215 -0.6991
13141TIP3   OH239379   6.952   0.448   6.327  0.3995 -0.7934 -0.0525
13141TIP3    H139380   7.010   0.395   6.273  0.8650  0.0870 -0.4499
13141TIP3    H239381   7.004   0.470   6.404  1.1451  1.1482 -1.0375
13142TIP3   OH239382   2.829   7.574   0.304  0.1146  0.1883  0.4503
13142TIP3    H139383   2.757   7.586   0.366 -2.0682  1.6158 -2.1200
13142TIP3    H239384   2.826   7.481   0.282 -1.4829  0.3335 -0.1014
13143TIP3   OH239385   1.478   1.171   0.362 -0.3741 -0.3796 -0.2641
13143TIP3    H139386   1.392   1.205   0.389 -0.0955 -0.9571  1.4513
13143TIP3    H239387   1.496   1.217   0.279 -1.9572  0.3594 -0.2498
13144TIP3   OH239388   6.876   1.762   1.757  0.0072  0.1905 -0.4565
13144TIP3    H139389   6.853   1.784   1.848  1.5226 -2.4684  0.7033
13144TIP3    H239390   6.928   1.837   1.727  1.5868  0.1114  1.7950
13145TIP3   OH239391   6.118   1.408   3.063 -0.1072  0.2584 -0.0386
13145TIP3    H139392   6.074   1.376   2.984 -0.6451  0.3783  0.2051
13145TIP3    H239393   6.093   1.500   3.068  1.4143  0.7388 -0.7201
13146TIP3   OH239394   3.126   2.290   0.026 -0.2380  0.0821 -0.1214
13146TIP3    H139395   3.051   2.285  -0.033 -3.3199  0.1986  3.4122
13146TIP3    H239396   3.139   2.383   0.042  1.4138  0.1308 -1.3916
13147TIP3   OH239397   8.050   3.309   2.221  0.1179 -0.1290  0.2041
13147TIP3    H139398   7.969   3.291   2.173  0.1506  0.4258 -0.0641
13147TIP3    H239399   8.118   3.263   2.172  0.0063 -0.3766  0.2793
13148TIP3   OH239400   0.379   7.669   3.289 -0.1602 -0.5542  0.2798
13148TIP3    H139401   0.353   7.760   3.272  0.7761 -0.1262  1.0771
13148TIP3    H239402   0.323   7.641   3.361  2.8510  1.1073  3.5822
13149TIP3   OH239403   4.239   6.387   5.129 -0.8202 -0.2760  0.1231
13149TIP3    H139404   4.242   6.400   5.224  0.1735 -1.3367  0.2499
13149TIP3    H239405   4.226   6.293   5.118  1.4513 -0.5305 -0.7888
13150TIP3   OH239406   5.286   6.449   3.879 -0.6843 -0.5120 -0.0471
13150TIP3    H139407   5.208   6.494   3.845 -0.6062  0.4227  0.9565
13150TIP3    H239408   5.252   6.391   3.947 -0.5590 -0.5282  0.0003
13151TIP3   OH239409   2.142   3.554   5.926 -0.2393  0.1155 -0.8008
13151TIP3    H139410   2.158   3.507   5.844 -0.4852  0.9181 -1.3224
13151TIP3    H239411   2.047   3.552   5.936 -0.1658 -0.6459 -0.1209
13152TIP3   OH239412   6.451   1.563   4.843  0.3468 -0.5487  0.0999
13152TIP3    H139413   6.405   1.615   4.777 -0.5477 -1.6007 -0.1317
13152TIP3    H239414   6.542   1.561   4.814  0.4987  1.1891  0.3179
13153TIP3   OH239415   2.501   3.196   4.207  0.2928 -0.6592  0.3864
13153TIP3    H139416   2.415   3.234   4.226 -0.0979 -1.5922  0.5071
13153TIP3    H239417   2.497   3.107   4.242  1.0111 -1.0021 -0.3668
13154TIP3   OH239418   7.898   4.524   1.835 -0.8648 -0.1055 -0.2194
13154TIP3    H139419   7.919   4.436   1.805 -0.2050 -0.5457  1.4679
13154TIP3    H239420   7.969   4.548   1.895 -0.9913  1.6103 -0.6857
13155TIP3   OH239421   0.478   3.061   5.271  0.3901  0.2085  0.4542
13155TIP3    H139422   0.403   3.060   5.330  2.0873 -0.5637  2.7206
13155TIP3    H239423   0.495   3.154   5.255 -0.0490  0.4300  1.2452
13156TIP3   OH239424   7.034   5.358   2.761 -0.3448 -0.0306  0.3349
13156TIP3    H139425   7.120   5.364   2.802 -1.1572  0.1741  2.1058
13156TIP3    H239426   7.010   5.449   2.742 -0.2665 -0.0692  0.0490
13157TIP3   OH239427   5.317   1.821   6.336 -0.4207  0.2622 -0.4075
13157TIP3    H139428   5.338   1.900   6.384  0.5119  0.6613 -1.4213
13157TIP3    H239429   5.222   1.814   6.340 -0.4321  0.8941  0.5173
13158TIP3   OH239430   6.224   4.721   3.165 -0.5813  0.2232 -0.4779
13158TIP3    H139431   6.282   4.645   3.163 -1.2984 -0.3413 -0.3919
13158TIP3    H239432   6.140   4.688   3.132 -0.5129  1.3242 -1.8652
13159TIP3   OH239433   1.262   5.116   3.767 -0.5156 -0.2442 -0.2370
13159TIP3    H139434   1.317   5.083   3.838 -0.8731  0.3724  0.3404
13159TIP3    H239435   1.273   5.211   3.771 -2.6526  0.0191  0.7910
13160TIP3   OH239436   7.570   3.569   3.567 -0.2387 -0.3394 -0.4485
13160TIP3    H139437   7.560   3.611   3.652  0.2757 -3.6453  1.4428
13160TIP3    H239438   7.486   3.525   3.552  0.1316 -0.8853 -0.9596
13161TIP3   OH239439   8.073   4.637   2.111 -0.0698  0.3832 -0.1234
13161TIP3    H139440   8.090   4.544   2.126  3.5611  0.6030 -2.0265
13161TIP3    H239441   8.093   4.678   2.195  3.8030 -0.1042 -0.6307
13162TIP3   OH239442   0.993   4.984   4.811  0.2828 -0.6368 -0.5062
13162TIP3    H139443   1.075   4.962   4.856 -0.4231 -1.1022  0.5933
13162TIP3    H239444   0.925   4.942   4.863 -0.6827 -0.0974 -1.2938
13163TIP3   OH239445   0.028   6.539   0.719 -0.1478 -0.5077 -0.0407
13163TIP3    H139446  -0.056   6.540   0.765 -1.5695 -1.8149 -2.4002
13163TIP3    H239447   0.034   6.451   0.682  2.2710 -0.4245  0.0036
13164TIP3   OH239448   1.917   5.886   3.040 -0.1504 -0.2995  0.0923
13164TIP3    H139449   2.000   5.857   3.079 -0.3065  1.0226  1.5427
13164TIP3    H239450   1.859   5.811   3.048  0.3010 -0.5737  1.0423
13165TIP3   OH239451   2.666   4.247   0.921  0.6159  0.0087 -0.1337
13165TIP3    H139452   2.614   4.323   0.949 -1.5628 -1.3363 -0.2871
13165TIP3    H239453   2.734   4.239   0.988 -0.1571  1.0890  0.8370
13166TIP3   OH239454   2.801   5.848   3.344 -0.4365 -0.1909  0.1272
13166TIP3    H139455   2.862   5.842   3.417 -0.1017 -0.0504 -0.1368
13166TIP3    H239456   2.714   5.844   3.385 -0.2813 -2.1923  0.3530
13167TIP3   OH239457   1.088   7.265   3.939  0.8431  0.7147 -0.1973
13167TIP3    H139458   1.005   7.237   3.978 -0.6075  3.2324 -1.1983
13167TIP3    H239459   1.152   7.259   4.010 -0.2225 -1.0530  0.6624
13168TIP3   OH239460   3.906   1.656   2.680 -0.0041  0.0689 -0.5949
13168TIP3    H139461   3.829   1.616   2.720 -0.0581  0.0474 -0.7198
13168TIP3    H239462   3.883   1.666   2.587 -0.4582  1.5016 -0.3573
13169TIP3   OH239463   5.804   4.389   4.921 -0.3238 -0.2592  0.4075
13169TIP3    H139464   5.742   4.323   4.952  1.4173 -1.2928  1.8704
13169TIP3    H239465   5.792   4.392   4.826 -3.0125  0.0570  0.6913
13170TIP3   OH239466   3.178   7.039   2.954  0.1799 -0.0615 -0.1129
13170TIP3    H139467   3.223   7.118   2.985 -0.3030 -0.1573  0.8930
13170TIP3    H239468   3.115   7.071   2.890  0.1667  0.3428  0.0975
13171TIP3   OH239469   6.201   2.343   6.590 -0.7361 -0.0345  0.0164
13171TIP3    H139470   6.259   2.398   6.643 -1.4269 -1.8445  2.8340
13171TIP3    H239471   6.260   2.302   6.526  0.1241  2.2423 -0.7432
13172TIP3   OH239472   0.870   0.473   6.341 -0.2674  0.2484  0.1582
13172TIP3    H139473   0.805   0.423   6.292  0.3967  1.9517 -2.7166
13172TIP3    H239474   0.940   0.490   6.277  2.0617  0.2497  2.5367
13173TIP3   OH239475   5.306   0.135   2.310 -0.7787  1.0721 -0.0102
13173TIP3    H139476   5.374   0.156   2.247 -0.1798 -0.5076  0.0699
13173TIP3    H239477   5.309   0.040   2.319  1.2740  1.2892  4.6077
13174TIP3   OH239478   1.966   1.716   6.576 -0.4516 -0.0826  0.0460
13174TIP3    H139479   1.979   1.803   6.537 -2.9281  1.1182  1.6158
13174TIP3    H239480   1.994   1.655   6.508 -0.2628  1.9109 -1.7880
13175TIP3   OH239481   1.907   6.746   3.109 -0.3136  0.2017  0.5145
13175TIP3    H139482   1.861   6.825   3.080 -1.8694 -0.5891  0.7061
13175TIP3    H239483   1.939   6.706   3.028  0.8118  1.1996  0.4461
13176TIP3   OH239484   5.956   0.427   1.083  0.3077 -0.3423 -0.4002
13176TIP3    H139485   5.908   0.432   1.001 -0.7265  1.2811  0.2750
13176TIP3    H239486   6.005   0.344   1.077  0.7414  0.0313 -2.8849
13177TIP3   OH239487   0.623   0.695   0.409 -0.4385 -0.3342  1.1927
13177TIP3    H139488   0.677   0.616   0.412  0.1711  0.0463  0.5977
13177TIP3    H239489   0.542   0.672   0.455 -0.0701 -1.1494  1.4321
13178TIP3   OH239490   1.886   3.289   3.203  0.0219 -0.0265  0.0423
13178TIP3    H139491   1.904   3.234   3.279  0.4738 -1.1092 -0.8424
13178TIP3    H239492   1.792   3.279   3.188 -0.1248  0.4057  0.5962
13179TIP3   OH239493   2.478   5.785   0.501 -0.3574  0.5135  0.5808
13179TIP3    H139494   2.511   5.811   0.415 -0.5944  3.7948  1.3361
13179TIP3    H239495   2.400   5.733   0.481 -0.9101  1.9142 -1.2295
13180TIP3   OH239496   3.970   5.252   4.173 -0.0939 -0.0130  0.7693
13180TIP3    H139497   3.960   5.259   4.268  1.4186  0.5901  0.9174
13180TIP3    H239498   3.979   5.343   4.143 -1.9517 -0.0861 -0.1622
13181TIP3   OH239499   1.456   5.024   1.227  0.4956 -0.0821 -0.5884
13181TIP3    H139500   1.385   4.987   1.280  0.8457 -1.2028 -0.8688
13181TIP3    H239501   1.420   5.029   1.139  1.0166 -1.4320 -0.8942
13182TIP3   OH239502   2.799   0.282   5.671 -0.3399 -0.4626 -0.2124
13182TIP3    H139503   2.836   0.244   5.750 -0.6191  1.1460  0.7332
13182TIP3    H239504   2.865   0.265   5.603  0.7172 -0.3285  0.7527
13183TIP3   OH239505   7.853   5.076   4.437 -0.2295 -0.1006  0.0694
13183TIP3    H139506   7.921   5.010   4.419 -0.6258 -0.2069 -1.1713
13183TIP3    H239507   7.774   5.025   4.452 -0.2042  0.0496  0.7328
13184TIP3   OH239508   0.830   0.984   1.283 -0.3271 -0.5967  0.5217
13184TIP3    H139509   0.827   1.062   1.228 -0.5917 -0.7956  0.2519
13184TIP3    H239510   0.916   0.946   1.266 -0.8721 -1.3568 -0.7426
13185TIP3   OH239511   7.570   0.108   1.174  0.4372 -0.0708  0.3345
13185TIP3    H139512   7.598   0.021   1.203  2.7122  1.0544  1.8911
13185TIP3    H239513   7.639   0.136   1.113 -1.1481  0.0306 -1.4984
13186TIP3   OH239514   6.060   5.485   4.968 -0.3383 -0.3530  0.4219
13186TIP3    H139515   5.998   5.415   4.946 -0.3739 -0.8396  1.9402
13186TIP3    H239516   6.015   5.537   5.035 -0.2310  1.0308 -0.5346
13187TIP3   OH239517   2.497   1.432   5.088  0.1360  0.3236  0.3043
13187TIP3    H139518   2.516   1.491   5.161  1.3878 -0.1137  0.3559
13187TIP3    H239519   2.535   1.475   5.012 -3.3014  2.0147 -0.6554
13188TIP3   OH239520   3.614   5.230   1.195 -0.0807  0.0340  0.3289
13188TIP3    H139521   3.562   5.247   1.273  1.8858 -1.2546  1.9972
13188TIP3    H239522   3.699   5.269   1.213  0.6173 -0.8588 -0.9037
13189TIP3   OH239523   6.236   5.036   1.359  0.2920  0.3453  0.3526
13189TIP3    H139524   6.175   5.107   1.339  0.3494  1.0018  2.2906
13189TIP3    H239525   6.297   5.035   1.285 -1.0391  0.7877 -0.7994
13190TIP3   OH239526   5.796   3.984   6.646 -0.2451 -0.3181  0.4843
13190TIP3    H139527   5.821   4.062   6.595  0.9947 -0.4418  0.8871
13190TIP3    H239528   5.818   3.910   6.589 -0.0392 -0.4212  0.7003
13191TIP3   OH239529   7.713   3.213   1.752 -0.1709  0.3705 -0.7195
13191TIP3    H139530   7.693   3.296   1.795  1.0850 -0.2064  1.1564
13191TIP3    H239531   7.628   3.175   1.731 -0.7636  2.1002 -1.6158
13192TIP3   OH239532   6.377   6.863   2.007  0.2791  0.1979  0.6303
13192TIP3    H139533   6.285   6.839   2.020  0.1032  0.0560 -0.6855
13192TIP3    H239534   6.391   6.853   1.913  1.6111  0.3540  0.7876
13193TIP3   OH239535   2.175   3.263   1.957 -0.5772  0.1394 -0.0047
13193TIP3    H139536   2.128   3.335   1.914 -1.5515 -0.2494  0.3765
13193TIP3    H239537   2.158   3.187   1.901 -0.7776 -0.0988  0.3804
13194TIP3   OH239538   8.240   5.286   1.473  0.4460 -0.1723 -0.8809
13194TIP3    H139539   8.285   5.339   1.539  0.8266  0.2746 -1.4875
13194TIP3    H239540   8.153   5.325   1.466 -0.0049 -0.9377  0.1796
13195TIP3   OH239541   3.780   0.756   6.570 -0.1565  0.1452 -0.0556
13195TIP3    H139542   3.869   0.720   6.574 -1.1549 -2.3988  0.9841
13195TIP3    H239543   3.734   0.700   6.507 -1.4233  0.4922  0.5248
13196TIP3   OH239544   0.908   4.498   0.998  0.2033  0.3570  0.0631
13196TIP3    H139545   0.908   4.579   1.049 -1.9869  0.3288  0.1740
13196TIP3    H239546   0.818   4.467   1.001  0.7294 -1.4366 -1.0375
13197TIP3   OH239547   0.725   3.124   5.597  0.5932  0.0584 -0.2154
13197TIP3    H139548   0.673   3.205   5.597 -0.0248 -0.3277  0.4486
13197TIP3    H239549   0.660   3.054   5.602  1.1795 -0.4061  1.7358
13198TIP3   OH239550   4.988   2.329   6.599  0.1336 -0.1275 -0.4944
13198TIP3    H139551   4.969   2.304   6.509  0.9808  2.4319 -1.4726
13198TIP3    H239552   5.067   2.382   6.593  0.8455 -0.7502  1.9277
13199TIP3   OH239553   6.804   2.988   4.447 -0.8232 -1.0896  0.1822
13199TIP3    H139554   6.791   3.038   4.367  0.4828 -1.0621 -0.0296
13199TIP3    H239555   6.873   2.924   4.426  1.5279  0.6446  1.9644
13200TIP3   OH239556   4.556   6.617   1.684 -0.3837 -0.6290  0.4161
13200TIP3    H139557   4.571   6.702   1.644 -0.5088 -0.9549 -0.3432
13200TIP3    H239558   4.556   6.634   1.778 -1.7351  0.4197  0.2459
13201TIP3   OH239559   4.280   3.613   4.715 -0.1732  0.4325  0.6822
13201TIP3    H139560   4.255   3.593   4.624 -1.3359  1.5366  0.7280
13201TIP3    H239561   4.369   3.579   4.723 -0.7845 -1.5122 -0.2542
13202TIP3   OH239562   4.632   3.763   5.344 -0.0119 -0.0291  0.7293
13202TIP3    H139563   4.646   3.704   5.417  1.4889  0.5176  0.9198
13202TIP3    H239564   4.717   3.804   5.330 -0.5022  0.5569 -0.7279
13203TIP3   OH239565   0.718   6.369   5.402  0.0883 -0.0057 -0.0949
13203TIP3    H139566   0.722   6.274   5.414  0.8641 -0.0116 -0.3016
13203TIP3    H239567   0.700   6.380   5.308  0.2423  0.0492 -0.1184
13204TIP3   OH239568   0.338   7.573   1.592  0.1017 -0.1951 -0.3437
13204TIP3    H139569   0.263   7.631   1.581 -0.8129 -1.7783 -3.8635
13204TIP3    H239570   0.354   7.573   1.687 -1.2106  3.9013  0.0975
13205TIP3   OH239571   4.441   2.247   2.642 -0.0349  0.2690  0.5230
13205TIP3    H139572   4.350   2.268   2.622 -0.7579 -2.0430  1.1093
13205TIP3    H239573   4.444   2.242   2.738 -0.0639 -2.4290  0.4690
13206TIP3   OH239574   7.012   2.449   6.479 -0.7623  0.1904  0.0047
13206TIP3    H139575   6.980   2.381   6.420 -0.5251 -0.4012  0.5619
13206TIP3    H239576   7.106   2.453   6.463 -0.5855 -0.4726  0.8599
13207TIP3   OH239577   0.813   0.091  -0.002  0.1946 -0.2303  0.2025
13207TIP3    H139578   0.850   0.029  -0.065 -0.1046  1.0684 -1.3062
13207TIP3    H239579   0.868   0.081   0.076  0.6891 -1.7507 -0.2965
13208TIP3   OH239580   7.702   2.110   6.738 -0.3847 -0.0389 -0.4043
13208TIP3    H139581   7.797   2.114   6.726  0.1333 -3.6651  1.1810
13208TIP3    H239582   7.690   2.127   6.832 -1.5581  1.8704 -0.8363
13209TIP3   OH239583   1.364   5.907   5.403  0.5500  0.5767 -0.7751
13209TIP3    H139584   1.378   6.001   5.388  0.5673  0.8421  0.7102
13209TIP3    H239585   1.394   5.893   5.493 -0.2760 -0.6763 -0.6765
13210TIP3   OH239586   4.118   1.286   1.432  0.2165  0.2910  0.6202
13210TIP3    H139587   4.190   1.242   1.477 -0.5144 -0.4288  1.1235
13210TIP3    H239588   4.062   1.318   1.503 -1.2542 -1.3619  0.2721
13211TIP3   OH239589   3.786   7.277   3.846  0.1355  0.2129 -0.0062
13211TIP3    H139590   3.791   7.284   3.942 -1.7104 -1.0129  0.2366
13211TIP3    H239591   3.876   7.267   3.818  0.7808  1.3095  1.5275
13212TIP3   OH239592   6.904   1.872   5.268 -0.2495 -0.0097  0.3541
13212TIP3    H139593   6.912   1.823   5.350 -0.0683  0.2736  0.5096
13212TIP3    H239594   6.984   1.924   5.264  0.0702 -0.5438 -0.3548
13213TIP3   OH239595   8.214   4.206   5.554 -0.0457  0.3237 -0.1607
13213TIP3    H139596   8.233   4.297   5.577 -1.8349  0.5893  0.4340
13213TIP3    H239597   8.236   4.199   5.461  1.7326  0.8684  0.1885
13214TIP3   OH239598   7.715   2.003   1.629 -0.1486  0.7633 -0.1708
13214TIP3    H139599   7.731   1.931   1.690 -0.1608  1.6275  0.8900
13214TIP3    H239600   7.637   2.047   1.664  1.0180  2.4848  0.3785
13215TIP3   OH239601   7.206   3.142   0.224 -0.2862 -0.1492  0.4822
13215TIP3    H139602   7.241   3.204   0.160 -0.6222 -0.8925 -0.4375
13215TIP3    H239603   7.240   3.057   0.197 -1.3108 -0.6224  0.6425
13216TIP3   OH239604   6.399   3.054   2.746  0.1741 -0.2148 -0.8530
13216TIP3    H139605   6.410   3.146   2.770 -0.8378  0.1507 -1.6828
13216TIP3    H239606   6.372   3.011   2.827  2.9556 -0.2940  0.1394
13217TIP3   OH239607   2.964   3.553   1.135 -0.1754  0.3567 -0.5880
13217TIP3    H139608   3.004   3.601   1.208  0.0314  1.6252 -1.5007
13217TIP3    H239609   2.917   3.481   1.177  1.4701 -0.0707  0.6650
13218TIP3   OH239610   6.203   1.660   5.777  0.9518  0.1157 -0.1967
13218TIP3    H139611   6.199   1.616   5.862  0.0346  0.4177 -0.0682
13218TIP3    H239612   6.267   1.610   5.727  1.3667 -0.1776  0.6109
13219TIP3   OH239613   8.292   1.027   2.082 -0.0912  0.5297 -0.0833
13219TIP3    H139614   8.280   1.000   2.173 -0.2275  1.0476  0.0574
13219TIP3    H239615   8.205   1.018   2.043  0.1258 -0.4152 -0.3668
13220TIP3   OH239616   6.651   0.587   5.745 -0.0766 -0.2570  0.1708
13220TIP3    H139617   6.632   0.658   5.683  0.5658 -0.1179  0.1267
13220TIP3    H239618   6.614   0.617   5.828  1.3397  0.7480  0.4847
13221TIP3   OH239619   6.514   6.035   1.833 -0.8598 -0.2797  0.1996
13221TIP3    H139620   6.502   6.066   1.744  0.4514  0.7527  0.3598
13221TIP3    H239621   6.608   6.035   1.847 -1.0430 -0.2825  1.6339
13222TIP3   OH239622   2.310   4.943   4.661  0.4218  0.2598  0.0182
13222TIP3    H139623   2.238   5.002   4.686  0.0286  0.3115 -1.1692
13222TIP3    H239624   2.272   4.855   4.669  0.0434  0.3061 -1.0929
13223TIP3   OH239625   4.239   0.743   0.599 -0.1531 -0.4717 -0.1818
13223TIP3    H139626   4.216   0.733   0.691  0.2167 -1.0130 -0.1459
13223TIP3    H239627   4.194   0.670   0.555 -0.6484  0.0085 -0.4913
13224TIP3   OH239628   6.496   4.233   5.620 -0.0795 -0.0725  0.1019
13224TIP3    H139629   6.553   4.163   5.650  0.1825 -0.4012 -1.1251
13224TIP3    H239630   6.485   4.217   5.526 -0.3462  1.2815 -0.1189
13225TIP3   OH239631   0.450   4.160   3.307  0.1967 -0.6585 -0.2204
13225TIP3    H139632   0.531   4.122   3.273  0.6135 -2.0358  2.0817
13225TIP3    H239633   0.478   4.224   3.372 -0.5846  0.5492 -1.0205
13226TIP3   OH239634   3.258   7.462   0.931 -0.1691 -0.5464  0.2385
13226TIP3    H139635   3.231   7.551   0.906  0.5031 -0.4083 -0.0194
13226TIP3    H239636   3.328   7.476   0.994  1.2456 -0.8730 -1.2113
13227TIP3   OH239637   3.081   3.452   6.255 -0.3728 -0.3696  0.1240
13227TIP3    H139638   2.997   3.486   6.285  0.1108  0.0710  1.0377
13227TIP3    H239639   3.116   3.404   6.330 -0.2976 -1.5242 -0.6126
13228TIP3   OH239640   8.004   4.396   4.748 -0.2463 -0.1127  0.2601
13228TIP3    H139641   7.926   4.344   4.766  0.4115 -1.2317  0.0192
13228TIP3    H239642   8.031   4.370   4.660  0.1839  0.5438  0.1834
13229TIP3   OH239643   3.758   6.943   4.662  0.0982 -0.3216  0.0323
13229TIP3    H139644   3.828   6.990   4.706  1.4149 -0.6769 -1.5907
13229TIP3    H239645   3.679   6.969   4.710  1.3832 -0.5764  2.4575
13230TIP3   OH239646   0.947   4.109   2.426  0.3982  0.3805  0.0854
13230TIP3    H139647   0.870   4.143   2.381  0.9810  2.0761  0.3185
13230TIP3    H239648   0.998   4.067   2.356 -0.6580 -0.6824 -0.0835
13231TIP3   OH239649   0.673   2.747   0.998  0.0958 -0.1590 -0.1800
13231TIP3    H139650   0.658   2.728   1.091  3.5452  0.0773  0.5726
13231TIP3    H239651   0.661   2.842   0.991 -1.2219 -0.3184 -0.2493
13232TIP3   OH239652   0.388   1.470   0.264 -0.1997 -0.3474 -0.3804
13232TIP3    H139653   0.469   1.520   0.274  0.7264 -1.3602 -2.2264
13232TIP3    H239654   0.399   1.394   0.321 -1.1390  0.9319  1.5865
13233TIP3   OH239655   6.561   3.800   1.262 -0.8498  0.0088 -0.1350
13233TIP3    H139656   6.470   3.805   1.292 -1.1910 -3.5293 -0.0780
13233TIP3    H239657   6.553   3.778   1.169 -0.1372 -1.0718  0.0343
13234TIP3   OH239658   4.592   2.208   4.835 -0.2310 -0.8931  0.0407
13234TIP3    H139659   4.552   2.169   4.912  0.0077 -0.7390  0.2423
13234TIP3    H239660   4.525   2.267   4.801  0.0343 -0.1879  0.7177
13235TIP3   OH239661   7.665   5.340   0.058  0.3004  0.1072 -0.2754
13235TIP3    H139662   7.649   5.287  -0.021  2.1589 -0.1334 -0.5226
13235TIP3    H239663   7.669   5.276   0.129  1.0122  0.0771 -0.3434
13236TIP3   OH239664   2.190   5.374   0.013 -0.1972 -0.6152 -0.1250
13236TIP3    H139665   2.252   5.425  -0.038  0.7621  0.2898  1.8032
13236TIP3    H239666   2.245   5.321   0.071 -1.1269  0.2432  1.6572
13237TIP3   OH239667   1.374   3.566   5.953  0.2093  0.0851 -0.2529
13237TIP3    H139668   1.402   3.652   5.923  0.2335  0.0751 -0.2593
13237TIP3    H239669   1.280   3.563   5.934 -0.3855  1.1417  2.1558
13238TIP3   OH239670   2.862   1.592   4.221  0.2651  0.0194 -0.2635
13238TIP3    H139671   2.917   1.608   4.144  0.8317 -0.0278  0.1226
13238TIP3    H239672   2.925   1.579   4.292 -0.1984 -1.5501 -0.0903
13239TIP3   OH239673   0.318   3.638   4.785  0.0778  0.7422  0.0630
13239TIP3    H139674   0.294   3.716   4.734  0.3210  2.1298  1.9564
13239TIP3    H239675   0.240   3.582   4.781  0.9457 -0.4786 -3.9109
13240TIP3   OH239676   4.922   7.153   4.657 -0.4458 -0.4142 -0.1932
13240TIP3    H139677   5.004   7.124   4.696 -1.1804 -2.3834 -0.0010
13240TIP3    H239678   4.855   7.131   4.722 -1.2898 -0.3894 -1.0226
13241TIP3   OH239679   4.339   5.646   6.044  0.3383  0.0755  0.2009
13241TIP3    H139680   4.315   5.738   6.053 -0.0289 -0.0837  1.0133
13241TIP3    H239681   4.434   5.646   6.039  0.5185  0.3684  2.5783
13242TIP3   OH239682   3.089   5.124   3.700 -0.5348  0.5023  0.3365
13242TIP3    H139683   3.010   5.175   3.718 -2.6387 -1.8492 -1.4360
13242TIP3    H239684   3.084   5.106   3.606  1.2555 -1.1330  0.5023
13243TIP3   OH239685   1.953   4.714   5.061  0.7093  0.0934  0.4232
13243TIP3    H139686   1.901   4.794   5.067 -2.9656 -2.0173  0.1350
13243TIP3    H239687   1.955   4.680   5.150 -0.1504 -0.7969  0.1190
13244TIP3   OH239688   3.012   0.332   4.112  0.3002  0.1972 -0.1392
13244TIP3    H139689   3.023   0.243   4.079 -0.2239  0.1573 -0.2217
13244TIP3    H239690   2.954   0.323   4.187  0.3776  0.4512 -0.0468
13245TIP3   OH239691   3.254   5.868   1.235 -0.3000 -0.4915 -0.6384
13245TIP3    H139692   3.202   5.923   1.292  0.5973 -0.6130  0.3387
13245TIP3    H239693   3.191   5.808   1.194 -1.3378  1.4328 -2.0054
13246TIP3   OH239694   3.558   5.592   4.350  0.1940 -0.3682  0.1952
13246TIP3    H139695   3.638   5.632   4.318 -1.2779  1.4590 -1.4083
13246TIP3    H239696   3.582   5.555   4.435  2.6252  0.4166 -0.0871
13247TIP3   OH239697   1.435   6.204   4.816  0.1016  0.2580  0.0239
13247TIP3    H139698   1.474   6.182   4.901  2.0242 -0.0317 -0.8796
13247TIP3    H239699   1.428   6.120   4.770 -0.0111  0.5341 -0.4743
13248TIP3   OH239700   8.305   4.817   2.097  0.0063  0.1337 -0.1508
13248TIP3    H139701   8.254   4.736   2.100 -0.2869  0.3390  0.6774
13248TIP3    H239702   8.243   4.883   2.064  0.3395 -0.0400 -1.1474
13249TIP3   OH239703   2.195   4.901   6.688 -0.1301  0.3778  0.3683
13249TIP3    H139704   2.180   4.844   6.764 -0.4466  0.8131  0.6419
13249TIP3    H239705   2.120   4.884   6.631 -0.4642  0.8357  0.6564
13250TIP3   OH239706   1.419   4.069   4.190  0.0710 -0.3495 -0.3755
13250TIP3    H139707   1.340   4.121   4.173 -0.1314 -1.0576 -1.8171
13250TIP3    H239708   1.491   4.130   4.180 -0.2794  0.4770  1.6641
13251TIP3   OH239709   3.440   4.895   4.537 -0.0044  0.0039 -0.4652
13251TIP3    H139710   3.346   4.896   4.519  0.0166 -0.0037 -0.5767
13251TIP3    H239711   3.454   4.814   4.587 -0.2867  0.7266  0.8241
13252TIP3   OH239712   8.160   1.337   3.885  0.3487  0.5703 -0.4649
13252TIP3    H139713   8.118   1.282   3.818 -0.4121 -0.9454  1.1850
13252TIP3    H239714   8.250   1.347   3.855  0.6515 -2.0193 -0.6038
13253TIP3   OH239715   2.489   2.033   3.545  0.1443 -0.0466  0.0416
13253TIP3    H139716   2.450   2.085   3.475  1.5912  0.7100 -0.2429
13253TIP3    H239717   2.559   1.984   3.503 -0.6475 -1.6351  0.4809
13254TIP3   OH239718   2.538   1.689   2.355  0.1190  0.4576 -0.5519
13254TIP3    H139719   2.570   1.668   2.443 -0.3994  2.6381  0.2175
13254TIP3    H239720   2.526   1.784   2.356  0.9907  0.6637 -3.3016
13255TIP3   OH239721   1.625   1.964   5.625  0.1482 -0.6464  0.2274
13255TIP3    H139722   1.578   2.020   5.562 -0.1270  0.3895  1.3195
13255TIP3    H239723   1.713   1.957   5.590  0.3929  1.0837  0.4097
13256TIP3   OH239724   7.159   4.894   0.074 -0.1554 -0.4016  0.0604
13256TIP3    H139725   7.086   4.834   0.063 -0.2169 -0.3530  0.2050
13256TIP3    H239726   7.217   4.850   0.136  0.5498 -1.0127 -0.9873
13257TIP3   OH239727   2.255   6.790   6.616 -0.4950 -0.7102  0.5830
13257TIP3    H139728   2.308   6.870   6.621 -0.7197 -0.1792 -2.8178
13257TIP3    H239729   2.314   6.721   6.645  1.0151  0.2656  0.0114
13258TIP3   OH239730   3.383   6.685   0.771  0.3018  0.3952 -0.3711
13258TIP3    H139731   3.473   6.651   0.767 -0.5186 -1.8313 -2.1330
13258TIP3    H239732   3.354   6.688   0.679 -1.0621  2.1858  0.0630
13259TIP3   OH239733   7.762   3.785   3.359 -0.4547  0.6333  0.3637
13259TIP3    H139734   7.668   3.785   3.374 -0.5613  1.6968 -0.2199
13259TIP3    H239735   7.800   3.770   3.446 -1.1597 -1.0093  0.4112
13260TIP3   OH239736   8.232   1.009   6.560 -0.2329 -0.0118 -0.0664
13260TIP3    H139737   8.247   0.937   6.500 -1.2396 -0.9691  0.7946
13260TIP3    H239738   8.172   0.974   6.626 -0.2703  1.4253  0.7111
13261TIP3   OH239739   5.842   1.290   4.473 -0.2269 -0.6357  0.4447
13261TIP3    H139740   5.754   1.327   4.468  0.8209  1.9444 -0.4712
13261TIP3    H239741   5.853   1.266   4.565 -1.8306 -0.9286  0.5830
13262TIP3   OH239742   7.237   5.241   5.796  0.0639  0.0902  0.2541
13262TIP3    H139743   7.263   5.179   5.864  0.7080 -1.1126 -1.0378
13262TIP3    H239744   7.246   5.192   5.715  0.7668  1.9543 -0.8389
13263TIP3   OH239745   1.893   1.087   3.759  0.3525 -0.2918  0.6015
13263TIP3    H139746   1.902   1.014   3.698 -1.1250  0.3947 -0.5021
13263TIP3    H239747   1.815   1.066   3.810 -1.8454  1.7376 -1.6487
13264TIP3   OH239748   1.182   3.136   0.403  0.6638  0.6265 -0.1863
13264TIP3    H139749   1.244   3.095   0.342  1.1144 -0.3264  0.8734
13264TIP3    H239750   1.204   3.098   0.488 -0.7274  1.0379  0.3782
13265TIP3   OH239751   8.074   3.258   1.036  0.1070 -0.4575  0.4115
13265TIP3    H139752   8.017   3.284   1.109  0.6612 -1.1500  1.1013
13265TIP3    H239753   8.019   3.271   0.958 -1.0302 -1.1494  1.0599
13266TIP3   OH239754   4.298   6.032   1.024  0.4508 -0.2785  0.4320
13266TIP3    H139755   4.386   6.026   1.061  0.9517 -0.1895 -0.7128
13266TIP3    H239756   4.303   6.101   0.958 -1.1067  1.4461  1.9806
13267TIP3   OH239757   5.449   4.281   4.034  0.0265 -0.2977 -0.1594
13267TIP3    H139758   5.458   4.189   4.010  2.4965 -0.2722  0.3963
13267TIP3    H239759   5.408   4.322   3.958 -1.3298 -1.8634 -0.3196
13268TIP3   OH239760   0.653   1.316   0.341  0.1282  0.3128  0.5665
13268TIP3    H139761   0.572   1.290   0.385 -1.0521  2.3801 -0.2622
13268TIP3    H239762   0.676   1.240   0.288 -1.8983  0.0440 -0.0203
13269TIP3   OH239763   3.261   5.788   3.525 -0.1419  0.1325  0.0905
13269TIP3    H139764   3.343   5.740   3.520 -0.4554 -0.2741 -2.0278
13269TIP3    H239765   3.248   5.804   3.618  3.3759  2.0667  0.4159
13270TIP3   OH239766   4.168   5.029   5.230 -0.1261 -0.2188 -0.4043
13270TIP3    H139767   4.175   5.082   5.151  1.0262  1.0595  0.5070
13270TIP3    H239768   4.219   4.950   5.210  0.6380  0.3451 -0.7678
13271TIP3   OH239769   2.985   4.450   2.573  0.4068  0.3133 -0.1278
13271TIP3    H139770   2.918   4.399   2.527  0.5388  0.6214 -0.6758
13271TIP3    H239771   3.016   4.392   2.642  2.0744 -1.2286 -2.0301
13272TIP3   OH239772   5.861   7.453   3.519  0.1010  0.2737  0.0960
13272TIP3    H139773   5.843   7.490   3.433  2.1943 -0.6066 -0.7940
13272TIP3    H239774   5.891   7.527   3.572 -0.3073  0.6549 -0.1968
13273TIP3   OH239775   5.975   0.979   1.963  0.0580 -0.1178 -0.1933
13273TIP3    H139776   6.053   0.995   2.016 -0.4399 -0.8634  0.8038
13273TIP3    H239777   5.906   1.031   2.005 -0.4269 -0.9961  0.1167
13274TIP3   OH239778   7.688   6.760   6.704  0.1741  0.2722 -0.1699
13274TIP3    H139779   7.659   6.807   6.782  3.5967  1.6468  0.4634
13274TIP3    H239780   7.656   6.813   6.631 -0.0572  0.9493  0.4090
13275TIP3   OH239781   4.361   5.647   3.650  0.0690 -0.4667 -0.2881
13275TIP3    H139782   4.351   5.612   3.561  1.3389  2.1983 -1.5936
13275TIP3    H239783   4.450   5.682   3.652  0.1037 -0.5753  2.1081
13276TIP3   OH239784   1.979   1.464   2.909 -0.6939  0.3111 -0.1349
13276TIP3    H139785   1.984   1.460   2.814  0.6089 -3.4692 -0.0904
13276TIP3    H239786   1.891   1.435   2.930 -0.5710 -0.1047 -0.1886
13277TIP3   OH239787   4.968   1.241   0.534  0.2417  0.6485  0.4683
13277TIP3    H139788   4.942   1.334   0.534  1.6447  1.1048 -1.3139
13277TIP3    H239789   5.063   1.243   0.547  0.3593 -0.5051 -0.1099
13278TIP3   OH239790   8.190   0.705   4.845  0.5094 -0.4652  0.3738
13278TIP3    H139791   8.155   0.732   4.761 -2.2808 -0.0323  1.5688
13278TIP3    H239792   8.258   0.771   4.864  1.7353 -1.0068 -1.7800
13279TIP3   OH239793   4.861   4.763   6.385  0.9151 -0.0514  0.3882
13279TIP3    H139794   4.829   4.763   6.295  0.5960 -0.1309  0.5013
13279TIP3    H239795   4.895   4.675   6.399  0.3789 -0.2374  0.5507
13280TIP3   OH239796   1.557   0.497   1.677 -1.0313  0.1605 -0.2466
13280TIP3    H139797   1.564   0.505   1.582 -1.1384  1.8415 -0.1561
13280TIP3    H239798   1.647   0.504   1.709 -1.1465  1.5036 -0.1511
13281TIP3   OH239799   6.171   4.825   6.066 -0.9057  0.3960 -0.2743
13281TIP3    H139800   6.232   4.784   6.127 -1.8395 -0.8092 -0.1151
13281TIP3    H239801   6.084   4.804   6.101 -1.6177 -2.6046 -3.2711
13282TIP3   OH239802   3.587   1.474   1.723 -0.3441  0.2552  0.7400
13282TIP3    H139803   3.495   1.453   1.736 -0.6200  0.0130 -1.2973
13282TIP3    H239804   3.631   1.389   1.717 -0.1221  0.3598  0.8780
13283TIP3   OH239805   6.263   4.670   3.936 -0.3439  0.3305 -0.0096
13283TIP3    H139806   6.280   4.690   4.028 -2.0807 -0.3130  0.4824
13283TIP3    H239807   6.292   4.748   3.889  1.5263  0.2661  0.9513
13284TIP3   OH239808   1.332   7.280   2.378 -0.2373  0.1764 -0.1125
13284TIP3    H139809   1.240   7.274   2.354  0.0181  1.8116 -1.7722
13284TIP3    H239810   1.378   7.229   2.311  0.1200  0.1109  0.1759
13285TIP3   OH239811   4.617   3.659   0.281 -0.6857  0.6305 -0.2074
13285TIP3    H139812   4.547   3.692   0.338  0.7243  0.6440  1.5755
13285TIP3    H239813   4.586   3.680   0.192 -2.0696  2.3496  0.6076
13286TIP3   OH239814   7.541   0.677   0.670  0.0517  0.7394  0.3364
13286TIP3    H139815   7.614   0.719   0.715  0.2915 -0.3664  1.0167
13286TIP3    H239816   7.486   0.643   0.740 -1.2412  1.7164 -0.1628
13287TIP3   OH239817   4.956   1.932   3.098 -0.2184 -0.6522 -0.5579
13287TIP3    H139818   4.940   2.027   3.101  2.2092 -0.2111  0.1228
13287TIP3    H239819   5.035   1.923   3.046 -0.2626 -2.3073 -0.3699
13288TIP3   OH239820   4.625   7.251   3.763  0.4611 -0.4200  0.3682
13288TIP3    H139821   4.549   7.272   3.708  2.1473  0.0036 -1.9672
13288TIP3    H239822   4.614   7.158   3.784 -1.2092 -0.1189  1.0171
13289TIP3   OH239823   5.862   4.992   4.740 -0.1660 -0.0877 -0.0885
13289TIP3    H139824   5.931   5.053   4.714 -0.3051  1.1580  2.2285
13289TIP3    H239825   5.864   4.923   4.673  0.1890  2.2776 -2.6782
13290TIP3   OH239826   4.764   3.212   3.509  0.1145 -0.5612  0.0512
13290TIP3    H139827   4.825   3.285   3.513 -0.9015  0.2994  0.3715
13290TIP3    H239828   4.680   3.250   3.533 -0.0965 -2.2316  2.3109
13291TIP3   OH239829   5.763   4.247   3.339 -0.2728 -0.7380  0.2781
13291TIP3    H139830   5.781   4.192   3.264  1.0654 -0.2774  0.2407
13291TIP3    H239831   5.849   4.262   3.380 -0.8198 -0.0382  1.2255
13292TIP3   OH239832   8.245   0.614   3.678  0.3948 -0.5009 -0.2698
13292TIP3    H139833   8.260   0.541   3.619 -0.3291 -0.4535 -0.5219
13292TIP3    H239834   8.152   0.633   3.670  0.6937  0.8969 -0.7246
13293TIP3   OH239835   6.114   5.330   3.023  0.5572  0.3012 -0.2164
13293TIP3    H139836   6.183   5.357   3.084  0.7917 -0.5216 -0.1090
13293TIP3    H239837   6.086   5.412   2.982 -0.3516  1.0449  1.7355
13294TIP3   OH239838   3.415   5.591   5.695 -0.0478 -0.3998 -0.2192
13294TIP3    H139839   3.327   5.623   5.716 -0.4751  0.7413 -3.2102
13294TIP3    H239840   3.470   5.670   5.697  0.4649 -0.7468 -0.4584
13295TIP3   OH239841   3.975   3.085   2.522 -0.4772 -0.3040  0.4394
13295TIP3    H139842   3.913   3.015   2.539 -0.5850 -0.3810 -0.2167
13295TIP3    H239843   4.045   3.043   2.471 -0.5090  0.0401  0.1018
13296TIP3   OH239844   7.660   7.542   3.057  0.5176 -0.2708 -0.3145
13296TIP3    H139845   7.752   7.565   3.043  0.9119 -0.6772  1.3644
13296TIP3    H239846   7.618   7.625   3.079  0.2270  0.0981 -2.1398
13297TIP3   OH239847   7.591   5.926   0.220 -0.2532 -0.2672  0.3370
13297TIP3    H139848   7.597   6.009   0.269  4.0972 -0.8705  1.2405
13297TIP3    H239849   7.557   5.952   0.134 -2.4403  1.7857  1.6822
13298TIP3   OH239850   1.685   5.200   1.320  0.0807  0.2105 -0.9218
13298TIP3    H139851   1.760   5.222   1.265  0.6817 -0.9153 -0.5921
13298TIP3    H239852   1.654   5.116   1.286  0.4390 -0.4846  0.3878
13299TIP3   OH239853   4.905   2.471   4.572  0.2292  0.2023 -0.1793
13299TIP3    H139854   4.838   2.418   4.530 -0.3843  1.4327 -0.8159
13299TIP3    H239855   4.955   2.508   4.500 -1.2625  2.8988  0.0178
13300TIP3   OH239856   4.325   6.666   1.221 -0.3216  0.7937 -0.2826
13300TIP3    H139857   4.415   6.668   1.191 -0.5158 -2.1513 -1.4726
13300TIP3    H239858   4.318   6.584   1.270 -2.7137 -0.0058 -1.7569
13301TIP3   OH239859   4.742   3.408   5.844 -0.1622  0.2974 -0.3141
13301TIP3    H139860   4.766   3.493   5.882 -0.6951  0.1676  0.3410
13301TIP3    H239861   4.816   3.351   5.866 -0.7948  0.0185  1.2966
13302TIP3   OH239862   1.570   0.652   4.714 -0.0022 -0.0639  0.4131
13302TIP3    H139863   1.568   0.744   4.688 -1.8729 -0.6918 -1.9894
13302TIP3    H239864   1.661   0.626   4.701  0.2652  1.1009 -0.1657
13303TIP3   OH239865   6.930   1.128   4.976  0.8455 -0.1378 -0.5014
13303TIP3    H139866   6.989   1.079   4.920  0.7517 -0.2145 -0.5324
13303TIP3    H239867   6.843   1.097   4.953  0.7031  0.8317 -1.2965
13304TIP3   OH239868   0.595   2.154   2.986 -0.3266 -0.1873 -0.0738
13304TIP3    H139869   0.508   2.194   2.994  0.7345  2.8081 -1.9534
13304TIP3    H239870   0.647   2.196   3.054  0.6940  1.5800 -1.8095
13305TIP3   OH239871   5.863   6.128   6.353  0.2314  0.1989  0.1336
13305TIP3    H139872   5.895   6.146   6.442  1.2997  0.3606 -0.2638
13305TIP3    H239873   5.888   6.207   6.303  0.5017 -0.2875 -0.5133
13306TIP3   OH239874   1.047   2.026   5.689 -0.4788 -0.0134 -0.4415
13306TIP3    H139875   1.138   2.023   5.658 -0.2788 -0.5600  0.1698
13306TIP3    H239876   0.999   1.972   5.626 -0.4772  0.6600 -1.0406
13307TIP3   OH239877   7.217   1.180   2.303 -0.2200 -0.7599 -0.4117
13307TIP3    H139878   7.212   1.126   2.382  0.4845 -0.2878 -0.0280
13307TIP3    H239879   7.160   1.136   2.240 -1.6979 -0.5126  0.7167
13308TIP3   OH239880   3.920   0.582   0.512  0.3529 -0.7858  0.2218
13308TIP3    H139881   4.003   0.586   0.465  0.7417 -2.3269  0.7069
13308TIP3    H239882   3.929   0.646   0.582  0.1817  0.7635 -1.1172
13309TIP3   OH239883   5.109   3.268   5.093 -0.4556 -0.6157 -0.3346
13309TIP3    H139884   5.188   3.239   5.139 -0.1570 -0.8530 -0.9876
13309TIP3    H239885   5.037   3.222   5.137 -0.1518 -1.0269 -0.2601
13310TIP3   OH239886   5.842   7.016   2.186  1.1874  0.2041 -0.0020
13310TIP3    H139887   5.822   6.927   2.215  1.4066 -0.0921 -0.7422
13310TIP3    H239888   5.894   7.004   2.106  0.5816  0.9942 -0.5232
13311TIP3   OH239889   4.978   7.683   4.463  0.1515 -0.6560 -0.2076
13311TIP3    H139890   5.016   7.642   4.541  1.9344  2.0457  0.5341
13311TIP3    H239891   5.054   7.706   4.409 -0.7763  0.5775 -1.0534
13312TIP3   OH239892   2.688   3.728   6.376  0.1169 -0.3808  0.7258
13312TIP3    H139893   2.611   3.751   6.428 -0.8442  2.5799 -1.6740
13312TIP3    H239894   2.762   3.760   6.427 -0.3845 -1.3189  2.1009
13313TIP3   OH239895   3.284   0.934   1.062  0.0849 -0.4244 -0.3814
13313TIP3    H139896   3.219   0.984   1.012 -2.0922 -0.2199  2.3992
13313TIP3    H239897   3.272   0.844   1.034  1.3445  0.0446 -2.6324
13314TIP3   OH239898   5.649   0.575   5.580  0.3121 -0.0453  0.2615
13314TIP3    H139899   5.629   0.510   5.647  1.1567  0.8376  1.4157
13314TIP3    H239900   5.718   0.629   5.618 -0.0717  1.2807 -0.8045
13315TIP3   OH239901   8.052   4.075   4.268 -0.2983 -0.2449 -0.5857
13315TIP3    H139902   8.116   4.144   4.252  0.3292 -0.6631  0.0340
13315TIP3    H239903   8.027   4.043   4.181  0.6498 -0.3523 -0.8271
13316TIP3   OH239904   1.878   0.777   6.773 -0.3770 -0.0352  0.3095
13316TIP3    H139905   1.972   0.790   6.784 -0.2161 -1.0933  0.2558
13316TIP3    H239906   1.863   0.782   6.679 -0.2984 -0.3403  0.2801
13317TIP3   OH239907   7.972   3.378   5.262 -0.3362 -0.1495  0.8912
13317TIP3    H139908   8.058   3.381   5.303  1.0558 -0.9016 -1.7125
13317TIP3    H239909   7.958   3.468   5.232 -0.1916 -0.1386  0.8515
13318TIP3   OH239910   3.728   4.063   3.412  0.6998 -0.7832 -0.1568
13318TIP3    H139911   3.789   4.006   3.365  2.1832  0.0180  0.7292
13318TIP3    H239912   3.768   4.150   3.407  0.0871 -0.3934  1.2333
13319TIP3   OH239913   5.471   5.404   5.767  0.1262  0.0892  0.4148
13319TIP3    H139914   5.392   5.438   5.809 -0.7108 -0.3263 -0.7869
13319TIP3    H239915   5.439   5.351   5.695  1.4407 -1.7377  1.0978
13320TIP3   OH239916   4.289   1.992   6.019  0.0220  0.0124  0.1653
13320TIP3    H139917   4.372   2.031   6.046 -0.3138  0.0538  1.2168
13320TIP3    H239918   4.268   1.931   6.090 -2.0782  1.8333  1.2184
13321TIP3   OH239919   4.760   6.776   0.932  0.2352 -0.1005 -0.4174
13321TIP3    H139920   4.807   6.859   0.934 -1.6223  1.0245 -1.1446
13321TIP3    H239921   4.733   6.765   0.841 -1.2401 -0.4621  0.0204
13322TIP3   OH239922   0.085   0.980   6.150  0.3179 -0.0609 -0.0266
13322TIP3    H139923   0.072   1.071   6.174 -0.8640 -0.1252 -0.3394
13322TIP3    H239924   0.031   0.968   6.071  0.1680 -1.1073  0.2104
13323TIP3   OH239925   2.576   7.598   1.750 -0.0326  0.7014 -0.2565
13323TIP3    H139926   2.547   7.652   1.677  0.2203 -0.3305 -1.1410
13323TIP3    H239927   2.670   7.585   1.735  0.1384  0.9186  0.5513
13324TIP3   OH239928   7.386   5.871   3.427 -0.2758  0.2280 -0.0866
13324TIP3    H139929   7.297   5.850   3.400 -0.0486 -2.3022  0.8717
13324TIP3    H239930   7.440   5.846   3.352 -0.2601  0.6744 -0.2290
13325TIP3   OH239931   0.154   5.602   5.974 -0.0322  0.6791  0.0807
13325TIP3    H139932   0.178   5.556   6.055  0.6928  0.6978 -0.1192
13325TIP3    H239933   0.112   5.534   5.920  1.1424  0.1964 -0.2606
13326TIP3   OH239934   3.173   1.215   2.204  0.1573 -0.7063 -0.5302
13326TIP3    H139935   3.101   1.195   2.144 -0.7918 -1.7150  0.8578
13326TIP3    H239936   3.173   1.142   2.266  1.3599  0.0858  0.4464
13327TIP3   OH239937   4.462   6.276   3.036 -0.0577  0.6648 -0.8233
13327TIP3    H139938   4.431   6.254   2.948 -0.2134 -0.3974 -0.5118
13327TIP3    H239939   4.423   6.362   3.054 -1.1990  0.2591 -1.2325
13328TIP3   OH239940   5.330   5.336   3.620  0.2213  0.3151  0.2493
13328TIP3    H139941   5.408   5.290   3.587  0.9180  1.7001 -0.1120
13328TIP3    H239942   5.263   5.268   3.625  0.9331 -0.5557 -1.1982
13329TIP3   OH239943   2.488   2.863   4.076  0.2140 -0.6755 -0.2827
13329TIP3    H139944   2.487   2.912   3.993  0.8372  0.2189  0.2166
13329TIP3    H239945   2.436   2.785   4.058 -1.1303  0.3450 -0.9997
13330TIP3   OH239946   5.465   0.804   1.634 -0.6707  0.1239  0.4762
13330TIP3    H139947   5.515   0.735   1.678 -0.9071 -0.6202 -0.3878
13330TIP3    H239948   5.524   0.837   1.566 -0.7500  0.4076  0.5432
13331TIP3   OH239949   6.166   6.293   0.944 -0.2435  0.3090  0.1114
13331TIP3    H139950   6.130   6.366   0.993 -0.3159 -0.5163  1.3484
13331TIP3    H239951   6.146   6.312   0.853 -0.4046  1.7341  0.4314
13332TIP3   OH239952   0.544   5.095   3.404 -0.4620 -0.0523  0.0344
13332TIP3    H139953   0.515   5.067   3.491  1.0163  0.1425  0.6250
13332TIP3    H239954   0.466   5.088   3.349 -1.2254 -0.9948  1.1805
13333TIP3   OH239955   0.664   5.571   4.595  0.1123  0.1288 -0.3821
13333TIP3    H139956   0.642   5.635   4.527  0.1454  0.4736 -0.0717
13333TIP3    H239957   0.618   5.492   4.568  1.9309 -0.4484 -2.0388
13334TIP3   OH239958   6.597   3.662   0.072  0.4145  0.0883  0.0545
13334TIP3    H139959   6.565   3.582   0.113  0.5106 -0.5104 -1.0067
13334TIP3    H239960   6.569   3.732   0.131 -0.6368 -0.6247  0.4228
13335TIP3   OH239961   7.308   3.934   4.495 -0.5089 -0.1398 -0.3747
13335TIP3    H139962   7.264   3.887   4.565  0.8224  0.5044  0.9586
13335TIP3    H239963   7.324   4.021   4.532  1.2771 -0.1623 -1.0134
13336TIP3   OH239964   3.525   2.502   5.950 -0.2715 -0.2443  0.0894
13336TIP3    H139965   3.452   2.475   6.006 -0.9998  1.0727 -0.1847
13336TIP3    H239966   3.536   2.595   5.968  2.1299 -0.6187  0.9876
13337TIP3   OH239967   4.876   7.247   3.932  0.6484 -0.2875  0.2546
13337TIP3    H139968   4.865   7.173   3.992  2.2026 -1.1084 -0.4206
13337TIP3    H239969   4.790   7.259   3.893  0.2508 -1.4503  0.7195
13338TIP3   OH239970   4.132   3.656   3.816  0.1005 -0.2921  0.4339
13338TIP3    H139971   4.112   3.641   3.908 -0.1728  4.1804  1.3274
13338TIP3    H239972   4.227   3.666   3.813 -0.0131  1.0888  0.6140
13339TIP3   OH239973   6.793   6.018   3.250 -0.3465  0.0952 -0.6175
13339TIP3    H139974   6.854   6.083   3.217 -0.0222  1.8868  3.0263
13339TIP3    H239975   6.709   6.065   3.258 -0.8195 -0.7414 -0.5164
13340TIP3   OH239976   7.780   5.439   4.147 -0.5433  0.2143  0.4513
13340TIP3    H139977   7.813   5.404   4.230  0.1868 -0.6377 -0.1720
13340TIP3    H239978   7.848   5.501   4.118 -0.0850 -0.5635 -0.1922
13341TIP3   OH239979   5.638   6.820   4.044  0.3314  0.4386 -0.1041
13341TIP3    H139980   5.598   6.892   3.995 -2.6484 -0.2590  1.0977
13341TIP3    H239981   5.592   6.742   4.015  1.1942 -0.5371  1.0279
13342TIP3   OH239982   1.438   5.888   0.803 -0.4783 -0.0598  0.1806
13342TIP3    H139983   1.355   5.931   0.786 -0.2613 -0.1195 -1.1557
13342TIP3    H239984   1.504   5.954   0.781 -0.1643 -0.6875 -0.8549
13343TIP3   OH239985   7.248   6.401   2.973 -0.3623  0.1146 -0.1090
13343TIP3    H139986   7.276   6.392   2.882 -1.3307 -0.7395 -0.3277
13343TIP3    H239987   7.294   6.480   3.004  0.7960 -0.1810 -1.0090
13344TIP3   OH239988   1.203   4.225   5.286  0.2680 -0.0482  0.3848
13344TIP3    H139989   1.262   4.186   5.351  0.6409  0.2639  0.2404
13344TIP3    H239990   1.189   4.315   5.317 -1.6624 -0.6578  1.4398
13345TIP3   OH239991   6.886   1.838   3.685  0.0881  0.3394 -0.0889
13345TIP3    H139992   6.793   1.837   3.705 -0.0209  1.0478 -0.5303
13345TIP3    H239993   6.918   1.751   3.712 -0.5575  0.3330  0.7011
13346TIP3   OH239994   6.173   5.359   5.874 -0.8403 -0.1581  0.5669
13346TIP3    H139995   6.209   5.434   5.921 -1.4427  0.4137  0.1172
13346TIP3    H239996   6.178   5.287   5.937  1.3142 -0.1857  0.4671
13347TIP3   OH239997   5.819   3.467   4.389 -0.1428  0.6728 -0.7636
13347TIP3    H139998   5.862   3.509   4.315 -1.4417  1.3840 -1.1324
13347TIP3    H239999   5.779   3.539   4.438 -1.5671 -0.0318 -0.8629
13348TIP3   OH240000   5.384   1.014   4.966 -0.3680 -0.4205  0.6611
13348TIP3    H140001   5.386   0.947   5.034 -1.2428 -3.0152 -1.6839
13348TIP3    H240002   5.294   1.049   4.969  0.3021  1.3562  2.3921
13349TIP3   OH240003   2.483   2.805   3.168  0.0186 -0.5847 -0.0720
13349TIP3    H140004   2.576   2.815   3.147  0.0301 -2.6076 -1.1710
13349TIP3    H240005   2.483   2.760   3.253  0.0275 -0.5967 -0.0785
13350TIP3   OH240006   4.075   3.591   2.808  0.3754  0.0453 -0.2747
13350TIP3    H140007   4.072   3.564   2.900 -0.5771  2.3893  0.4507
13350TIP3    H240008   3.984   3.589   2.779  0.4208  1.2057 -0.5456
13351TIP3   OH240009   5.242   5.600   2.660  0.4605  0.6091  0.3175
13351TIP3    H140010   5.316   5.540   2.647  0.0833  0.7235 -3.1486
13351TIP3    H240011   5.275   5.665   2.722  2.3432 -0.7652  0.8607
13352TIP3   OH240012   5.447   1.947   4.963 -1.1397  0.1236  0.1093
13352TIP3    H140013   5.463   2.040   4.977  0.8907  0.0553 -1.3089
13352TIP3    H240014   5.425   1.940   4.870  3.7926 -1.2068 -1.2315
13353TIP3   OH240015   2.495   4.453   0.956 -0.0065  0.0705  0.2975
13353TIP3    H140016   2.540   4.520   0.904  0.1335 -0.2248  0.0372
13353TIP3    H240017   2.425   4.421   0.898 -0.2563  0.1926  0.5278
13354TIP3   OH240018   5.863   7.647   2.275  0.5335  0.0119  0.8773
13354TIP3    H140019   5.851   7.738   2.250  1.6832 -0.3959 -1.4703
13354TIP3    H240020   5.949   7.645   2.318  1.4517 -0.2109 -0.8735
13355TIP3   OH240021   0.887   1.085   1.815  0.5219 -0.1775 -0.0106
13355TIP3    H140022   0.934   1.068   1.733  1.1524  1.0938  0.0547
13355TIP3    H240023   0.796   1.063   1.796  0.7048 -0.1280 -0.9821
13356TIP3   OH240024   3.984   0.930   4.613 -0.2996  0.5225  0.5135
13356TIP3    H140025   4.022   1.017   4.597  1.3970 -0.2472  0.1999
13356TIP3    H240026   3.897   0.936   4.574  0.1464  1.7943 -0.3913
13357TIP3   OH240027   5.178   3.896   3.939 -0.2468  0.3531  0.2005
13357TIP3    H140028   5.133   3.946   3.870 -0.0983  0.2330  0.0161
13357TIP3    H240029   5.175   3.805   3.908 -1.2258  0.1246  0.9106
13358TIP3   OH240030   3.540   5.181   4.230 -0.4915 -0.0410 -0.0678
13358TIP3    H140031   3.476   5.226   4.285 -0.7194 -1.8951  1.2727
13358TIP3    H240032   3.571   5.248   4.169 -2.7809  1.2208  0.0464
13359TIP3   OH240033   4.765   7.716   1.426 -0.7926  0.2851 -0.2109
13359TIP3    H140034   4.673   7.737   1.411 -0.5461  3.1194  1.4380
13359TIP3    H240035   4.769   7.696   1.520  0.1655 -0.5934 -0.4296
13360TIP3   OH240036   5.589   6.135   0.944  0.4255  0.3284 -0.7527
13360TIP3    H140037   5.676   6.144   0.981  1.3910 -0.3449 -2.7099
13360TIP3    H240038   5.554   6.054   0.982  0.8271  0.3851 -0.2650
13361TIP3   OH240039   0.772   1.343   6.321  0.2867 -0.0589  0.5695
13361TIP3    H140040   0.788   1.437   6.321  0.3446 -0.0459 -0.9638
13361TIP3    H240041   0.837   1.308   6.259 -0.3511 -0.9772  0.4055
13362TIP3   OH240042   7.165   4.258   0.874  0.3364  0.0818 -0.0147
13362TIP3    H140043   7.124   4.246   0.959 -1.1620 -0.1376 -0.7402
13362TIP3    H240044   7.190   4.169   0.847 -1.8631 -0.3056 -1.0486
13363TIP3   OH240045   0.026   7.074   0.356  0.4458 -0.6010 -0.5181
13363TIP3    H140046   0.099   7.127   0.388  0.7986 -0.9620 -0.6973
13363TIP3    H240047  -0.049   7.099   0.409  0.5842  0.1423 -0.6715
13364TIP3   OH240048   6.385   1.884   3.279 -0.4861  0.2627 -0.6184
13364TIP3    H140049   6.387   1.942   3.203  0.6519 -0.4848 -1.1783
13364TIP3    H240050   6.318   1.923   3.336 -0.0069  1.9331 -1.1254
13365TIP3   OH240051   0.159   0.621   4.414 -0.5155  0.5860  0.8785
13365TIP3    H140052   0.075   0.594   4.450  0.0776  0.6349  2.3656
13365TIP3    H240053   0.185   0.549   4.357 -1.7368  0.7622  0.0537
13366TIP3   OH240054   0.008   4.824   4.013  0.3130 -0.4058 -0.3195
13366TIP3    H140055   0.040   4.913   4.022 -0.8349  0.0356 -0.4856
13366TIP3    H240056   0.063   4.785   3.944 -0.0052  0.5821 -1.1559
13367TIP3   OH240057   5.829   1.504   5.412  0.5483 -0.6150 -0.2635
13367TIP3    H140058   5.756   1.562   5.433  1.7347  0.2617  1.6366
13367TIP3    H240059   5.787   1.421   5.387 -1.1501  0.7245 -2.2436
13368TIP3   OH240060   1.265   5.099   2.202 -0.4449  0.1400  0.4479
13368TIP3    H140061   1.195   5.034   2.202  0.5089 -0.9506  1.3904
13368TIP3    H240062   1.221   5.183   2.188 -1.7409 -0.6742 -0.5245
13369TIP3   OH240063   0.444   3.672   4.337  0.3610 -0.8015 -0.0007
13369TIP3    H140064   0.528   3.628   4.340  0.6671 -0.2082  0.1795
13369TIP3    H240065   0.463   3.764   4.355 -0.4464 -0.8190  1.0824
13370TIP3   OH240066   4.860   1.788   0.777 -0.8294 -0.2581 -0.6343
13370TIP3    H140067   4.848   1.708   0.828  0.0813  0.4791  0.7899
13370TIP3    H240068   4.918   1.762   0.705 -0.1123 -0.7603  0.1151
13371TIP3   OH240069   6.266   2.578   4.360  0.0120 -0.0839  0.2464
13371TIP3    H140070   6.213   2.616   4.430  0.6257  2.2366 -0.4625
13371TIP3    H240071   6.352   2.566   4.399  0.0462  0.1196  0.2381
13372TIP3   OH240072   0.974   2.729   3.182 -0.2838 -0.3301 -0.5516
13372TIP3    H140073   1.035   2.746   3.111  0.8707 -0.8673  0.2786
13372TIP3    H240074   1.005   2.785   3.254  0.6426 -2.2524  0.6175
13373TIP3   OH240075   2.863   1.480   1.843  0.2699  0.5679  0.6448
13373TIP3    H140076   2.916   1.516   1.772  0.6475 -0.0107  0.6318
13373TIP3    H240077   2.774   1.475   1.806  0.6634 -0.7864 -0.1882
13374TIP3   OH240078   2.952   1.885   0.633 -0.2118  0.0540 -0.3500
13374TIP3    H140079   2.986   1.969   0.664  1.2639 -0.6562  0.0841
13374TIP3    H240080   2.927   1.839   0.713  1.4619 -0.9019 -0.3234
13375TIP3   OH240081   4.329   7.438   0.302  0.0863 -0.3010  0.2336
13375TIP3    H140082   4.359   7.421   0.391  1.7939  1.1723 -0.0196
13375TIP3    H240083   4.409   7.447   0.250 -0.8383  0.4120 -1.1494
13376TIP3   OH240084   5.533   1.023   0.392  0.3256 -0.1963  0.2180
13376TIP3    H140085   5.537   1.109   0.350 -0.0143 -0.3351 -0.1161
13376TIP3    H240086   5.458   1.030   0.452 -0.3356 -0.5648 -0.5446
13377TIP3   OH240087   2.795   2.480   0.481  0.3367 -0.1809  0.3922
13377TIP3    H140088   2.836   2.395   0.467  2.0034  0.7931 -1.0180
13377TIP3    H240089   2.868   2.541   0.493 -0.6694  1.4757 -1.2603
13378TIP3   OH240090   8.039   1.323   5.009  0.0601  0.3327 -0.0569
13378TIP3    H140091   8.026   1.358   5.098 -0.7861 -1.3350  0.5058
13378TIP3    H240092   8.133   1.331   4.995  0.5521 -1.2465  1.8547
13379TIP3   OH240093   7.935   6.821   5.104 -0.1473  0.1988  0.0696
13379TIP3    H140094   7.955   6.879   5.031 -0.5633  0.8430  0.4524
13379TIP3    H240095   8.020   6.798   5.141  0.0292  0.3969 -0.2129
13380TIP3   OH240096   2.080   3.210   5.577  0.1642 -0.6643  0.2354
13380TIP3    H140097   2.136   3.182   5.504  0.0485 -0.0284 -0.1055
13380TIP3    H240098   2.129   3.280   5.620 -0.2537 -0.2699  0.0824
13381TIP3   OH240099   6.415   1.621   1.380 -0.0727  0.4152  0.2681
13381TIP3    H140100   6.388   1.709   1.353  0.2007  0.8035  1.2387
13381TIP3    H240101   6.423   1.573   1.297 -1.1525  1.0224 -0.2201
13382TIP3   OH240102   2.610   5.688   3.591  0.3716 -0.1037 -0.4326
13382TIP3    H140103   2.612   5.661   3.499 -1.8857  1.8933 -1.1436
13382TIP3    H240104   2.597   5.782   3.589 -1.2403 -0.1848  1.9336
13383TIP3   OH240105   1.660   6.947   6.724  0.1702 -0.1197  0.2271
13383TIP3    H140106   1.689   6.906   6.642  1.7292 -1.1765  1.2622
13383TIP3    H240107   1.597   7.013   6.696  0.4840 -0.6060 -1.8099
13384TIP3   OH240108   3.058   2.123   1.414  0.3209  0.6499  0.3460
13384TIP3    H140109   2.963   2.116   1.413  0.2737  1.3315 -0.0273
13384TIP3    H240110   3.080   2.136   1.507 -0.0574  1.8587  0.2801
13385TIP3   OH240111   1.526   4.959   0.505 -0.2840  0.9601  0.5434
13385TIP3    H140112   1.543   4.969   0.412  1.0477 -0.0611  0.6395
13385TIP3    H240113   1.606   4.993   0.547 -0.2898  0.1278  1.2395
13386TIP3   OH240114   2.904   5.166   4.961  0.3388 -0.4123 -0.1959
13386TIP3    H140115   2.875   5.256   4.977 -1.5367 -1.1838  1.1157
13386TIP3    H240116   2.846   5.134   4.892 -0.2239 -1.1558  0.6051
13387TIP3   OH240117   0.969   6.140   3.522 -0.0671  0.3222 -0.1901
13387TIP3    H140118   1.009   6.155   3.608 -1.2659 -0.1751  0.4729
13387TIP3    H240119   0.893   6.198   3.521  0.7015  1.3791 -1.5024
13388TIP3   OH240120   0.464   2.812   4.881  0.1244 -0.0319  0.3859
13388TIP3    H140121   0.368   2.810   4.885  0.0205 -0.1292 -1.2186
13388TIP3    H240122   0.489   2.724   4.852  0.3243  1.0878 -3.4364
13389TIP3   OH240123   4.396   1.607   0.898 -0.0545  0.3075 -0.5727
13389TIP3    H140124   4.458   1.536   0.881  1.9306  1.8283 -0.1187
13389TIP3    H240125   4.315   1.563   0.922  1.3415 -1.8135  0.5654
13390TIP3   OH240126   7.775   3.198   5.489  0.4007 -0.5022 -0.0565
13390TIP3    H140127   7.810   3.205   5.578  2.2074  1.8287 -0.8432
13390TIP3    H240128   7.798   3.110   5.461  0.6818 -0.9255  1.4231
13391TIP3   OH240129   7.249   7.673   3.134 -0.1301 -0.0099  0.4997
13391TIP3    H140130   7.321   7.731   3.111 -1.3822  0.9080 -1.4132
13391TIP3    H240131   7.194   7.726   3.192 -0.7913  0.4314 -0.4968
13392TIP3   OH240132   1.926   3.613   4.075  0.2716 -0.0525  0.7490
13392TIP3    H140133   1.954   3.581   4.161 -0.3877 -0.5516  0.7832
13392TIP3    H240134   1.868   3.687   4.094 -0.7816 -0.8649  0.7871
13393TIP3   OH240135   1.575   5.067   0.276  0.3484 -0.1131  0.0366
13393TIP3    H140136   1.510   5.102   0.215  0.2820 -1.7017 -0.8498
13393TIP3    H240137   1.642   5.028   0.219  2.2996  1.7651  0.9062
13394TIP3   OH240138   3.610   7.538   4.640 -0.3870  0.4241  0.2297
13394TIP3    H140139   3.544   7.591   4.683 -0.0864 -0.9369  2.5138
13394TIP3    H240140   3.682   7.533   4.703  1.1307  0.3287 -1.4318
13395TIP3   OH240141   7.086   2.904   5.282  0.0528 -0.4657 -0.4111
13395TIP3    H140142   7.150   2.969   5.253 -1.2453  1.7481  1.3061
13395TIP3    H240143   7.105   2.826   5.230  2.6320  0.8093 -1.5563
13396TIP3   OH240144   6.833   0.979   6.077 -0.3171 -0.4793 -0.1190
13396TIP3    H140145   6.813   1.042   6.008  1.1459 -2.8895 -3.0015
13396TIP3    H240146   6.926   0.992   6.095 -0.5597 -0.2504  1.0914
13397TIP3   OH240147   4.644   0.405   6.671 -0.3355  0.1177 -0.5883
13397TIP3    H140148   4.733   0.439   6.669  0.5771 -2.0944 -2.5071
13397TIP3    H240149   4.618   0.410   6.763  1.5578  1.3185 -0.0729
13398TIP3   OH240150   5.123   4.564   5.220 -0.0478  0.0566  0.4442
13398TIP3    H140151   5.088   4.494   5.276  0.6535 -0.5905  0.1004
13398TIP3    H240152   5.108   4.531   5.131  0.7673  0.1030  0.2889
13399TIP3   OH240153   7.418   2.720   1.846  0.2487 -0.6869  0.1008
13399TIP3    H140154   7.341   2.777   1.843  1.1431  0.5940  0.7169
13399TIP3    H240155   7.393   2.650   1.905 -1.0811 -1.2897 -1.1125
13400TIP3   OH240156   2.915   2.103   3.757  0.1045  0.1068 -0.8124
13400TIP3    H140157   2.826   2.131   3.776 -0.7191 -2.1405 -1.0380
13400TIP3    H240158   2.966   2.131   3.833 -0.7789  1.3809 -0.6594
13401TIP3   OH240159   3.476   0.604   3.604 -0.2050 -0.4607  0.6840
13401TIP3    H140160   3.474   0.510   3.617 -0.9674 -0.4514  0.6873
13401TIP3    H240161   3.429   0.640   3.679  0.4648 -0.0462  0.9162
13402TIP3   OH240162   0.941   0.827   2.951 -0.4420 -0.2691 -0.2380
13402TIP3    H140163   0.985   0.744   2.936  0.7903  0.2997  0.0580
13402TIP3    H240164   0.907   0.852   2.865 -0.7278 -1.0200 -0.3491
13403TIP3   OH240165   5.837   0.999   5.455  0.4180  0.1852  0.2875
13403TIP3    H140166   5.847   1.011   5.360 -1.1804  0.0191  0.0786
13403TIP3    H240167   5.779   0.924   5.464  2.8545 -1.7125  1.4889
13404TIP3   OH240168   4.008   6.028   4.965 -0.4944 -0.2963  0.3058
13404TIP3    H140169   4.011   6.119   4.994  2.3556  0.3983 -1.7226
13404TIP3    H240170   4.075   5.984   5.017 -0.1626 -0.6355 -0.3966
13405TIP3   OH240171   7.956   1.935   5.336 -0.1816  0.5429 -0.0803
13405TIP3    H140172   8.048   1.925   5.312  0.0184  1.1543  0.3952
13405TIP3    H240173   7.939   1.861   5.395 -0.0506  0.3244 -0.3124
13406TIP3   OH240174   4.696   7.284   0.436 -0.6150 -0.1163  0.3476
13406TIP3    H140175   4.689   7.370   0.477  0.1245  0.3378 -0.4541
13406TIP3    H240176   4.630   7.285   0.367 -0.6040 -0.1962  0.3359
13407TIP3   OH240177   5.165   7.113   4.806 -0.4676  0.2360 -0.3053
13407TIP3    H140178   5.158   7.018   4.810 -0.7440  0.2876  1.0166
13407TIP3    H240179   5.251   7.131   4.846 -1.8551  0.6820  2.7559
13408TIP3   OH240180   7.409   5.671   6.215  0.7916  0.1962  0.2013
13408TIP3    H140181   7.489   5.656   6.266  0.4997  0.1808  0.6568
13408TIP3    H240182   7.380   5.758   6.242  0.0051 -0.2768  0.9267
13409TIP3   OH240183   4.905   3.100   6.405 -0.3778 -0.0621  0.5206
13409TIP3    H140184   4.918   3.194   6.390 -0.9427  0.0004  0.3946
13409TIP3    H240185   4.818   3.094   6.444 -2.0992 -0.8229 -3.0026
13410TIP3   OH240186   5.398   0.504   4.759  0.0904  0.4295  0.7033
13410TIP3    H140187   5.325   0.494   4.697  1.3722  1.2344 -1.0366
13410TIP3    H240188   5.357   0.536   4.839 -1.3258  2.5480 -0.7397
13411TIP3   OH240189   3.272   6.164   5.722 -0.2499  0.5827  0.0130
13411TIP3    H140190   3.359   6.178   5.685  0.0330 -1.5712 -0.2703
13411TIP3    H240191   3.220   6.130   5.649 -0.4459 -1.0678  0.8770
13412TIP3   OH240192   4.822   5.273   0.555  0.1682 -0.0064 -0.4061
13412TIP3    H140193   4.797   5.181   0.561 -0.7406  0.2932  0.7945
13412TIP3    H240194   4.844   5.297   0.645  1.4497  0.6787 -0.8732
13413TIP3   OH240195   7.307   7.768   2.232 -0.3870 -0.3204 -0.1471
13413TIP3    H140196   7.332   7.835   2.296 -1.4225  0.2295 -0.2857
13413TIP3    H240197   7.257   7.704   2.283  0.7071 -1.0697  0.0080
13414TIP3   OH240198   0.462   7.178   3.639  0.4507  0.2601  0.5779
13414TIP3    H140199   0.404   7.102   3.633  0.0883  0.5152  0.8261
13414TIP3    H240200   0.425   7.231   3.709  0.6591  0.7069  0.3529
13415TIP3   OH240201   2.216   5.315   2.069  0.1427  0.3465 -0.0876
13415TIP3    H140202   2.296   5.306   2.016  0.5941  0.1769  0.6030
13415TIP3    H240203   2.233   5.392   2.125 -0.0555  0.1319  0.2713
13416TIP3   OH240204   6.582   7.327   6.405 -0.7222  0.2858 -0.3090
13416TIP3    H140205   6.659   7.341   6.349  0.1154 -0.2034  0.6865
13416TIP3    H240206   6.551   7.240   6.382 -0.3034  0.0348  0.0561
13417TIP3   OH240207   5.075   5.868   1.438  0.1840 -0.2972  0.1236
13417TIP3    H140208   5.117   5.922   1.371 -0.8789  0.5831  0.1435
13417TIP3    H240209   5.146   5.815   1.475  1.0048  0.1522 -0.7986
13418TIP3   OH240210   4.466   6.087   0.639 -0.0639 -0.1211 -0.1578
13418TIP3    H140211   4.471   5.991   0.635 -2.1468 -0.2451 -0.9532
13418TIP3    H240212   4.374   6.105   0.654  0.0003  1.8120 -1.7866
13419TIP3   OH240213   5.523   4.881   5.808 -0.2841 -0.2164 -0.2581
13419TIP3    H140214   5.479   4.804   5.846 -0.2446 -0.3031 -0.3855
13419TIP3    H240215   5.462   4.912   5.741 -1.0761  0.8754  0.9128
13420TIP3   OH240216   7.237   2.383   6.314  0.3204 -0.4284  0.1957
13420TIP3    H140217   7.180   2.349   6.245 -0.9861  1.6432  0.1380
13420TIP3    H240218   7.325   2.382   6.276 -0.4732  1.4902 -1.9399
13421TIP3   OH240219   0.015   5.282   5.134 -0.5159 -0.6351 -0.1241
13421TIP3    H140220   0.111   5.280   5.132 -0.4068  1.2106  0.8559
13421TIP3    H240221  -0.009   5.195   5.164  0.9831 -0.5345  1.5699
13422TIP3   OH240222   5.843   1.237   4.738  0.2421 -0.5812 -0.2670
13422TIP3    H140223   5.813   1.156   4.780 -1.2691  0.0150 -0.1606
13422TIP3    H240224   5.903   1.276   4.801  0.3048 -1.1877  0.0514
13423TIP3   OH240225   0.557   1.696   2.340  0.1200  0.6125  0.7542
13423TIP3    H140226   0.530   1.700   2.249  0.5162  2.5333  0.6980
13423TIP3    H240227   0.651   1.713   2.339  0.0250  1.2484  1.5641
13424TIP3   OH240228   3.518   2.646   1.125  0.5087  0.0290 -0.0414
13424TIP3    H140229   3.555   2.582   1.186 -2.0437 -1.9336 -0.3947
13424TIP3    H240230   3.439   2.678   1.168 -1.8230 -1.9933 -2.4480
13425TIP3   OH240231   1.376   4.216   5.050  0.3442  0.3097 -0.2119
13425TIP3    H140232   1.328   4.235   5.131  3.5722  0.1043  1.9460
13425TIP3    H240233   1.377   4.120   5.044  1.2069  0.2753  0.2891
13426TIP3   OH240234   6.004   5.494   3.498  0.0513 -0.4797 -0.2841
13426TIP3    H140235   5.925   5.494   3.552  0.5510  0.4241  0.4815
13426TIP3    H240236   6.033   5.403   3.498 -1.0348 -0.8525 -0.6707
13427TIP3   OH240237   7.071   2.083   4.058  0.0267 -0.3697  0.4638
13427TIP3    H140238   7.142   2.145   4.041  0.3855 -0.7350  0.6183
13427TIP3    H240239   7.003   2.105   3.994 -0.6650  1.4351  1.7112
13428TIP3   OH240240   2.930   3.975   5.377  0.1379  0.0192 -0.3828
13428TIP3    H140241   2.885   3.906   5.425 -1.4281  0.9125 -0.4870
13428TIP3    H240242   2.916   3.953   5.285 -0.4086  0.4657 -0.4164
13429TIP3   OH240243   7.103   1.447   6.589 -0.0508  0.0241 -0.2607
13429TIP3    H140244   7.092   1.354   6.606 -0.4355  0.0731 -0.2389
13429TIP3    H240245   7.079   1.457   6.496  1.3265 -0.1244 -0.6540
13430TIP3   OH240246   3.625   4.324   6.184  0.0437 -0.2728 -0.1225
13430TIP3    H140247   3.601   4.386   6.253  1.5005 -2.4230  2.5261
13430TIP3    H240248   3.700   4.276   6.221  1.3637 -1.1055 -3.5350
13431TIP3   OH240249   2.153   1.589   0.283  0.1141 -0.2202  0.5519
13431TIP3    H140250   2.128   1.604   0.374 -1.3821 -0.9676  0.3005
13431TIP3    H240251   2.069   1.581   0.237  0.5438  4.6505 -1.7484
13432TIP3   OH240252   5.169   4.750   0.858 -0.5981  0.7591  0.5521
13432TIP3    H140253   5.108   4.726   0.929 -1.3057  1.8212  0.3235
13432TIP3    H240254   5.158   4.680   0.793  0.9228 -0.8776  1.9447
13433TIP3   OH240255   2.030   7.331   5.992 -0.4964  0.3389 -0.4262
13433TIP3    H140256   2.014   7.333   6.087  1.3971  0.5860 -0.0667
13433TIP3    H240257   2.103   7.271   5.982 -0.4165  0.6261 -1.7014
13434TIP3   OH240258   0.566   6.063   4.369 -0.1775 -0.1866 -0.2165
13434TIP3    H140259   0.572   6.119   4.447 -0.7224  0.0776 -0.3604
13434TIP3    H240260   0.592   6.121   4.297 -0.2258 -0.2712 -0.3012
13435TIP3   OH240261   4.259   5.287   1.196  0.6049 -0.0497 -0.1815
13435TIP3    H140262   4.173   5.270   1.158  0.4039  0.9294 -0.1931
13435TIP3    H240263   4.240   5.341   1.273  1.0985 -1.0744  0.6811
13436TIP3   OH240264   7.335   4.473   0.819 -0.0671 -0.3440 -0.5879
13436TIP3    H140265   7.276   4.539   0.784  0.8118  0.0964 -1.2859
13436TIP3    H240266   7.280   4.419   0.876 -1.0457  0.2821 -0.9150
13437TIP3   OH240267   0.008   6.079   1.920  0.3075  0.3416 -0.3899
13437TIP3    H140268   0.032   6.141   1.988 -0.5272  1.5142 -1.1298
13437TIP3    H240269  -0.016   5.999   1.967  2.1044  0.2873  0.5401
13438TIP3   OH240270   7.505   3.765   4.404  0.3298 -0.5205 -1.0232
13438TIP3    H140271   7.546   3.803   4.326  0.2435 -0.2239 -0.9288
13438TIP3    H240272   7.446   3.834   4.435 -0.6416 -1.1437 -1.4586
13439TIP3   OH240273   5.526   4.541   3.691 -0.2002 -0.1466  0.1775
13439TIP3    H140274   5.569   4.598   3.755  1.1297 -0.5395 -0.3516
13439TIP3    H240275   5.562   4.567   3.607 -3.3136  1.6940 -0.7677
13440TIP3   OH240276   6.108   2.945   4.043  0.1368  0.0757 -0.4665
13440TIP3    H140277   6.177   2.928   4.107  0.1949 -1.5805 -0.8988
13440TIP3    H240278   6.142   2.907   3.962 -0.5185  0.8962 -1.1437
13441TIP3   OH240279   6.447   0.234   3.601 -0.7314  0.2721 -0.3975
13441TIP3    H140280   6.430   0.198   3.514 -1.3877 -0.4977  0.0267
13441TIP3    H240281   6.526   0.189   3.630 -1.3384 -0.5918 -0.0222
13442TIP3   OH240282   7.068   6.611   6.559 -0.3477 -0.1645  0.0938
13442TIP3    H140283   7.151   6.651   6.533 -0.5058  0.4704  0.5724
13442TIP3    H240284   7.059   6.629   6.652 -0.2344 -1.6513  0.4226
13443TIP3   OH240285   4.905   4.082   0.526 -0.1629  0.9499  0.2841
13443TIP3    H140286   4.854   4.021   0.579 -1.3443  2.8648  1.4934
13443TIP3    H240287   4.841   4.115   0.462  1.3129 -1.6220 -2.8166
13444TIP3   OH240288   1.978   5.862   0.145 -0.2730  0.6319  0.1453
13444TIP3    H140289   2.053   5.817   0.106 -1.5915 -1.2908 -0.3455
13444TIP3    H240290   2.001   5.954   0.143  1.2367  0.2857 -1.8934
13445TIP3   OH240291   0.215   4.119   3.160  0.1476 -0.5292 -0.2774
13445TIP3    H140292   0.303   4.126   3.197  0.6752  0.7059 -1.6784
13445TIP3    H240293   0.202   4.201   3.113 -1.2365 -1.2426 -1.2028
13446TIP3   OH240294   6.227   4.439   4.346 -0.8762 -1.0537  0.1924
13446TIP3    H140295   6.176   4.440   4.265  0.4953 -1.6210 -0.7289
13446TIP3    H240296   6.318   4.434   4.316 -0.3015 -0.6304  1.7726
13447TIP3   OH240297   3.868   6.114   1.475 -0.4978  0.1394  0.3528
13447TIP3    H140298   3.831   6.148   1.394 -0.6600 -0.4896  0.1606
13447TIP3    H240299   3.797   6.120   1.539 -0.4179  0.4835  0.4149
13448TIP3   OH240300   4.141   0.890   4.170  1.0202 -0.1912 -0.2934
13448TIP3    H140301   4.120   0.822   4.106 -0.3616 -0.2047  0.1404
13448TIP3    H240302   4.066   0.891   4.230  1.6162  0.8192  0.4712
13449TIP3   OH240303   1.470   5.707   5.229  0.0847  0.1679  0.7673
13449TIP3    H140304   1.412   5.684   5.156 -0.9250 -0.3795  1.7150
13449TIP3    H240305   1.410   5.736   5.298  1.0875  1.7098  1.0404
13450TIP3   OH240306   1.117   0.264   4.035  0.4054  0.0297  0.0694
13450TIP3    H140307   1.149   0.288   3.948 -0.8186 -1.2072 -0.7773
13450TIP3    H240308   1.166   0.186   4.059  0.6499  0.2939  0.4292
13451TIP3   OH240309   7.378   2.083   2.102 -0.3978  0.6160  0.2580
13451TIP3    H140310   7.373   1.994   2.066  1.0014  0.1380  1.1777
13451TIP3    H240311   7.291   2.119   2.087 -1.7170 -1.6776  1.7797
13452TIP3   OH240312   1.972   4.078   3.741  0.4421  0.3142  0.1036
13452TIP3    H140313   1.999   4.009   3.680 -1.8643 -0.6267  0.0451
13452TIP3    H240314   2.029   4.066   3.817  4.0604  2.1154 -2.0363
13453TIP3   OH240315   7.889   3.197   5.727 -0.9238  0.3511 -0.2067
13453TIP3    H140316   7.877   3.254   5.803 -1.5122 -0.7275  0.5418
13453TIP3    H240317   7.920   3.114   5.764 -2.1692 -0.5148 -1.0301
13454TIP3   OH240318   4.114   6.265   5.591 -0.6062  0.2117  0.4883
13454TIP3    H140319   4.102   6.356   5.564 -0.4553  0.3779  0.9794
13454TIP3    H240320   4.091   6.214   5.513  0.1535  0.6968 -0.0634
13455TIP3   OH240321   0.888   4.909   2.475  0.0308 -0.2940 -0.2375
13455TIP3    H140322   0.953   4.979   2.480  0.1868 -0.2923 -1.6582
13455TIP3    H240323   0.915   4.845   2.540  0.1598  0.7379  0.7460
13456TIP3   OH240324   2.217   2.937   0.899  0.4393  0.2895 -0.4485
13456TIP3    H140325   2.307   2.914   0.879  0.4821  0.0063  0.0453
13456TIP3    H240326   2.167   2.859   0.876  0.3623  0.3351 -0.4353
13457TIP3   OH240327   3.804   4.786   4.124  0.3473  0.1249 -0.2580
13457TIP3    H140328   3.798   4.881   4.138 -0.7432  0.0093  0.1218
13457TIP3    H240329   3.821   4.777   4.030  0.0372  0.6801 -0.3723
13458TIP3   OH240330   4.926   6.179   5.656 -0.1320  0.2833 -0.4652
13458TIP3    H140331   4.844   6.217   5.687 -0.8244 -1.9572  0.6983
13458TIP3    H240332   4.969   6.147   5.735  0.2600 -1.4932 -1.3292
13459TIP3   OH240333   6.369   5.136   2.149  0.1546  0.3016  0.2537
13459TIP3    H140334   6.328   5.097   2.072  2.6361 -2.1649  0.0094
13459TIP3    H240335   6.309   5.117   2.221  0.4288 -2.7010 -0.1704
13460TIP3   OH240336   6.709   4.323   6.124  0.0875 -0.0416 -0.3839
13460TIP3    H140337   6.773   4.387   6.093 -1.2313  2.0064  0.9102
13460TIP3    H240338   6.626   4.351   6.085 -0.6538 -0.5370  0.7956
13461TIP3   OH240339   8.156   6.140   4.183 -0.1771 -0.4866 -0.0056
13461TIP3    H140340   8.177   6.047   4.179  1.3897 -0.3176  2.3306
13461TIP3    H240341   8.240   6.184   4.165 -0.9371  0.5144 -1.2885
13462TIP3   OH240342   8.011   5.566   5.828  0.2609  0.4096  0.3739
13462TIP3    H140343   7.979   5.605   5.910  0.6040 -0.6480  1.0302
13462TIP3    H240344   7.951   5.494   5.810  0.4712  0.3354 -0.0433
13463TIP3   OH240345   4.021   3.509   4.825 -0.1928  0.1789  0.0733
13463TIP3    H140346   4.084   3.549   4.765  1.0316  0.7804  1.6781
13463TIP3    H240347   4.037   3.415   4.818  0.4782  0.2915  0.0071
13464TIP3   OH240348   0.179   2.750   0.876 -0.1424 -0.3882  0.2236
13464TIP3    H140349   0.151   2.841   0.875  0.9236 -0.0540 -1.0217
13464TIP3    H240350   0.192   2.728   0.784  2.4015 -0.9036  0.6416
13465TIP3   OH240351   1.147   7.557   2.426 -0.2061  0.1006  0.6566
13465TIP3    H140352   1.165   7.509   2.508 -0.6998 -0.2423  0.5713
13465TIP3    H240353   1.195   7.639   2.435  2.5532 -1.2897 -0.1295
13466TIP3   OH240354   4.389   3.250   6.171  0.1432  0.1783 -0.2475
13466TIP3    H140355   4.307   3.204   6.183 -0.2385  0.8270 -0.3230
13466TIP3    H240356   4.416   3.230   6.082 -2.1367  3.3678 -1.8398
13467TIP3   OH240357   7.075   5.478   0.583  0.0939  0.0819  0.4735
13467TIP3    H140358   7.112   5.548   0.635 -0.4799  0.3816  0.4891
13467TIP3    H240359   7.021   5.523   0.517  0.3071 -0.3129  0.0276
13468TIP3   OH240360   2.033   5.118   1.627 -0.1759 -0.7936 -0.6074
13468TIP3    H140361   1.986   5.040   1.598 -0.2749 -0.3891 -1.5512
13468TIP3    H240362   1.966   5.173   1.667  0.0592 -1.6082  0.9995
13469TIP3   OH240363   3.612   4.976   1.542  0.3830  0.0199 -0.8016
13469TIP3    H140364   3.680   5.042   1.525  0.0379  0.4706 -0.4605
13469TIP3    H240365   3.591   4.987   1.635  0.4822 -0.7334 -0.6830
13470TIP3   OH240366   7.110   2.013   5.095 -0.5071 -0.2435 -0.1149
13470TIP3    H140367   7.090   2.012   5.001  1.8853  0.7386 -0.6982
13470TIP3    H240368   7.205   2.013   5.100 -0.5581  0.6381  2.3123
13471TIP3   OH240369   6.586   1.425   0.710  0.0217  0.4964 -0.0191
13471TIP3    H140370   6.648   1.485   0.667  2.7168 -1.7842  0.3370
13471TIP3    H240371   6.557   1.367   0.639  1.4360 -0.8385  0.4239
13472TIP3   OH240372   2.106   4.346   0.978 -0.5172 -0.5944 -0.7825
13472TIP3    H140373   2.110   4.250   0.970 -1.0065 -0.7351  0.3352
13472TIP3    H240374   2.170   4.379   0.915 -0.8943 -1.6304 -1.7405
13473TIP3   OH240375   7.873   0.169   4.877  0.5190  0.5377 -0.0779
13473TIP3    H140376   7.950   0.187   4.931  0.0731  2.9573 -0.1347
13473TIP3    H240377   7.887   0.221   4.797 -1.3407  1.4460  0.1204
13474TIP3   OH240378   3.429   3.641   1.442 -0.5121  0.0830 -0.1482
13474TIP3    H140379   3.416   3.591   1.362 -2.8943 -0.9236  0.7776
13474TIP3    H240380   3.430   3.575   1.512 -2.1688  1.1300  0.9522
13475TIP3   OH240381   2.937   0.299   1.249 -0.3469 -0.1356 -0.5995
13475TIP3    H140382   2.995   0.371   1.224  0.1295 -0.1814  0.3226
13475TIP3    H240383   2.964   0.225   1.195 -0.4672  0.2159 -1.1507
13476TIP3   OH240384   4.231   0.819   5.660 -0.0076  0.4863  0.5528
13476TIP3    H140385   4.173   0.786   5.592  0.7510  1.5079 -0.6371
13476TIP3    H240386   4.248   0.744   5.717 -1.1620 -0.2224 -0.0135
13477TIP3   OH240387   6.139   2.302   0.332  0.3156 -0.1531 -0.5533
13477TIP3    H140388   6.167   2.371   0.272 -0.8490  0.6324 -0.2285
13477TIP3    H240389   6.145   2.340   0.419  0.4388 -0.7405 -0.2953
13478TIP3   OH240390   6.709   7.613   5.181 -0.2798 -0.0409 -0.7508
13478TIP3    H140391   6.773   7.575   5.241  0.8412  1.9473 -0.6125
13478TIP3    H240392   6.656   7.539   5.153 -0.8259 -1.0935  2.6370
13479TIP3   OH240393   6.478   4.610   3.689  0.2046  0.2815  0.4296
13479TIP3    H140394   6.501   4.517   3.693 -0.1030  0.1742 -0.1411
13479TIP3    H240395   6.533   4.651   3.755  0.6489 -0.2457  0.3956
13480TIP3   OH240396   5.884   7.388   2.185  0.0218  0.4016  0.1337
13480TIP3    H140397   5.855   7.372   2.095 -1.8827 -0.6046  0.8794
13480TIP3    H240398   5.834   7.464   2.213 -0.6973 -0.3362  0.8977
13481TIP3   OH240399   3.306   5.105   0.874  0.4379 -0.6126 -0.2827
13481TIP3    H140400   3.331   5.020   0.836 -0.4208 -0.9354 -0.1489
13481TIP3    H240401   3.216   5.092   0.904  0.7460 -0.0624  0.9572
13482TIP3   OH240402   2.738   4.222   1.728 -0.1948 -0.2669  0.0155
13482TIP3    H140403   2.681   4.189   1.797 -2.3700  0.8344 -1.1350
13482TIP3    H240404   2.825   4.221   1.766 -1.1803 -0.5049  2.4664
13483TIP3   OH240405   5.276   0.986   0.218  0.1184  0.2949 -0.4798
13483TIP3    H140406   5.357   0.999   0.169  0.3068  1.0188  0.0009
13483TIP3    H240407   5.213   1.045   0.177 -0.2340 -0.4229 -0.9885
13484TIP3   OH240408   6.669   2.396   3.050 -0.1585  0.1709  0.0421
13484TIP3    H140409   6.721   2.465   3.008  0.3652  1.4849  2.6359
13484TIP3    H240410   6.699   2.315   3.009  1.2609  1.2444 -1.1302
13485TIP3   OH240411   6.212   3.704   2.780  0.3772 -0.1590 -0.0920
13485TIP3    H140412   6.164   3.624   2.803  0.2378 -0.0303  0.0661
13485TIP3    H240413   6.303   3.684   2.800  0.6127 -0.9203 -1.7430
13486TIP3   OH240414   6.853   0.308   5.402  0.3600 -0.1400 -0.3015
13486TIP3    H140415   6.863   0.378   5.337 -0.8228 -0.0871 -0.4490
13486TIP3    H240416   6.906   0.337   5.476 -0.1544  0.9682 -0.3348
13487TIP3   OH240417   0.353   7.761   2.924 -0.1087  0.0693  0.0670
13487TIP3    H140418   0.337   7.786   2.833 -2.6872 -1.0363  0.1444
13487TIP3    H240419   0.285   7.807   2.974 -0.7297 -1.8032  1.0128
13488TIP3   OH240420   4.245   4.381   5.500  0.2264 -0.2763  0.0016
13488TIP3    H140421   4.206   4.465   5.525 -0.2137  0.1952 -2.0958
13488TIP3    H240422   4.204   4.317   5.557 -1.9303  0.5225 -0.5668
13489TIP3   OH240423   5.853   4.660   0.550  0.0754 -0.0370  0.3221
13489TIP3    H140424   5.836   4.754   0.551 -1.2884 -0.2266  3.0755
13489TIP3    H240425   5.768   4.620   0.530  0.5051 -0.7167 -0.2062
13490TIP3   OH240426   5.896   1.872   1.134  0.1514 -0.1863  0.0015
13490TIP3    H140427   5.964   1.836   1.078  0.4159  0.7713 -0.3230
13490TIP3    H240428   5.909   1.830   1.219  1.4515  0.3319  0.0697
13491TIP3   OH240429   1.129   7.741   6.394 -0.2948 -0.0849 -0.0127
13491TIP3    H140430   1.099   7.650   6.399 -0.1417 -0.1537 -0.3260
13491TIP3    H240431   1.137   7.769   6.485  1.4871 -0.9881  0.1447
13492TIP3   OH240432   0.940   2.688   1.479 -0.0199  0.3110  0.2356
13492TIP3    H140433   0.949   2.770   1.430 -0.8782  0.5014  0.3968
13492TIP3    H240434   0.928   2.716   1.570 -0.7545  0.0275  0.2300
13493TIP3   OH240435   5.820   3.569   2.773 -0.1997 -0.1564 -0.0835
13493TIP3    H140436   5.819   3.661   2.746 -0.0482  0.3049  1.3883
13493TIP3    H240437   5.729   3.540   2.762 -0.1058 -0.0644 -1.2364
13494TIP3   OH240438   1.023   5.847   6.152 -0.0840  0.1737 -0.6226
13494TIP3    H140439   0.936   5.828   6.117 -0.9100  0.1588  1.3386
13494TIP3    H240440   1.011   5.926   6.204  1.2072  0.4929 -0.7876
13495TIP3   OH240441   2.759   6.928   5.487 -0.0101  0.2769 -0.4401
13495TIP3    H140442   2.843   6.975   5.489 -0.7515  1.6257  0.9486
13495TIP3    H240443   2.706   6.976   5.424  0.1676 -0.4767 -1.1909
13496TIP3   OH240444   6.015   0.249   1.687  0.2145  0.0212  0.6001
13496TIP3    H140445   5.959   0.326   1.690 -0.1643 -0.2852  2.5189
13496TIP3    H240446   5.987   0.196   1.761  0.7852 -1.7599 -0.4083
13497TIP3   OH240447   3.844   6.628   4.831  0.0841 -0.0656  0.1925
13497TIP3    H140448   3.858   6.713   4.874 -0.2208  0.9551 -1.6161
13497TIP3    H240449   3.932   6.589   4.826  0.1455 -0.1426  1.5529
13498TIP3   OH240450   4.748   4.936   4.303 -0.1247  0.2448  0.0773
13498TIP3    H140451   4.823   4.980   4.341  1.2823 -1.6805 -0.3386
13498TIP3    H240452   4.723   4.991   4.228  1.0484  0.7767  0.0666
13499TIP3   OH240453   0.827   4.561   4.784  0.0389 -0.1489 -0.6262
13499TIP3    H140454   0.920   4.556   4.763  0.0212 -0.0323 -0.7385
13499TIP3    H240455   0.813   4.493   4.850  0.1105 -0.4769 -0.9457
13500TIP3   OH240456   0.127   3.396   3.775  0.4837 -0.3768  0.2797
13500TIP3    H140457   0.076   3.422   3.852  2.0124  1.3916  0.7714
13500TIP3    H240458   0.080   3.321   3.739 -1.0407 -0.3814  2.1326
13501TIP3   OH240459   2.433   4.595   1.182  0.1576 -0.2170  0.7304
13501TIP3    H140460   2.524   4.625   1.179  0.2382 -0.2927  1.8262
13501TIP3    H240461   2.422   4.542   1.104 -0.1956  3.1811 -1.7366
13502TIP3   OH240462   0.221   6.788   0.917 -0.3138 -0.7868  1.1079
13502TIP3    H140463   0.232   6.706   0.870 -1.2929 -0.5080  0.3654
13502TIP3    H240464   0.127   6.794   0.934 -0.2744  0.2240  1.0531
13503TIP3   OH240465   4.473   4.497   6.257  0.4450 -0.0731 -0.3763
13503TIP3    H140466   4.540   4.513   6.190 -0.6064 -0.2922 -1.5136
13503TIP3    H240467   4.440   4.409   6.237 -0.9455  0.4677 -0.5344
13504TIP3   OH240468   0.304   3.047   4.531 -0.1514 -0.7707  0.1350
13504TIP3    H140469   0.210   3.033   4.516 -0.5118  0.4410  1.1355
13504TIP3    H240470   0.332   3.103   4.459 -0.8513  1.1697  1.2820
13505TIP3   OH240471   6.464   1.500   3.985  0.2937  0.4782 -0.1040
13505TIP3    H140472   6.534   1.453   4.031 -1.0161 -0.3820  1.1272
13505TIP3    H240473   6.422   1.553   4.053 -0.2145  1.0398 -0.8316
13506TIP3   OH240474   5.041   0.860   3.924 -0.2164  0.2842  0.2033
13506TIP3    H140475   4.948   0.848   3.944 -0.2321  0.5284  0.2885
13506TIP3    H240476   5.083   0.781   3.957 -0.1782  0.8811  1.6527
13507TIP3   OH240477   2.009   2.777   3.037 -0.6563 -0.2359 -0.2310
13507TIP3    H140478   2.066   2.736   2.972 -1.1041 -1.1309 -0.0710
13507TIP3    H240479   2.067   2.802   3.108 -0.2400  0.2687 -0.7341
13508TIP3   OH240480   2.345   1.303   3.077  0.1840  0.5352 -0.0397
13508TIP3    H140481   2.374   1.299   2.986 -0.4091 -0.4247 -0.1987
13508TIP3    H240482   2.290   1.381   3.081  0.9725  1.1113 -0.2680
13509TIP3   OH240483   2.904   2.747   4.919  0.0280  0.0558  0.3876
13509TIP3    H140484   2.937   2.753   4.829  0.5210  0.0726  0.5644
13509TIP3    H240485   2.851   2.667   4.920  1.2435 -0.7900  0.4519
13510TIP3   OH240486   7.149   1.307   1.048  0.3566  0.0771 -0.0706
13510TIP3    H140487   7.063   1.266   1.043  1.3970 -2.5541  1.2522
13510TIP3    H240488   7.195   1.258   1.117  2.0730  3.0451  1.1321
13511TIP3   OH240489   1.773   5.048   0.075 -0.0264 -0.2190  0.0105
13511TIP3    H140490   1.736   4.984   0.014  0.2650 -0.2546 -0.1313
13511TIP3    H240491   1.810   5.117   0.019  0.2856 -0.2752  0.1427
13512TIP3   OH240492   2.255   1.201   4.857 -0.4207  0.1687 -0.1974
13512TIP3    H140493   2.174   1.182   4.810 -1.1712 -0.0724  1.1398
13512TIP3    H240494   2.235   1.278   4.910  0.1670  0.0118  0.2707
13513TIP3   OH240495   2.580   7.154   3.488  0.1138  0.1908  0.3262
13513TIP3    H140496   2.502   7.183   3.439  1.3115  2.0644 -0.6076
13513TIP3    H240497   2.568   7.191   3.575  0.3709  1.2872 -0.0884
13514TIP3   OH240498   3.180   7.432   3.956  0.3284 -0.3469  0.2749
13514TIP3    H140499   3.184   7.527   3.959  0.2181 -0.2641 -1.2345
13514TIP3    H240500   3.263   7.402   3.994 -0.0157  0.3114  1.5721
13515TIP3   OH240501   2.141   2.830   1.946 -0.3889 -0.3644 -0.1472
13515TIP3    H140502   2.120   2.844   1.853  0.7931  1.1231 -0.2237
13515TIP3    H240503   2.166   2.738   1.951 -1.7825 -0.8147 -1.0305
13516TIP3   OH240504   0.862   1.262   5.392  0.4987  0.1282 -0.1022
13516TIP3    H140505   0.839   1.344   5.437  1.8867  0.3194  0.3398
13516TIP3    H240506   0.934   1.287   5.333  0.9297 -0.7658  0.0274
13517TIP3   OH240507   5.507   4.595   6.728 -0.2936 -0.5144 -0.0236
13517TIP3    H140508   5.553   4.608   6.811 -0.6422  1.5098 -0.1088
13517TIP3    H240509   5.419   4.565   6.754 -0.8257  1.3198  0.4511
13518TIP3   OH240510   6.224   4.440   3.701 -0.7523  0.3922 -0.7076
13518TIP3    H140511   6.206   4.457   3.608 -0.8589 -0.1656 -0.7916
13518TIP3    H240512   6.260   4.522   3.733 -2.8840  1.4037 -0.6759
13519TIP3   OH240513   1.126   1.601   4.636  0.1416 -0.1890  0.1735
13519TIP3    H140514   1.085   1.633   4.716  1.4366 -2.0587  1.6522
13519TIP3    H240515   1.220   1.617   4.648  0.2046  1.6998 -2.0591
13520TIP3   OH240516   5.532   2.382   0.759 -0.5746  0.4954  0.2161
13520TIP3    H140517   5.491   2.358   0.676  0.6433  0.3647 -0.3629
13520TIP3    H240518   5.489   2.326   0.824 -1.1836  0.2435 -0.3951
13521TIP3   OH240519   4.796   4.534   3.966 -0.3582  0.4118  0.0729
13521TIP3    H140520   4.863   4.579   4.017 -3.0649  2.0504  2.4375
13521TIP3    H240521   4.752   4.477   4.029 -0.2452 -1.8702 -1.7773
13522TIP3   OH240522   6.588   0.551   6.528  0.1811  0.5588  0.4788
13522TIP3    H140523   6.657   0.484   6.526  0.1392  0.5237  0.1218
13522TIP3    H240524   6.520   0.514   6.585 -0.5875 -0.4454 -1.0245
13523TIP3   OH240525   0.109   2.295   1.153 -0.8103 -0.0246 -0.5712
13523TIP3    H140526   0.142   2.260   1.070 -1.4213  0.5989 -1.0957
13523TIP3    H240527   0.109   2.390   1.139 -0.5771  0.1005  0.2750
13524TIP3   OH240528   8.099   7.364   4.305 -0.0834 -0.2905 -0.3731
13524TIP3    H140529   8.025   7.420   4.284  0.0011  0.0851  0.3342
13524TIP3    H240530   8.141   7.348   4.220  0.8052  1.9896 -0.4147
13525TIP3   OH240531   5.851   6.264   5.563 -0.0317 -0.3273 -0.0684
13525TIP3    H140532   5.892   6.285   5.479  1.3577  1.9280  1.0641
13525TIP3    H240533   5.757   6.279   5.548  0.0703 -0.8087 -1.3996
13526TIP3   OH240534   3.429   6.589   2.989  0.0027 -0.2496 -0.2852
13526TIP3    H140535   3.346   6.572   3.034 -0.3985 -1.3518 -1.3873
13526TIP3    H240536   3.492   6.532   3.033 -0.5409 -1.8785 -1.5164
13527TIP3   OH240537   4.716   4.379   2.997 -0.4143  0.8931  0.0228
13527TIP3    H140538   4.689   4.300   3.044 -0.4746  1.1597  0.4390
13527TIP3    H240539   4.791   4.412   3.046 -0.4978  1.1909 -0.0506
13528TIP3   OH240540   8.090   2.332   1.007 -0.1394 -0.1105  0.4966
13528TIP3    H140541   8.057   2.282   1.082 -1.1495  0.7712  0.6556
13528TIP3    H240542   8.105   2.420   1.041  2.0336 -0.3518  0.3178
13529TIP3   OH240543   7.604   1.690   4.359 -0.0636 -0.2969  0.4282
13529TIP3    H140544   7.673   1.700   4.425  0.4353  4.1531 -0.4585
13529TIP3    H240545   7.646   1.643   4.287  1.2442 -0.0195  0.9756
13530TIP3   OH240546   5.901   3.751   3.736  0.1378  0.3176 -0.1645
13530TIP3    H140547   5.916   3.659   3.758  1.8399  0.5460 -0.3001
13530TIP3    H240548   5.806   3.757   3.725 -0.0399 -1.3393  0.1909
13531TIP3   OH240549   5.572   7.538   6.043 -0.2588 -0.4771  0.3274
13531TIP3    H140550   5.491   7.588   6.050  0.1124  0.2163 -0.2419
13531TIP3    H240551   5.543   7.448   6.025 -0.8817 -0.0641 -0.8036
13532TIP3   OH240552   7.883   3.206   4.927  0.4042 -0.0331 -0.2614
13532TIP3    H140553   7.828   3.285   4.927  0.7645  0.2256 -0.8792
13532TIP3    H240554   7.862   3.163   5.009 -0.5782  0.1699 -0.3887
13533TIP3   OH240555   0.919   0.690   2.373  0.3030 -0.3301 -0.1025
13533TIP3    H140556   0.873   0.655   2.296 -0.5506  0.5168  0.0122
13533TIP3    H240557   0.991   0.741   2.336 -1.0208  1.3887 -0.4385
13534TIP3   OH240558   3.066   7.107   1.217 -0.2558 -0.4126  0.4287
13534TIP3    H140559   3.038   7.036   1.160 -1.3451  0.5645 -0.2978
13534TIP3    H240560   3.067   7.184   1.161 -1.3181  0.5804  1.6850
13535TIP3   OH240561   1.968   3.218   6.133 -0.5911 -0.3595  0.1194
13535TIP3    H140562   1.930   3.305   6.123  0.6241  0.3809  1.5918
13535TIP3    H240563   2.002   3.196   6.047 -0.8911  0.6349 -0.2648
13536TIP3   OH240564   7.559   4.565   4.006  0.2918 -0.7168 -0.5199
13536TIP3    H140565   7.611   4.581   4.084  0.6068  0.0630 -0.8671
13536TIP3    H240566   7.606   4.613   3.937 -0.5328 -0.5361 -0.9660
13537TIP3   OH240567   1.239   5.423   3.707 -0.3168  0.1987  0.4442
13537TIP3    H140568   1.299   5.423   3.782  1.1366  1.2797 -0.6708
13537TIP3    H240569   1.175   5.491   3.728  1.5662  2.3365 -0.3575
13538TIP3   OH240570   5.870   3.565   4.089  0.1874  0.0607 -0.0780
13538TIP3    H140571   5.796   3.622   4.112 -1.0989 -1.7186  0.3645
13538TIP3    H240572   5.854   3.540   3.998 -0.2648 -1.0331  0.2859
13539TIP3   OH240573   5.731   2.531   4.537 -0.0802  0.1409  0.3630
13539TIP3    H140574   5.782   2.522   4.456  0.1941  0.3860  0.5093
13539TIP3    H240575   5.703   2.442   4.558  2.0051 -0.3210  1.4022
13540TIP3   OH240576   6.324   5.765   1.756  0.4770 -0.2897 -0.5137
13540TIP3    H140577   6.343   5.858   1.768  1.2284 -0.4638 -0.2546
13540TIP3    H240578   6.402   5.721   1.790 -0.7841 -1.1197  1.4634
13541TIP3   OH240579   0.211   0.459   3.345 -1.1478  0.0650  0.4152
13541TIP3    H140580   0.244   0.506   3.421  0.2703  1.0791 -0.7755
13541TIP3    H240581   0.243   0.509   3.270 -0.0157 -2.5053 -0.9255
13542TIP3   OH240582   4.951   1.907   4.225  0.1514  0.2378  0.0259
13542TIP3    H140583   4.957   1.950   4.140  1.1772  0.3920  0.1608
13542TIP3    H240584   4.898   1.967   4.278  2.2723  1.8775  0.4726
13543TIP3   OH240585   7.444   7.031   0.569  0.7351  0.3058  0.1649
13543TIP3    H140586   7.534   7.063   0.568  0.7862  0.1549 -0.7409
13543TIP3    H240587   7.412   7.046   0.480  0.6124 -1.7091 -0.1775
13544TIP3   OH240588   1.752   2.496   4.736  0.2650 -0.1766  0.3091
13544TIP3    H140589   1.840   2.468   4.763 -0.0928 -0.4513  1.2260
13544TIP3    H240590   1.693   2.454   4.799 -0.5577 -0.2940 -0.5174
13545TIP3   OH240591   5.810   5.397   6.017 -0.3914 -0.0590 -0.3252
13545TIP3    H140592   5.859   5.439   6.087 -0.8051 -0.4154  0.1802
13545TIP3    H240593   5.746   5.463   5.990 -0.1023  0.1489 -0.5055
13546TIP3   OH240594   3.672   2.545   0.452 -0.1682  0.2479 -0.0114
13546TIP3    H140595   3.730   2.608   0.496 -0.0374  0.4051 -0.4116
13546TIP3    H240596   3.600   2.533   0.514  1.4361 -1.8209  1.6335
13547TIP3   OH240597   3.190   6.887   1.906  0.8842  0.4946 -0.1761
13547TIP3    H140598   3.142   6.889   1.824 -0.6866 -1.4490  0.6225
13547TIP3    H240599   3.256   6.819   1.895  1.3107  0.8931 -0.1392
13548TIP3   OH240600   6.714   4.957   3.591  1.0941  0.3843  0.1895
13548TIP3    H140601   6.727   4.866   3.565 -0.2817 -0.0619  0.9804
13548TIP3    H240602   6.676   4.999   3.513 -1.2638 -0.5066  0.7902
13549TIP3   OH240603   1.934   2.773   4.768  0.0692  0.7936  0.2466
13549TIP3    H140604   2.008   2.761   4.827  1.4072 -1.7966 -1.7486
13549TIP3    H240605   1.858   2.781   4.826  1.1540 -2.4570  2.3982
13550TIP3   OH240606   7.699   7.495   6.752  0.1962 -0.5949 -0.0733
13550TIP3    H140607   7.604   7.482   6.747 -0.3305  1.9901  1.2687
13550TIP3    H240608   7.718   7.554   6.678  0.3171  0.7122  0.9655
13551TIP3   OH240609   3.090   0.771   3.435 -0.2530  0.5416 -0.1068
13551TIP3    H140610   3.101   0.720   3.354  0.7025 -0.1196  0.4214
13551TIP3    H240611   3.019   0.727   3.481 -0.2121  0.3918 -0.1859
13552TIP3   OH240612   7.961   4.289   1.084  0.0401 -0.0800  0.4018
13552TIP3    H140613   7.897   4.218   1.088  0.3354 -0.3760 -0.0916
13552TIP3    H240614   7.934   4.341   1.009 -0.5293  0.6815  1.1146
13553TIP3   OH240615   7.692   1.978   5.401  0.5506  0.2619 -0.0590
13553TIP3    H140616   7.637   1.905   5.427 -0.3567 -0.0078 -2.5208
13553TIP3    H240617   7.758   1.939   5.344  1.4125  1.0629  0.3585
13554TIP3   OH240618   8.035   5.814   6.362  0.2828 -0.5047  0.7567
13554TIP3    H140619   7.947   5.813   6.400  0.7235 -0.2051  1.8133
13554TIP3    H240620   8.024   5.857   6.278 -0.1009  2.4095  2.1637
13555TIP3   OH240621   5.937   7.545   6.629  0.0747 -0.2462 -0.2503
13555TIP3    H140622   6.020   7.555   6.584 -0.3579 -0.7942 -1.1910
13555TIP3    H240623   5.933   7.620   6.689  0.2381  1.0163 -1.7754
13556TIP3   OH240624   6.494   0.668   2.501 -0.3205 -0.5739  0.2943
13556TIP3    H140625   6.538   0.748   2.474 -0.7766 -0.5839 -0.5395
13556TIP3    H240626   6.427   0.654   2.433 -0.9097 -1.1066  0.9716
13557TIP3   OH240627   5.866   6.855   2.878  0.4113 -0.0717 -0.0754
13557TIP3    H140628   5.798   6.865   2.945 -0.8011 -1.0721 -1.1140
13557TIP3    H240629   5.829   6.895   2.800  0.4704 -1.7610 -0.9933
13558TIP3   OH240630   7.895   0.430   3.983 -0.3201 -0.0404  0.1725
13558TIP3    H140631   7.906   0.462   3.894  0.8578  1.2941  0.7667
13558TIP3    H240632   7.809   0.462   4.009 -0.5993 -0.2931 -0.4229
13559TIP3   OH240633   6.297   1.208   2.139  0.1295  0.1603  0.1116
13559TIP3    H140634   6.378   1.208   2.190 -1.2587 -1.3439  2.4816
13559TIP3    H240635   6.241   1.271   2.184 -0.7569 -0.3742 -0.2194
13560TIP3   OH240636   7.586   6.748   5.252  0.0313 -0.3182  0.4027
13560TIP3    H140637   7.653   6.815   5.236  0.7064 -1.2095 -0.6922
13560TIP3    H240638   7.556   6.766   5.340  2.0046 -0.1017  1.0963
13561TIP3   OH240639   4.806   2.277   5.654 -0.3215  0.1570  0.5682
13561TIP3    H140640   4.820   2.318   5.740 -2.4107  1.0074  0.5760
13561TIP3    H240641   4.844   2.338   5.591  2.2313 -1.0015  0.8837
13562TIP3   OH240642   2.374   6.683   1.145 -0.4672  0.1240 -0.5719
13562TIP3    H140643   2.284   6.669   1.115 -0.2937 -1.5840 -0.4084
13562TIP3    H240644   2.385   6.621   1.216  0.0242  2.1680  1.2459
13563TIP3   OH240645   3.569   2.831   2.951 -0.2428 -0.2142 -0.2591
13563TIP3    H140646   3.606   2.789   2.874  3.1614  1.9367 -0.0107
13563TIP3    H240647   3.567   2.924   2.928 -1.0747  0.2592  1.5493
13564TIP3   OH240648   2.240   1.950   5.997  0.5801 -0.6899  0.4584
13564TIP3    H140649   2.334   1.944   5.984  0.2642 -1.4974 -1.8929
13564TIP3    H240650   2.225   1.917   6.086  2.2239 -3.6258 -0.2366
13565TIP3   OH240651   1.904   0.817   4.901  0.0753 -0.0021 -0.7867
13565TIP3    H140652   1.848   0.881   4.858  1.7219  2.2858  0.2065
13565TIP3    H240653   1.974   0.800   4.838  0.3281  0.1901 -0.5598
13566TIP3   OH240654   5.633   3.294   5.496 -0.5381 -0.0982  0.3673
13566TIP3    H140655   5.563   3.238   5.530  0.2091 -1.7319 -0.6297
13566TIP3    H240656   5.713   3.256   5.532 -0.1466  2.4406  2.4329
13567TIP3   OH240657   3.699   0.685   4.334  0.2264  0.3400  0.1933
13567TIP3    H140658   3.649   0.679   4.416  2.5644 -2.3478  1.5936
13567TIP3    H240659   3.643   0.642   4.269  0.0507 -1.3402  1.3938
13568TIP3   OH240660   4.086   1.706   1.100  0.3007 -0.5041 -0.2954
13568TIP3    H140661   4.149   1.690   1.170  0.4496  1.0061 -0.0441
13568TIP3    H240662   4.002   1.713   1.145  0.3715  0.2843 -0.2642
13569TIP3   OH240663   0.760   2.959   5.828 -0.1150  0.1048 -0.1907
13569TIP3    H140664   0.791   2.889   5.772  0.3731  0.6275 -0.5888
13569TIP3    H240665   0.741   3.032   5.768 -1.1638  0.1306  0.1505
13570TIP3   OH240666   0.640   3.048   6.746 -0.0849  0.0930 -0.1892
13570TIP3    H140667   0.676   3.136   6.738  0.7818 -0.2835 -0.6063
13570TIP3    H240668   0.707   2.991   6.706  2.5096 -1.5512  5.5090
13571TIP3   OH240669   0.094   2.394   0.687 -0.1721  0.2845  0.1316
13571TIP3    H140670   0.160   2.414   0.621 -1.6388  0.4907 -1.3395
13571TIP3    H240671   0.013   2.381   0.637 -1.3927  0.6901  1.9117
13572TIP3   OH240672   4.165   1.663   5.899 -0.1838  0.4841  0.4059
13572TIP3    H140673   4.169   1.738   5.840 -0.5980  0.0031 -0.2452
13572TIP3    H240674   4.075   1.633   5.895 -0.1906  0.3582  1.1884
13573TIP3   OH240675   0.883   7.309   0.986  0.1855 -1.3953  0.1176
13573TIP3    H140676   0.841   7.310   1.072  0.2400  0.0996  0.1566
13573TIP3    H240677   0.977   7.315   1.005  0.1294  1.2897 -0.0048
13574TIP3   OH240678   5.649   0.427   4.641  0.0803  1.2684  0.1936
13574TIP3    H140679   5.668   0.448   4.550  0.9038  0.4442  0.1651
13574TIP3    H240680   5.554   0.416   4.644  0.1765  0.0196 -0.8402
13575TIP3   OH240681   7.643   1.327   4.913  0.4561  0.7076 -0.0042
13575TIP3    H140682   7.722   1.369   4.879  0.3060 -0.4010 -1.8459
13575TIP3    H240683   7.675   1.255   4.967  0.7118  0.5210 -0.4028
13576TIP3   OH240684   4.896   3.531   6.099  0.3071  0.4894  0.2246
13576TIP3    H140685   4.913   3.617   6.137  2.2826  0.9582 -1.4981
13576TIP3    H240686   4.974   3.479   6.121 -0.2862 -0.4510  0.1508
13577TIP3   OH240687   6.616   3.741   3.881  0.1480  0.0431 -0.1229
13577TIP3    H140688   6.647   3.771   3.795 -0.1307  1.6887  0.3233
13577TIP3    H240689   6.695   3.717   3.928  0.4959  1.1212 -0.1323
13578TIP3   OH240690   0.830   3.081   2.249  0.5142 -0.1394  0.0505
13578TIP3    H140691   0.784   3.004   2.214  1.3743 -0.4216 -0.4727
13578TIP3    H240692   0.922   3.057   2.248  0.6403  0.1051  1.8895
13579TIP3   OH240693   8.040   2.542   4.064  0.2966  0.8750 -0.4984
13579TIP3    H140694   8.033   2.491   4.144  1.5454  0.3899 -0.6793
13579TIP3    H240695   7.951   2.577   4.050 -0.2303 -0.0417  0.4115
13580TIP3   OH240696   8.162   0.198   5.945 -0.3183 -0.3690  0.1696
13580TIP3    H140697   8.242   0.153   5.919 -0.7573 -1.1481  0.1497
13580TIP3    H240698   8.116   0.214   5.862 -0.3791 -0.2779  0.2205
13581TIP3   OH240699   5.126   1.940   4.441  0.0683 -0.6867  0.5685
13581TIP3    H140700   5.153   2.031   4.427  0.9599 -1.1185 -0.7307
13581TIP3    H240701   5.047   1.931   4.387 -0.2168 -0.5929  0.9685
13582TIP3   OH240702   1.641   7.260   6.017  0.0357  0.4283 -0.4335
13582TIP3    H140703   1.658   7.196   6.087 -0.6881  0.1455 -0.5009
13582TIP3    H240704   1.572   7.316   6.053 -1.1877 -0.4374 -1.3260
13583TIP3   OH240705   4.129   1.549   6.355  0.1211 -0.1072  0.6881
13583TIP3    H140706   4.174   1.466   6.370  0.1091 -0.3435 -0.4690
13583TIP3    H240707   4.114   1.585   6.442  0.9884 -0.8591  1.1594
13584TIP3   OH240708   2.230   1.524   1.363  0.6154  0.0476 -0.0466
13584TIP3    H140709   2.285   1.559   1.433  0.7892 -0.4206  0.0570
13584TIP3    H240710   2.143   1.559   1.381  0.9480  1.1449 -0.4511
13585TIP3   OH240711   2.805   1.138   6.445  0.2795  0.3870  0.2875
13585TIP3    H140712   2.728   1.108   6.399  0.1913  0.8605  0.1172
13585TIP3    H240713   2.834   1.063   6.497  0.9649 -0.4825 -1.2877
13586TIP3   OH240714   1.893   0.435   0.035  0.0395 -0.6592  0.1515
13586TIP3    H140715   1.953   0.450   0.108 -0.3729 -1.7933  0.7592
13586TIP3    H240716   1.924   0.492  -0.035 -0.7398  1.9669  1.8234
13587TIP3   OH240717   6.002   5.067   2.578  0.6398  0.0771  0.2255
13587TIP3    H140718   5.984   5.136   2.641 -0.4562 -1.4388  1.6703
13587TIP3    H240719   5.916   5.030   2.558  0.9810  0.3459 -2.0210
13588TIP3   OH240720   0.086   3.988   2.455 -0.9211 -0.2596  0.5165
13588TIP3    H140721   0.112   3.923   2.521  2.2188 -0.1386 -0.4474
13588TIP3    H240722   0.046   3.937   2.385  0.0246 -0.9820  0.4842
13589TIP3   OH240723   4.247   3.996   4.400 -0.2545 -0.6324  0.0094
13589TIP3    H140724   4.256   4.084   4.363 -0.6152 -1.9934 -3.7117
13589TIP3    H240725   4.336   3.971   4.423 -0.3043  1.1539  2.6110
13590TIP3   OH240726   4.955   7.845   3.139  0.3664 -0.1835 -0.0470
13590TIP3    H140727   4.970   7.754   3.164  1.4212 -0.2268 -0.7749
13590TIP3    H240728   4.876   7.842   3.085  0.5359 -0.7081 -0.2749
13591TIP3   OH240729   3.722   1.735   3.598 -0.0659 -0.6276  0.0141
13591TIP3    H140730   3.690   1.740   3.508 -1.1921  0.3458  0.4432
13591TIP3    H240731   3.778   1.811   3.609 -0.6577 -0.2340  0.3908
13592TIP3   OH240732   0.333   1.671   0.531  0.0780 -0.4422  0.6294
13592TIP3    H140733   0.331   1.756   0.487 -1.5283 -0.1974  1.1253
13592TIP3    H240734   0.414   1.630   0.500  0.5866  1.0192 -0.0679
13593TIP3   OH240735   4.338   4.278   6.780  0.5845 -0.4788 -0.3973
13593TIP3    H140736   4.422   4.310   6.746  0.3240  0.6744  0.0011
13593TIP3    H240737   4.279   4.354   6.774 -0.1055 -0.9381  0.4148
13594TIP3   OH240738   6.777   6.299   0.140  0.8823  0.4141  0.1329
13594TIP3    H140739   6.738   6.343   0.216  0.5050 -1.7475  1.3051
13594TIP3    H240740   6.866   6.333   0.136  1.4550 -0.5073  2.6133
13595TIP3   OH240741   1.898   0.907   0.785  0.0336 -0.2206 -0.0749
13595TIP3    H140742   1.902   0.839   0.851  2.5970 -1.1639 -1.0547
13595TIP3    H240743   1.944   0.982   0.825 -1.7005  0.5617  0.5416
13596TIP3   OH240744   7.605   5.653   6.405 -0.2195 -0.2764 -0.1611
13596TIP3    H140745   7.561   5.640   6.489  0.0256 -0.6920 -0.0960
13596TIP3    H240746   7.660   5.575   6.394  0.3924  0.1659 -0.3105
13597TIP3   OH240747   5.735   2.341   5.039 -0.6360  0.4717  0.0914
13597TIP3    H140748   5.782   2.361   5.120 -0.7051  0.1982  0.1978
13597TIP3    H240749   5.766   2.407   4.977  0.9081 -0.5071 -0.2412
13598TIP3   OH240750   0.774   6.745   0.727 -0.1120 -0.3504 -0.2516
13598TIP3    H140751   0.829   6.669   0.710  0.9554  0.5052 -0.7891
13598TIP3    H240752   0.698   6.734   0.670 -0.9037 -1.9241  1.0512
13599TIP3   OH240753   2.744   4.975   3.886 -0.1053 -0.3678  0.4725
13599TIP3    H140754   2.711   5.050   3.836 -0.3676 -0.1512  0.9646
13599TIP3    H240755   2.838   4.991   3.893  0.0125 -0.6512 -0.3690
13600TIP3   OH240756   6.317   5.384   3.228  0.1247  0.0962 -0.5105
13600TIP3    H140757   6.283   5.442   3.296  0.0556 -0.1736 -0.3161
13600TIP3    H240758   6.399   5.425   3.200  0.1328  0.2286 -0.2940
13601TIP3   OH240759   8.127   5.499   5.149  0.0948  0.3486 -0.1561
13601TIP3    H140760   8.068   5.450   5.206  0.7556 -0.5785 -0.2491
13601TIP3    H240761   8.213   5.459   5.163  0.2296 -0.0979 -1.9972
13602TIP3   OH240762   6.691   6.998   4.561 -0.0016  0.6547 -0.0770
13602TIP3    H140763   6.743   6.953   4.494  1.9877  1.3752  0.8937
13602TIP3    H240764   6.702   6.945   4.640 -2.7244 -0.4530 -0.3440
13603TIP3   OH240765   3.212   1.392   4.650  0.3910  0.7729  0.2185
13603TIP3    H140766   3.229   1.390   4.744 -1.1885  1.4525  0.5639
13603TIP3    H240767   3.294   1.422   4.611  0.4157  2.7073  1.6053
13604TIP3   OH240768   6.410   1.284   5.934  0.3230 -0.5336 -0.0992
13604TIP3    H140769   6.403   1.379   5.940  0.5254 -0.5026 -0.3148
13604TIP3    H240770   6.497   1.269   5.897  0.3384 -0.8072  0.0419
13605TIP3   OH240771   1.393   6.620   4.852 -0.1901 -0.4016 -0.0876
13605TIP3    H140772   1.303   6.634   4.824  0.0427 -1.1843 -1.3214
13605TIP3    H240773   1.421   6.704   4.886 -1.5770 -0.3050  0.8896
13606TIP3   OH240774   6.009   3.272   0.622 -0.1627 -0.2137 -0.1582
13606TIP3    H140775   6.096   3.253   0.657 -0.1951 -1.0884 -0.5204
13606TIP3    H240776   5.949   3.255   0.695  0.0396  1.6466  0.5000
13607TIP3   OH240777   7.807   5.028   5.715  0.4139  0.0758 -0.0455
13607TIP3    H140778   7.847   5.001   5.632  4.2030 -0.6092  1.7831
13607TIP3    H240779   7.846   4.971   5.780 -2.2467  0.7388  2.3332
13608TIP3   OH240780   1.582   0.790   2.165  0.2729 -0.2853  0.1752
13608TIP3    H140781   1.535   0.782   2.249  1.0694  0.5558  0.7313
13608TIP3    H240782   1.639   0.713   2.162  1.5479  0.5546  1.2977
13609TIP3   OH240783   0.118   1.081   5.618 -0.4645  0.1502  0.2771
13609TIP3    H140784   0.168   1.003   5.644  1.5020  1.2912  0.1189
13609TIP3    H240785   0.125   1.140   5.693 -0.9650  0.6407 -0.0492
13610TIP3   OH240786   4.192   5.836   3.307  0.6611 -0.3106  0.7631
13610TIP3    H140787   4.145   5.878   3.380  0.7890 -1.4352  1.5197
13610TIP3    H240788   4.123   5.806   3.248  0.5851  2.1128 -0.5137
13611TIP3   OH240789   1.863   5.385   0.084 -0.1040  0.4233 -0.0078
13611TIP3    H140790   1.821   5.471   0.091  1.4774  1.1651  1.0202
13611TIP3    H240791   1.923   5.393   0.010 -0.6623 -0.1378 -0.5327
13612TIP3   OH240792   3.517   2.799   6.526 -0.0042 -0.1707 -0.3323
13612TIP3    H140793   3.536   2.852   6.448 -0.1263 -0.3384 -0.4771
13612TIP3    H240794   3.585   2.731   6.525  0.4985  0.3168  0.1681
13613TIP3   OH240795   2.973   2.455   5.389 -0.0283  0.9814  0.0121
13613TIP3    H140796   3.065   2.480   5.383  0.3291 -0.5640 -2.1370
13613TIP3    H240797   2.974   2.360   5.406 -0.9694 -0.2011 -4.9786
13614TIP3   OH240798   5.104   6.359   5.239  0.1681  0.7818 -0.0748
13614TIP3    H140799   5.193   6.332   5.212  0.0609  1.7175 -1.4570
13614TIP3    H240800   5.059   6.276   5.256  0.4585  0.1065 -2.2493
13615TIP3   OH240801   5.399   4.787   4.717  0.4354  0.1156 -0.3782
13615TIP3    H140802   5.335   4.716   4.723  0.5692  0.1161  2.6573
13615TIP3    H240803   5.436   4.779   4.629 -1.9956 -1.3644 -1.3662
13616TIP3   OH240804   6.439   4.800   0.747 -0.7473 -0.8465 -0.7503
13616TIP3    H140805   6.497   4.874   0.730 -2.7599  0.8444 -0.7537
13616TIP3    H240806   6.363   4.839   0.790 -1.0286 -3.2457  1.1141
13617TIP3   OH240807   0.249   7.449   5.070 -0.3359  0.0104 -0.5748
13617TIP3    H140808   0.204   7.470   4.988 -1.7746  2.4255  0.6855
13617TIP3    H240809   0.338   7.482   5.057 -0.2686 -0.4932 -1.4768
13618TIP3   OH240810   2.550   7.761   3.909 -0.2983 -0.3974  0.3296
13618TIP3    H140811   2.466   7.802   3.929 -0.6540 -0.6952 -0.4830
13618TIP3    H240812   2.573   7.795   3.822  0.2265 -0.6174  0.3783
13619TIP3   OH240813   8.095   6.973   2.653 -0.0413  0.2792  0.1789
13619TIP3    H140814   8.148   7.019   2.588  0.7926  0.5657  1.0424
13619TIP3    H240815   8.010   7.016   2.649  0.1351  0.5874 -0.4099
13620TIP3   OH240816   4.534   3.896   1.288 -0.2582  0.3509 -0.6766
13620TIP3    H140817   4.563   3.805   1.283 -1.0320 -0.0127  0.9336
13620TIP3    H240818   4.603   3.945   1.243  0.7962 -0.9059 -0.4835
13621TIP3   OH240819   6.302  -0.035   4.978  0.4870 -0.3341  0.0654
13621TIP3    H140820   6.221   0.013   4.960  1.0942  0.4977 -0.5260
13621TIP3    H240821   6.371   0.029   4.963  1.3238 -1.3725 -0.6335
13622TIP3   OH240822   7.871   1.366   2.938  0.4970 -0.1576 -0.0293
13622TIP3    H140823   7.799   1.406   2.889  0.8497  1.3478  0.6017
13622TIP3    H240824   7.850   1.384   3.030  1.8120  0.5951  0.1510
13623TIP3   OH240825   0.629   2.582   6.035 -0.3455  0.0540  0.1116
13623TIP3    H140826   0.717   2.549   6.053 -0.9222 -2.2926 -0.9605
13623TIP3    H240827   0.588   2.590   6.121  0.4719 -0.2054  0.5297
13624TIP3   OH240828   2.404   1.171   4.217  0.0058  0.4846 -0.1102
13624TIP3    H140829   2.350   1.159   4.295  1.6337 -1.1979  0.8393
13624TIP3    H240830   2.422   1.082   4.187  1.3759  1.0378 -0.9997
13625TIP3   OH240831   4.303   4.041   3.944 -0.2285 -0.3627 -0.7076
13625TIP3    H140832   4.213   4.020   3.970  0.1531 -1.7869 -0.4395
13625TIP3    H240833   4.355   3.967   3.974  1.1041  0.5782 -0.5807
13626TIP3   OH240834   3.969   1.889   4.349 -0.9871  0.3700  0.4438
13626TIP3    H140835   4.038   1.955   4.350 -0.5662 -0.0665  1.2864
13626TIP3    H240836   3.927   1.896   4.434 -0.4488 -0.9211  0.8413
13627TIP3   OH240837   4.444   5.265   0.201 -0.0520  0.1690 -0.3484
13627TIP3    H140838   4.396   5.206   0.259 -1.3404  0.7554 -0.7789
13627TIP3    H240839   4.527   5.280   0.246 -0.1214 -1.1301  0.2669
13628TIP3   OH240840   4.976   0.866   0.192  0.8470 -0.1863  0.0386
13628TIP3    H140841   4.965   0.888   0.099 -0.3183  2.7059  0.7265
13628TIP3    H240842   5.025   0.940   0.228 -0.4046 -0.2738  2.0625
13629TIP3   OH240843   3.861   6.725   0.856  0.2454  0.2717 -0.0641
13629TIP3    H140844   3.787   6.693   0.908 -1.0426  2.3438 -0.5080
13629TIP3    H240845   3.903   6.792   0.910  1.7904 -0.7973  0.1316
13630TIP3   OH240846   8.270   3.447   5.783 -0.2902 -0.2599  0.1406
13630TIP3    H140847   8.201   3.441   5.716  2.0200  1.4077 -2.6368
13630TIP3    H240848   8.266   3.538   5.813  0.9815  0.0305 -0.4841
13631TIP3   OH240849   7.356   7.362   0.627 -0.1682  0.1241  0.3776
13631TIP3    H140850   7.332   7.400   0.542  0.9762  1.7035  0.7150
13631TIP3    H240851   7.405   7.432   0.671 -0.5043 -0.7633  2.2316
13632TIP3   OH240852   6.558   7.353   4.871 -0.8341  0.5471  0.4354
13632TIP3    H140853   6.538   7.305   4.791 -0.5001  0.0917  0.6226
13632TIP3    H240854   6.529   7.442   4.853 -1.6343  0.2369  0.1539
13633TIP3   OH240855   5.373   1.396   4.892 -0.4710  0.1701 -0.4113
13633TIP3    H140856   5.344   1.482   4.923 -0.6432  0.7778 -2.1271
13633TIP3    H240857   5.297   1.340   4.902 -0.5301  0.3548  0.2045
13634TIP3   OH240858   5.329   7.448   0.899 -0.6713  0.1201 -0.5500
13634TIP3    H140859   5.257   7.483   0.952  0.1541 -1.0387  1.4486
13634TIP3    H240860   5.378   7.525   0.871 -0.8625  0.7729  0.8133
13635TIP3   OH240861   2.809   3.486   5.179  0.2689 -0.5235  0.0321
13635TIP3    H140862   2.802   3.396   5.147  0.3264 -0.7467  0.6340
13635TIP3    H240863   2.896   3.491   5.219  0.5382  0.0020 -0.6087
13636TIP3   OH240864   3.889   4.165   3.073 -0.1852  0.4695 -0.8561
13636TIP3    H140865   3.951   4.211   3.016  1.4130 -1.1039 -0.4930
13636TIP3    H240866   3.904   4.202   3.160 -1.0672  1.3387 -1.0576
13637TIP3   OH240867   7.723   5.614   3.715 -0.5565 -0.2378  0.0712
13637TIP3    H140868   7.647   5.672   3.706 -0.3325  0.6196  2.8384
13637TIP3    H240869   7.797   5.673   3.724 -0.3078 -0.8714  2.8359
13638TIP3   OH240870   1.442   0.891   0.398 -0.1770  0.1456 -0.0686
13638TIP3    H140871   1.472   0.836   0.325 -0.4258  0.4126 -0.3737
13638TIP3    H240872   1.462   0.980   0.371 -0.7952  0.2885 -0.0603
13639TIP3   OH240873   5.724   5.026   6.411 -0.3289 -0.0859 -0.1738
13639TIP3    H140874   5.768   4.998   6.491 -0.3070  1.8782  0.5425
13639TIP3    H240875   5.636   5.049   6.438 -0.3338  0.5691 -0.7175
13640TIP3   OH240876   6.709   3.825   2.889  0.0072 -0.4938  0.4014
13640TIP3    H140877   6.706   3.869   2.804 -1.5396 -0.9506  0.1822
13640TIP3    H240878   6.624   3.845   2.929  0.1738 -1.4166  1.2599
13641TIP3   OH240879   4.125   1.165   1.004 -0.1958 -0.0747  0.0044
13641TIP3    H140880   4.174   1.217   1.068  0.3770 -0.8782  0.2259
13641TIP3    H240881   4.176   1.173   0.923 -0.4705  0.2563 -0.1375
13642TIP3   OH240882   3.698   0.604   1.598 -0.0765 -0.1218  0.0863
13642TIP3    H140883   3.764   0.570   1.658  1.7092  0.7755 -1.2702
13642TIP3    H240884   3.726   0.694   1.579 -1.9146  0.4235 -0.2503
13643TIP3   OH240885   5.990   1.407   6.552 -0.5821  0.3386 -0.0157
13643TIP3    H140886   6.065   1.403   6.493 -0.3472 -0.1082  0.3076
13643TIP3    H240887   6.024   1.377   6.636 -1.5020 -1.5255 -0.2611
13644TIP3   OH240888   3.637   5.142   2.393  0.3513  0.1740 -0.0882
13644TIP3    H140889   3.715   5.116   2.443  0.3499  2.1271  1.0160
13644TIP3    H240890   3.582   5.189   2.456 -0.4472  1.2352 -1.5089
13645TIP3   OH240891   7.264   1.250   0.042  0.1257  0.0893  0.1765
13645TIP3    H140892   7.348   1.262  -0.004  0.6723 -0.1082  1.1113
13645TIP3    H240893   7.258   1.156   0.058 -0.9968 -0.1125 -1.1844
13646TIP3   OH240894   3.067   0.289   0.341  0.1971  0.4584  0.8245
13646TIP3    H140895   3.123   0.220   0.375  0.3333 -0.8192 -1.7369
13646TIP3    H240896   3.118   0.328   0.270 -1.5152  0.2451 -0.6115
13647TIP3   OH240897   8.046   1.876   2.020 -0.0289 -0.2066  0.5965
13647TIP3    H140898   8.085   1.956   2.057 -1.0079  0.8122 -0.4760
13647TIP3    H240899   8.060   1.885   1.926 -0.6507 -1.0399  0.4169
13648TIP3   OH240900   3.616   1.528   6.709  0.5070  0.2014  0.2853
13648TIP3    H140901   3.669   1.449   6.716  0.1993  0.0777  1.4187
13648TIP3    H240902   3.567   1.532   6.792  0.5823  1.6191  0.2898
13649TIP3   OH240903   2.625   1.540   5.288 -0.2261  0.3955  0.4608
13649TIP3    H140904   2.691   1.474   5.270 -0.5498  0.3545 -0.6077
13649TIP3    H240905   2.646   1.571   5.376 -0.5606 -1.6909  1.3311
13650TIP3   OH240906   4.975   3.413   1.606  0.1860  0.2108  0.2358
13650TIP3    H140907   4.922   3.463   1.543 -1.8384 -0.3666  1.3992
13650TIP3    H240908   5.052   3.386   1.556  0.3573  2.7089 -0.9932
13651TIP3   OH240909   0.944   2.864   0.508  0.5511  0.0718 -0.4196
13651TIP3    H140910   1.000   2.859   0.430  1.0844 -0.7470  0.0014
13651TIP3    H240911   0.987   2.928   0.564  0.3673  0.3885 -0.6363
13652TIP3   OH240912   5.267   1.473   2.865 -0.3815 -0.4512  0.0715
13652TIP3    H140913   5.216   1.408   2.817 -0.4489 -0.2713 -0.0989
13652TIP3    H240914   5.347   1.427   2.889 -1.8746 -1.8160  3.1305
13653TIP3   OH240915   7.402   5.890   5.239 -0.2066 -0.7186  0.0006
13653TIP3    H140916   7.354   5.919   5.317 -0.6051 -0.7848 -0.2152
13653TIP3    H240917   7.447   5.810   5.266 -0.6972 -0.9825  0.0408
13654TIP3   OH240918   0.931   2.996   6.127  0.0005  0.1376 -0.1959
13654TIP3    H140919   0.905   3.086   6.146  1.5757  0.3156  1.3584
13654TIP3    H240920   0.958   2.997   6.035 -0.9966  0.9765 -0.5041
13655TIP3   OH240921   2.164   2.096   0.943  0.2826 -0.1212 -0.3649
13655TIP3    H140922   2.167   2.180   0.898  1.3406  0.1583  0.1733
13655TIP3    H240923   2.220   2.108   1.020 -1.2833 -0.6417  0.9215
13656TIP3   OH240924   6.433   0.460   6.725  0.4039 -0.4096  0.4548
13656TIP3    H140925   6.372   0.391   6.697 -0.3217  0.1919  0.5303
13656TIP3    H240926   6.435   0.452   6.820 -0.9573  0.7034  0.6089
13657TIP3   OH240927   1.333   2.152   2.710  0.1264 -0.1712 -0.2018
13657TIP3    H140928   1.411   2.120   2.755  2.7264  2.0865 -2.7001
13657TIP3    H240929   1.345   2.124   2.619 -2.1798 -0.0111 -0.6240
13658TIP3   OH240930   2.145   0.274   1.519  0.2292 -0.1593  0.0317
13658TIP3    H140931   2.169   0.356   1.562  1.4451 -0.1722 -0.5895
13658TIP3    H240932   2.055   0.288   1.491  0.6868  1.2972 -0.8118
13659TIP3   OH240933   2.853   5.696   6.414  0.1339  0.1383 -0.0167
13659TIP3    H140934   2.778   5.696   6.473  0.4656  0.1354  0.4115
13659TIP3    H240935   2.826   5.643   6.339 -0.3732  0.3357  0.0237
13660TIP3   OH240936   3.309   5.633   6.023 -0.1168  0.0763 -0.8381
13660TIP3    H140937   3.354   5.551   6.042 -1.7409 -0.2296  2.4757
13660TIP3    H240938   3.371   5.701   6.051  0.7007 -0.0020 -2.3416
13661TIP3   OH240939   2.239   3.223   3.964 -0.4772 -0.1222 -0.3735
13661TIP3    H140940   2.257   3.317   3.953  0.8299 -0.4485 -1.2294
13661TIP3    H240941   2.166   3.220   4.026  1.7259  1.3667  2.5236
13662TIP3   OH240942   6.542   7.757   3.187  0.1322 -0.2510  0.5857
13662TIP3    H140943   6.569   7.837   3.233 -0.8580  1.8485 -2.1893
13662TIP3    H240944   6.452   7.774   3.159  0.7015 -1.2274 -2.2028
13663TIP3   OH240945   4.325   4.636   3.094  0.4230  0.3063 -0.6996
13663TIP3    H140946   4.305   4.727   3.118 -1.6006 -0.1688 -0.3617
13663TIP3    H240947   4.419   4.627   3.108  0.1226  1.3389  2.7579
13664TIP3   OH240948   0.848   4.094   4.098 -0.2282  0.1903  0.5171
13664TIP3    H140949   0.854   4.182   4.062  4.4982 -0.2543 -0.4717
13664TIP3    H240950   0.850   4.106   4.193 -1.5570  1.1164  0.4505
13665TIP3   OH240951   4.460   7.760   2.496  0.2586 -0.0150 -0.7194
13665TIP3    H140952   4.459   7.831   2.431 -0.4181 -0.6393 -1.3973
13665TIP3    H240953   4.369   7.752   2.524  0.2874 -0.8070 -0.8493
13666TIP3   OH240954   0.841   0.033   4.439  0.2305 -0.5930  0.0241
13666TIP3    H140955   0.795  -0.044   4.406  1.2710 -0.9663 -0.6068
13666TIP3    H240956   0.929   0.026   4.402 -0.2111  1.9382 -1.7667
13667TIP3   OH240957   0.681   5.236   5.928 -0.0806 -0.2199  0.4262
13667TIP3    H140958   0.587   5.247   5.942  0.1139  2.2208  0.1655
13667TIP3    H240959   0.690   5.232   5.833  0.0945 -0.4141  0.4504
13668TIP3   OH240960   5.923   6.755   2.346  0.4461  0.4718 -0.6729
13668TIP3    H140961   5.925   6.705   2.427  1.8941 -1.2353 -1.6819
13668TIP3    H240962   5.841   6.730   2.304  0.7408 -0.3856 -0.7497
13669TIP3   OH240963   4.121   4.046   6.488  0.5468  0.4911 -0.1492
13669TIP3    H140964   4.055   4.074   6.551 -1.3193 -0.8943 -1.4028
13669TIP3    H240965   4.164   4.128   6.461 -0.9050  1.4842  0.4156
13670TIP3   OH240966   2.190   1.559   5.321  0.0911 -0.3666  0.0948
13670TIP3    H140967   2.232   1.489   5.371 -0.2045 -0.1300  0.6848
13670TIP3    H240968   2.167   1.518   5.237 -0.0719 -0.9792  0.4313
13671TIP3   OH240969   4.953   1.765   0.211 -0.6465 -0.2307 -0.5851
13671TIP3    H140970   4.906   1.696   0.164 -2.0130  1.1250 -1.3090
13671TIP3    H240971   5.006   1.808   0.143  0.0714 -0.4462 -0.1730
13672TIP3   OH240972   7.552   0.693   1.282 -0.1368 -0.0319 -0.0965
13672TIP3    H140973   7.498   0.767   1.254 -1.0305 -0.7848 -0.4488
13672TIP3    H240974   7.601   0.725   1.357 -0.8562  0.7780  0.0398
13673TIP3   OH240975   6.095   5.248   3.478  0.3737 -0.0275  0.1725
13673TIP3    H140976   6.061   5.160   3.496  1.0019 -0.2748  0.1957
13673TIP3    H240977   6.182   5.248   3.518  0.4183  0.5722  0.0827
13674TIP3   OH240978   1.334   2.954   4.488 -0.5670 -0.6355 -0.0220
13674TIP3    H140979   1.354   2.867   4.525  0.7489 -0.2681  0.1744
13674TIP3    H240980   1.337   3.013   4.563  1.4926  0.0220 -0.5581
13675TIP3   OH240981   6.952   4.393   3.701 -0.3679 -0.4400  0.0787
13675TIP3    H140982   6.886   4.397   3.769  1.3771 -0.2145  1.8656
13675TIP3    H240983   6.954   4.481   3.664 -2.0475 -0.8383 -1.0389
13676TIP3   OH240984   1.344   0.353   4.832  0.3690 -0.2490  0.3275
13676TIP3    H140985   1.406   0.317   4.895 -1.0663 -0.1082  1.8971
13676TIP3    H240986   1.259   0.345   4.875 -0.4489  1.5578 -0.8306
13677TIP3   OH240987   0.885   7.734   5.630 -0.2207 -0.2123  0.0537
13677TIP3    H140988   0.851   7.812   5.674  1.1698 -1.5693  3.8460
13677TIP3    H240989   0.978   7.732   5.653 -0.1122 -2.7155 -0.3734
13678TIP3   OH240990   1.367   4.389   0.668 -0.2429 -0.1703 -0.1436
13678TIP3    H140991   1.432   4.364   0.734  0.0116  1.4114  0.2609
13678TIP3    H240992   1.293   4.423   0.718 -0.1520  0.8108 -0.6371
13679TIP3   OH240993   3.715   6.585   1.444 -0.3730  0.0718  0.4452
13679TIP3    H140994   3.784   6.541   1.394 -1.1010  0.4420 -0.9358
13679TIP3    H240995   3.643   6.523   1.445 -0.9854  0.7494 -0.4946
13680TIP3   OH240996   0.085   0.654   0.081 -0.4031  0.3507 -0.2902
13680TIP3    H140997   0.064   0.571   0.039  1.0957  0.7098 -1.8589
13680TIP3    H240998   0.062   0.720   0.015  0.0463  1.0732  0.2642
13681TIP3   OH240999   6.550   1.832   2.113 -0.3864 -0.3040  0.1045
13681TIP3    H141000   6.494   1.878   2.051 -1.4070  0.6732  1.6816
13681TIP3    H241001   6.492   1.810   2.186  1.5619  2.5705  2.7939
13682TIP3   OH241002   7.756   3.580   0.825  0.2756  0.2652 -0.0917
13682TIP3    H141003   7.661   3.583   0.824  0.2356  0.1681  1.2345
13682TIP3    H241004   7.777   3.509   0.885  1.1941 -0.1517 -0.8678
13683TIP3   OH241005   6.884   5.158   1.017  0.4382 -0.7787 -0.2140
13683TIP3    H141006   6.821   5.229   1.023  0.1730 -1.0157 -0.1846
13683TIP3    H241007   6.855   5.105   0.943  1.2723 -0.2437 -0.9502
13684TIP3   OH241008   7.971   3.901   5.815 -0.6051  0.5487 -0.1568
13684TIP3    H141009   8.014   3.984   5.797  1.0865 -0.2733 -0.0404
13684TIP3    H241010   7.923   3.916   5.896  2.3181  0.5422  1.7129
13685TIP3   OH241011   4.241   0.189   2.371 -0.0766  0.0879 -0.0520
13685TIP3    H141012   4.308   0.133   2.332 -0.2117 -0.1172  0.0066
13685TIP3    H241013   4.180   0.206   2.299 -0.2899 -0.2349  0.0503
13686TIP3   OH241014   3.251   7.795   0.571  0.3483 -0.5939  0.1754
13686TIP3    H141015   3.198   7.716   0.557 -0.9815  0.3871 -0.5489
13686TIP3    H241016   3.277   7.791   0.663 -0.6546 -1.3150  0.4440
13687TIP3   OH241017   6.196   7.373   1.217 -0.1448  0.5065  0.5646
13687TIP3    H141018   6.150   7.333   1.291  0.6255 -0.7957  0.3701
13687TIP3    H241019   6.284   7.392   1.250 -0.0195  0.5984  0.1906
13688TIP3   OH241020   8.001   3.991   5.257  0.6765 -0.2620  0.1361
13688TIP3    H141021   7.964   4.046   5.327 -0.3487 -0.9621  0.1686
13688TIP3    H241022   8.086   3.963   5.292 -0.4117 -1.7615  1.7715
13689TIP3   OH241023   2.390   3.847   5.057 -0.4820 -0.3902 -0.2925
13689TIP3    H141024   2.365   3.939   5.051 -0.3261 -0.1795  1.6631
13689TIP3    H241025   2.464   3.846   5.117 -0.8433 -1.8451  0.1776
13690TIP3   OH241026   6.927   4.604   2.807 -0.2581 -0.2786 -0.3063
13690TIP3    H141027   6.888   4.521   2.781 -0.5261  0.4416 -2.3254
13690TIP3    H241028   7.010   4.608   2.760 -0.7158  1.0403 -1.0565
13691TIP3   OH241029   6.091   5.452   0.893  0.3312 -0.0492  0.7050
13691TIP3    H141030   6.044   5.375   0.925  0.3201  0.0167  0.8477
13691TIP3    H241031   6.046   5.526   0.933 -0.3814  0.1014 -0.3361
13692TIP3   OH241032   5.519   0.403   2.975  0.3907 -0.1776 -0.0971
13692TIP3    H141033   5.477   0.322   2.947 -1.2894  0.9809 -1.0717
13692TIP3    H241034   5.533   0.453   2.895  1.0905  0.6484  0.5134
13693TIP3   OH241035   7.769   7.086   3.737 -0.3892  0.6562  0.5093
13693TIP3    H141036   7.710   7.017   3.708  0.1796  0.8870 -1.3077
13693TIP3    H241037   7.857   7.048   3.729 -0.1370  1.1938  0.6330
13694TIP3   OH241038   0.351   4.589   6.618  0.1041 -0.2220  1.3555
13694TIP3    H141039   0.257   4.590   6.640 -0.4109  0.3707 -0.6705
13694TIP3    H241040   0.390   4.531   6.683 -1.6719 -0.4941  2.2364
13695TIP3   OH241041   0.996   4.741   2.682  0.5464 -0.2309  0.1921
13695TIP3    H141042   1.050   4.718   2.758 -1.0168 -1.9011  0.8561
13695TIP3    H241043   0.998   4.663   2.627  0.9764  0.6696 -1.0957
13696TIP3   OH241044   2.078   6.442   1.762 -0.5042  0.3005  0.2213
13696TIP3    H141045   2.112   6.530   1.775 -0.3959  0.4817 -1.0991
13696TIP3    H241046   2.092   6.425   1.669 -0.8499 -0.9744  0.3854
13697TIP3   OH241047   1.446   0.760   4.345  0.1158 -0.5869 -0.1245
13697TIP3    H141048   1.425   0.778   4.437 -0.6837 -0.2303 -0.3622
13697TIP3    H241049   1.362   0.766   4.300  0.4344 -1.1780 -0.8210
13698TIP3   OH241050   1.699   1.805   6.025 -0.1955 -0.0320  0.1233
13698TIP3    H141051   1.677   1.765   6.109  1.1418 -0.7458  0.1633
13698TIP3    H241052   1.780   1.853   6.043  0.4973 -0.7774 -0.8937
13699TIP3   OH241053   7.033   4.702   5.299  0.1713  0.6418  0.3375
13699TIP3    H141054   6.999   4.720   5.387 -2.6184 -0.6494 -0.3471
13699TIP3    H241055   6.993   4.770   5.244 -1.3047 -0.8133 -0.4787
13700TIP3   OH241056   3.796   1.782   2.195  0.6865 -0.0689 -0.0600
13700TIP3    H141057   3.865   1.768   2.131  1.0954  0.1024  0.3411
13700TIP3    H241058   3.739   1.705   2.186 -0.6394  1.0603 -2.3323
13701TIP3   OH241059   2.930   6.171   4.934  0.4636  0.0050 -0.4151
13701TIP3    H141060   2.913   6.076   4.931 -0.7759  0.1437  1.1932
13701TIP3    H241061   2.844   6.211   4.926  0.6941  0.9337  1.3571
13702TIP3   OH241062   2.283   5.501   4.079 -0.4659  0.2676  0.3527
13702TIP3    H141063   2.326   5.420   4.052  2.1467  1.6892 -0.0836
13702TIP3    H241064   2.220   5.520   4.009  2.4473  1.1189 -2.2463
13703TIP3   OH241065   4.328   7.155   6.269  0.5477  0.5755  0.2483
13703TIP3    H141066   4.415   7.195   6.258  0.9900 -0.3528  0.2783
13703TIP3    H241067   4.267   7.229   6.265  1.3632  1.2831  0.5596
13704TIP3   OH241068   5.068   2.926   2.090  0.5348  0.3908 -0.0311
13704TIP3    H141069   5.080   2.973   2.008 -0.1361 -0.6989 -0.7789
13704TIP3    H241070   4.975   2.906   2.094  0.9778 -2.0749 -0.4629
13705TIP3   OH241071   1.237   5.862   1.099  0.0874 -0.0149  0.0021
13705TIP3    H141072   1.171   5.930   1.107 -0.9992 -0.8322 -1.5048
13705TIP3    H241073   1.249   5.828   1.188 -0.8717  0.7328  0.4271
13706TIP3   OH241074   3.998   4.003   5.849 -0.2034 -0.1750  0.2799
13706TIP3    H141075   4.030   4.018   5.938  0.9672 -0.3784 -0.0824
13706TIP3    H241076   3.906   3.979   5.860 -0.1275 -0.0089  1.4170
13707TIP3   OH241077   0.916   6.457   3.071  0.2629 -0.2708  0.1026
13707TIP3    H141078   0.841   6.450   3.131 -0.3299 -1.3172 -0.7370
13707TIP3    H241079   0.972   6.524   3.111 -1.3283  0.8606  0.5220
13708TIP3   OH241080   3.458   2.993   0.816 -0.0551 -0.3594  0.6458
13708TIP3    H141081   3.495   3.071   0.858  1.3631  0.2509 -1.5000
13708TIP3    H241082   3.415   3.027   0.737 -0.1667 -1.6469  0.1260
13709TIP3   OH241083   4.274   0.840   3.313 -0.2558  0.2935 -0.0340
13709TIP3    H141084   4.191   0.870   3.275 -0.6290 -0.4436  0.1866
13709TIP3    H241085   4.312   0.920   3.350 -1.0913  0.5681  0.2776
13710TIP3   OH241086   7.304   1.496   3.601  0.3551 -0.2349 -0.0962
13710TIP3    H141087   7.295   1.411   3.559 -0.6523  0.4273 -1.3017
13710TIP3    H241088   7.214   1.520   3.625  0.4825  0.9269 -0.7208
13711TIP3   OH241089   7.437   2.855   1.515  0.3331  0.3390 -0.7219
13711TIP3    H141090   7.479   2.896   1.439 -0.0187  0.5097 -0.8285
13711TIP3    H241091   7.492   2.780   1.536 -0.5647 -0.8384 -2.3310
13712TIP3   OH241092   3.733   6.028   5.061 -0.0086 -0.1670  0.5420
13712TIP3    H141093   3.696   5.977   4.989 -0.9204 -1.9586  2.1866
13712TIP3    H241094   3.827   6.012   5.056  0.0944  0.6957 -0.9165
13713TIP3   OH241095   3.605   6.439   1.746 -0.0738 -0.2918 -0.2148
13713TIP3    H141096   3.700   6.443   1.733  0.0163 -0.9964  0.1384
13713TIP3    H241097   3.568   6.466   1.662  0.4423  0.0444 -0.3363
13714TIP3   OH241098   6.546   4.064   4.837 -0.1431  0.4674  0.5702
13714TIP3    H141099   6.506   4.030   4.916 -1.8275  0.3229 -0.2904
13714TIP3    H241100   6.559   3.987   4.781 -0.8098  0.7892 -0.0479
13715TIP3   OH241101   1.929   7.533   5.248  0.9369  0.4840 -0.2559
13715TIP3    H141102   1.942   7.465   5.182 -1.1069  0.7335 -0.9746
13715TIP3    H241103   2.017   7.567   5.264  2.0965 -2.5014  0.3831
13716TIP3   OH241104   3.485   5.618   6.708 -0.2486  0.3753  0.1833
13716TIP3    H141105   3.580   5.630   6.715  0.1168 -1.8827 -0.0473
13716TIP3    H241106   3.460   5.669   6.631  1.3011 -1.0983 -1.4264
13717TIP3   OH241107   1.685   7.332   4.881 -0.1298 -1.1240 -0.9417
13717TIP3    H141108   1.647   7.414   4.915  1.2221 -1.5112  1.7904
13717TIP3    H241109   1.642   7.320   4.796 -2.5434  0.8916 -0.1666
13718TIP3   OH241110   1.784   4.530   2.961 -0.1902  0.6797  0.1412
13718TIP3    H141111   1.692   4.544   2.983 -1.2918 -0.6356 -3.0360
13718TIP3    H241112   1.783   4.453   2.904  3.3987 -1.8614  3.0490
13719TIP3   OH241113   7.324   3.199   0.853  0.0181 -0.1145 -1.0958
13719TIP3    H141114   7.263   3.270   0.872  0.1476  0.0948 -1.4665
13719TIP3    H241115   7.307   3.176   0.762 -0.4890 -1.0158 -0.7918
13720TIP3   OH241116   4.114   0.426   4.083 -0.3720 -0.1409 -0.0296
13720TIP3    H141117   4.175   0.372   4.034  0.0603  1.2329 -1.0867
13720TIP3    H241118   4.064   0.364   4.136 -0.0365 -1.5884 -1.3163
13721TIP3   OH241119   7.185   4.334   6.066  0.1138 -0.0115 -0.0803
13721TIP3    H141120   7.107   4.314   6.117 -0.2275 -0.6653 -0.8424
13721TIP3    H241121   7.245   4.262   6.085 -0.1121 -0.3916 -0.7946
13722TIP3   OH241122   6.226   3.692   5.578 -0.4928 -0.2827 -0.4193
13722TIP3    H141123   6.258   3.602   5.589  2.0309  0.1783 -2.8614
13722TIP3    H241124   6.139   3.681   5.539  0.7687 -1.7973 -3.0834
13723TIP3   OH241125   6.124   2.887   6.384  0.2428  0.0161 -0.0582
13723TIP3    H141126   6.156   2.904   6.472 -0.8767 -0.1853  0.4025
13723TIP3    H241127   6.173   2.810   6.355  0.1026 -0.3573  0.6747
13724TIP3   OH241128   6.729   1.336   4.162  0.3218 -0.1864 -0.0836
13724TIP3    H141129   6.669   1.263   4.141  0.6774 -0.5873  0.2802
13724TIP3    H241130   6.679   1.391   4.222 -0.0019 -0.0533 -0.4706
13725TIP3   OH241131   0.618   1.028   3.755  0.4848 -0.0610  0.2430
13725TIP3    H141132   0.683   0.966   3.788  0.9530 -0.9231 -2.0971
13725TIP3    H241133   0.542   0.974   3.733  0.1695  0.4755 -0.0108
13726TIP3   OH241134   4.340   4.870   4.167  0.0774  0.6586  0.0428
13726TIP3    H141135   4.279   4.942   4.183 -0.1183  0.2043  1.4605
13726TIP3    H241136   4.286   4.802   4.126  0.1012  1.0270 -0.6146
13727TIP3   OH241137   4.123   3.440   5.511 -0.0493  0.3484  0.6627
13727TIP3    H141138   4.056   3.508   5.514 -0.0710  0.3569  0.1101
13727TIP3    H241139   4.109   3.396   5.427  1.4204  1.1820 -0.0589
13728TIP3   OH241140   1.451   4.967   2.364  0.1713 -0.5864  0.1896
13728TIP3    H141141   1.367   4.992   2.327  1.2683  0.3119 -1.8839
13728TIP3    H241142   1.455   4.872   2.354 -0.6215 -0.6365  0.3644
13729TIP3   OH241143   5.896   0.933   4.740  0.0836  0.1806  0.4071
13729TIP3    H141144   5.911   0.941   4.835 -0.8925  0.2537  0.5597
13729TIP3    H241145   5.813   0.886   4.732  1.5994 -2.5597 -0.4489
13730TIP3   OH241146   2.025   7.251   2.540 -0.0498  0.1878  0.2055
13730TIP3    H141147   1.956   7.266   2.604 -0.3725 -0.5598  0.0440
13730TIP3    H241148   2.001   7.304   2.465  0.2888  1.0069  0.6595
13731TIP3   OH241149   1.815   1.812   2.054  0.2503  0.0503  0.4736
13731TIP3    H141150   1.773   1.727   2.050  0.4218 -0.0536  0.8250
13731TIP3    H241151   1.759   1.865   2.111 -1.0858  0.8922 -1.5106
13732TIP3   OH241152   4.152   6.844   3.646 -0.1906  0.1778  0.0964
13732TIP3    H141153   4.073   6.895   3.632  0.7206  1.8508  0.6962
13732TIP3    H241154   4.163   6.841   3.741  0.0496 -0.7217  0.0517
13733TIP3   OH241155   3.944   3.904   6.748 -0.1442  0.6028  0.3233
13733TIP3    H141156   3.967   3.990   6.712  1.7601 -0.3022 -0.7291
13733TIP3    H241157   4.001   3.894   6.824 -0.8304  0.5327  0.8350
13734TIP3   OH241158   3.522   4.660   4.198  0.4709 -0.1037  0.0284
13734TIP3    H141159   3.569   4.738   4.229 -0.4675  0.5623 -0.1797
13734TIP3    H241160   3.525   4.600   4.273 -1.8094  1.5063  1.5391
13735TIP3   OH241161   5.149   5.405   4.023 -0.0256  0.0045 -0.0014
13735TIP3    H141162   5.236   5.430   4.054 -0.1585  0.9191 -0.3135
13735TIP3    H241163   5.126   5.474   3.960 -0.0254 -1.4460 -1.6643
13736TIP3   OH241164   7.292   5.989   0.799 -0.2583 -0.2696  0.3507
13736TIP3    H141165   7.247   5.989   0.884 -1.5152 -0.4228 -0.2853
13736TIP3    H241166   7.304   5.897   0.778  0.2461 -0.2301  0.4501
13737TIP3   OH241167   4.576   1.852   0.020 -0.6229  0.1099 -0.2216
13737TIP3    H141168   4.589   1.940   0.054 -1.5117 -0.0566  0.5773
13737TIP3    H241169   4.496   1.821   0.061 -0.9921 -0.6241 -1.4268
13738TIP3   OH241170   2.456   7.086   5.611 -0.1229  0.1446 -0.6837
13738TIP3    H141171   2.509   7.012   5.581  0.5743  0.1661  0.4678
13738TIP3    H241172   2.388   7.095   5.543 -0.5034 -1.8188 -0.6199
13739TIP3   OH241173   3.657   1.655   4.674 -0.0839 -0.6227 -0.0402
13739TIP3    H141174   3.570   1.693   4.664 -0.1694 -1.1903 -1.6405
13739TIP3    H241175   3.641   1.566   4.705 -0.0641 -0.7167 -0.3030
13740TIP3   OH241176   0.969   3.566   5.980  0.2714  0.1825 -0.4129
13740TIP3    H141177   0.886   3.599   5.947  0.7550  0.9536 -0.8918
13740TIP3    H241178   1.020   3.644   5.999  1.2401 -0.2739 -1.0455
13741TIP3   OH241179   5.840   7.725   0.973 -0.5799 -0.3739 -0.2504
13741TIP3    H141180   5.776   7.776   0.924 -0.3921  0.2476  0.1332
13741TIP3    H241181   5.925   7.761   0.947 -0.4913  0.1616  0.7223
13742TIP3   OH241182   6.276   1.396   1.775 -0.0960 -0.5924 -0.2370
13742TIP3    H141183   6.320   1.441   1.847 -1.3608  0.1133  0.1185
13742TIP3    H241184   6.347   1.355   1.726  0.8379 -0.6049  1.0718
13743TIP3   OH241185   2.146   6.513   6.255  0.3410 -0.1390  0.3652
13743TIP3    H141186   2.233   6.549   6.239  0.5921 -0.7472  0.3400
13743TIP3    H241187   2.134   6.447   6.187 -0.9723  1.3304 -0.9208
13744TIP3   OH241188   6.226   7.639   0.015  0.0582  0.0220  0.3421
13744TIP3    H141189   6.279   7.598   0.083  1.9748 -0.0098 -1.0893
13744TIP3    H241190   6.206   7.567  -0.046  1.4996  0.6925 -0.9909
13745TIP3   OH241191   7.783   5.619   2.773  0.1464  0.4832 -0.6562
13745TIP3    H141192   7.874   5.646   2.760  0.7100 -1.5290 -1.1999
13745TIP3    H241193   7.780   5.586   2.863 -0.6694  2.6310  0.1928
13746TIP3   OH241194   1.047   0.798   3.928  0.0802  0.2686  0.2593
13746TIP3    H141195   1.138   0.777   3.944  0.1711  0.7459  0.3935
13746TIP3    H241196   0.998   0.720   3.956  0.4985 -0.3465 -0.6620
13747TIP3   OH241197   5.943   6.936   1.927 -0.0512 -0.8913  0.5626
13747TIP3    H141198   5.851   6.925   1.905 -0.1603 -2.4422  1.6287
13747TIP3    H241199   5.990   6.880   1.866  0.2973  0.4864 -0.4937
13748TIP3   OH241200   0.666   4.393   1.119 -0.3661  0.3111 -0.1395
13748TIP3    H141201   0.658   4.394   1.214  0.2539 -0.0210 -0.0820
13748TIP3    H241202   0.591   4.444   1.088 -0.3046  0.8304  0.5445
13749TIP3   OH241203   0.679   4.616   1.538 -0.4251 -0.0780  0.1619
13749TIP3    H141204   0.718   4.558   1.604 -0.9986  0.7811  1.2829
13749TIP3    H241205   0.604   4.656   1.583 -1.0550  0.2389 -1.1400
13750TIP3   OH241206   8.232   6.471   5.748  0.1877  0.1135  0.1391
13750TIP3    H141207   8.176   6.538   5.709 -1.3211 -1.8118 -1.2470
13750TIP3    H241208   8.307   6.465   5.689  0.4535  0.7193  0.4060
13751TIP3   OH241209   0.041   5.699   6.498  0.0555  0.2618  0.2436
13751TIP3    H141210   0.114   5.739   6.451 -0.2272  0.9242  0.3489
13751TIP3    H241211   0.081   5.654   6.572  0.4052  0.1535 -0.0134
13752TIP3   OH241212   5.063   5.502   0.575  0.2012 -0.0295  0.0200
13752TIP3    H141213   5.050   5.585   0.528 -1.9677 -0.0478  0.5093
13752TIP3    H241214   5.046   5.524   0.667 -1.4513 -1.1997  0.0291
13753TIP3   OH241215   4.261   4.358   1.503 -0.3970 -0.3789  0.0895
13753TIP3    H141216   4.272   4.403   1.420 -1.6541 -0.1218  0.0393
13753TIP3    H241217   4.198   4.288   1.484 -0.4794 -0.4930  0.7638
13754TIP3   OH241218   3.778   3.583   3.975  0.6069  0.0972 -0.3168
13754TIP3    H141219   3.821   3.525   3.912  0.5438 -0.1422 -0.1363
13754TIP3    H241220   3.708   3.531   4.013 -1.0732  1.0230 -1.9329
13755TIP3   OH241221   3.825   5.866   6.179 -0.5968  0.4482 -1.1444
13755TIP3    H141222   3.756   5.827   6.125 -0.0182  0.1167 -1.6528
13755TIP3    H241223   3.900   5.808   6.167 -0.0035  1.2159 -1.1813
13756TIP3   OH241224   6.770   1.821   3.357 -0.9162 -0.6914  0.4019
13756TIP3    H141225   6.820   1.742   3.337 -0.9391 -0.4742 -0.5785
13756TIP3    H241226   6.806   1.887   3.298 -1.6291 -0.2610  0.4398
13757TIP3   OH241227   6.804   6.081   5.820  0.4812  0.0497  0.1274
13757TIP3    H141228   6.764   6.114   5.901 -0.9045  1.8158 -1.1862
13757TIP3    H241229   6.766   5.995   5.807  0.1896  0.0396  0.9918
13758TIP3   OH241230   2.455   3.659   1.889 -0.2063 -0.2367 -0.4840
13758TIP3    H141231   2.483   3.646   1.979 -1.3747  1.3507  0.1419
13758TIP3    H241232   2.537   3.665   1.839  0.4478 -1.3176  0.4001
13759TIP3   OH241233   5.337   2.223   4.605 -0.4142 -0.3915 -0.2870
13759TIP3    H141234   5.404   2.274   4.650 -0.2967 -0.8975  0.1162
13759TIP3    H241235   5.275   2.198   4.674 -0.8152 -0.2573 -0.5905
13760TIP3   OH241236   3.349   6.993   3.324  0.3425  0.0677  0.3291
13760TIP3    H141237   3.405   7.001   3.401  1.6812  0.2603 -0.6409
13760TIP3    H241238   3.365   7.073   3.274 -1.9757  0.8889  0.7382
13761TIP3   OH241239   7.804   1.832   3.304 -0.5790 -0.1624  0.2137
13761TIP3    H141240   7.779   1.770   3.236 -1.2986 -0.2736  0.5718
13761TIP3    H241241   7.741   1.817   3.375 -1.1498  1.3954  0.0670
13762TIP3   OH241242   3.334   5.470   2.770  0.1439  0.2996  0.4653
13762TIP3    H141243   3.390   5.402   2.734  0.3229  0.3411  0.6647
13762TIP3    H241244   3.361   5.478   2.862  1.9992  2.5146 -0.1930
13763TIP3   OH241245   3.079   6.070   5.546 -0.1895 -0.1861  0.0228
13763TIP3    H141246   3.011   6.058   5.612 -1.8427  1.7979 -1.1553
13763TIP3    H241247   3.058   6.005   5.479  2.2436 -3.0781  1.8313
13764TIP3   OH241248   5.962   5.778   6.324  0.1182 -0.4035  0.1478
13764TIP3    H141249   5.956   5.722   6.401  1.4591  2.1718  2.2995
13764TIP3    H241250   6.036   5.743   6.275  0.2355 -1.1602  0.8432
13765TIP3   OH241251   7.877   5.244   2.287  0.1034  0.2711 -0.0312
13765TIP3    H141252   7.960   5.290   2.302  1.6232 -1.9437 -1.0048
13765TIP3    H241253   7.866   5.245   2.192 -0.9630  0.4586  0.0846
13766TIP3   OH241254   0.342   5.391   0.208  0.3756  0.3812  0.3132
13766TIP3    H141255   0.388   5.309   0.192  1.7654  0.6857  2.3964
13766TIP3    H241256   0.407   5.459   0.194 -0.4372  1.0692 -0.2229
13767TIP3   OH241257   6.556   6.535   5.430  0.9241  0.1324  0.1272
13767TIP3    H141258   6.504   6.563   5.354 -0.3926 -1.0709  0.5398
13767TIP3    H241259   6.616   6.607   5.446  1.8604  0.0879 -2.5916
13768TIP3   OH241260   7.826   1.423   4.404  0.2421 -0.1475 -0.4112
13768TIP3    H141261   7.838   1.438   4.310 -0.4422  0.9069 -0.3460
13768TIP3    H241262   7.829   1.510   4.443 -3.3865 -0.0401  0.0380
13769TIP3   OH241263   1.305   6.471   0.933 -0.2324  0.1259 -0.5755
13769TIP3    H141264   1.333   6.445   0.845 -0.9008 -1.1703 -0.4198
13769TIP3    H241265   1.210   6.468   0.930 -0.2457 -0.5171  0.3702
13770TIP3   OH241266   5.577   3.469   0.244 -0.0936  0.3147  0.6434
13770TIP3    H141267   5.567   3.543   0.184 -1.4930 -1.4982 -1.5527
13770TIP3    H241268   5.488   3.436   0.257  0.4919 -1.0499  1.4553
13771TIP3   OH241269   8.072   1.693   4.362  0.1012 -0.2832  0.6998
13771TIP3    H141270   8.059   1.682   4.268 -1.0056  0.3230  0.7673
13771TIP3    H241271   8.118   1.613   4.389  1.1589 -0.0965 -0.4785
13772TIP3   OH241272   5.581   5.884   5.864 -0.0658  0.2331  0.0080
13772TIP3    H141273   5.584   5.789   5.874 -0.5815 -0.3218 -3.6850
13772TIP3    H241274   5.564   5.917   5.952 -0.6893 -3.1107  1.2846
13773TIP3   OH241275   3.948   4.344   2.852 -0.5474 -0.0747 -0.3870
13773TIP3    H141276   3.946   4.440   2.845 -1.8962 -0.0376  0.1726
13773TIP3    H241277   3.859   4.317   2.829 -0.3156 -1.1565 -0.0549
13774TIP3   OH241278   5.698   1.389   0.812 -0.1449 -0.3745  0.0846
13774TIP3    H141279   5.690   1.357   0.722 -1.5692 -1.9519  0.7087
13774TIP3    H241280   5.791   1.408   0.822 -0.0911  0.7200 -1.9716
13775TIP3   OH241281   2.442   1.287   2.810  0.2622  0.3099 -0.1644
13775TIP3    H141282   2.394   1.309   2.731 -2.0537  1.6312  1.5011
13775TIP3    H241283   2.527   1.330   2.800 -0.3369  1.2328 -1.5158
13776TIP3   OH241284   5.721   7.240   0.848  0.4705 -0.6096  0.0574
13776TIP3    H141285   5.771   7.289   0.783  0.7459 -1.5663 -0.4675
13776TIP3    H241286   5.737   7.148   0.827 -1.4404 -0.9593 -0.0899
13777TIP3   OH241287   1.360   4.652   4.712 -0.4726 -0.1621 -0.3946
13777TIP3    H141288   1.435   4.593   4.709 -0.7959 -0.5945 -0.0006
13777TIP3    H241289   1.388   4.728   4.660  0.4311 -0.0911  0.1687
13778TIP3   OH241290   2.246   1.345   0.605  0.2465 -0.4435 -0.5352
13778TIP3    H141291   2.299   1.416   0.641  1.6201 -0.2261 -2.7815
13778TIP3    H241292   2.165   1.388   0.576  0.9379  0.2033 -1.5889
13779TIP3   OH241293   7.601   1.785   2.939 -0.2440 -0.1792  0.7319
13779TIP3    H141294   7.630   1.814   2.853 -1.3350  0.6518  0.6275
13779TIP3    H241295   7.681   1.757   2.983  0.2992 -0.9029 -0.6451
13780TIP3   OH241296   7.515   1.375   4.358 -0.0424  0.0445  0.2621
13780TIP3    H141297   7.567   1.439   4.310  0.8644 -1.3223 -0.6457
13780TIP3    H241298   7.564   1.360   4.439 -0.0819  0.2391  0.3230
13781TIP3   OH241299   7.461   2.829   0.725 -0.1888 -0.1334 -0.2081
13781TIP3    H141300   7.510   2.857   0.802 -0.3852  0.8284 -0.4192
13781TIP3    H241301   7.372   2.813   0.757 -0.6310  1.6316 -0.4633
13782TIP3   OH241302   2.859   7.310   3.341 -0.3757  0.6131  0.1733
13782TIP3    H141303   2.807   7.251   3.396  0.3569 -1.0582 -0.8399
13782TIP3    H241304   2.908   7.363   3.404 -0.4196 -0.4633  1.1675
13783TIP3   OH241305   8.160   4.170   0.422  0.2376  0.1479 -0.5951
13783TIP3    H141306   8.064   4.175   0.428  0.2411  0.8776 -1.0122
13783TIP3    H241307   8.186   4.257   0.392  0.9973 -0.1839 -0.9151
13784TIP3   OH241308   2.451   4.251   2.363 -0.7086  0.1213  1.0599
13784TIP3    H141309   2.477   4.162   2.384  0.2627  0.2028  0.2659
13784TIP3    H241310   2.369   4.242   2.315 -0.0094 -0.4378 -0.0539
13785TIP3   OH241311   5.578   1.352   4.453 -0.5541  0.4090  0.2163
13785TIP3    H141312   5.550   1.277   4.506  0.1795 -1.4802 -1.8663
13785TIP3    H241313   5.505   1.367   4.392 -0.4329  0.9711  0.2039
13786TIP3   OH241314   3.967   2.042   1.815 -0.2651  0.1386  0.4565
13786TIP3    H141315   3.965   2.013   1.906 -1.3098  0.0348  0.4136
13786TIP3    H241316   3.888   2.005   1.777 -0.2725  0.8855 -0.2769
13787TIP3   OH241317   3.789   2.892   0.177 -0.0963  0.4012 -0.1821
13787TIP3    H141318   3.823   2.978   0.150  1.2673 -0.3857 -1.0641
13787TIP3    H241319   3.733   2.912   0.252  0.9419  1.9720  0.2420
13788TIP3   OH241320   7.899   0.973   1.521  0.1225  0.5744  0.1259
13788TIP3    H141321   7.950   0.958   1.441  0.5157  1.2801  0.2312
13788TIP3    H241322   7.940   0.918   1.587 -1.2763 -1.3769 -0.5347
13789TIP3   OH241323   7.509   3.447   0.798  0.0035 -0.5496 -0.0107
13789TIP3    H141324   7.470   3.524   0.757  1.0808  0.1294  0.1760
13789TIP3    H241325   7.436   3.389   0.816 -0.7670  0.1976 -0.6639
13790TIP3   OH241326   8.017   7.068   0.952  0.5729  0.4261  0.0078
13790TIP3    H141327   8.030   7.034   1.041  0.2584  0.2796 -0.0030
13790TIP3    H241328   7.997   7.161   0.964 -2.3796 -0.1477  0.3016
13791TIP3   OH241329   7.315   4.597   3.756 -0.1642 -0.2382 -0.5209
13791TIP3    H141330   7.365   4.668   3.717 -0.3562 -0.1537 -0.6143
13791TIP3    H241331   7.245   4.641   3.804  0.5994 -0.2877  0.6921
13792TIP3   OH241332   5.206   2.043   2.618 -0.1305 -0.6710  0.4904
13792TIP3    H141333   5.145   2.078   2.684 -1.4932 -0.5107 -0.7940
13792TIP3    H241334   5.273   2.110   2.609 -0.9059  0.1110  0.4424
13793TIP3   OH241335   8.147   2.361   4.674  0.1172 -0.0616  0.0859
13793TIP3    H141336   8.145   2.270   4.646 -0.6156 -0.0698  0.1400
13793TIP3    H241337   8.057   2.393   4.659 -0.3516 -0.0771  2.4447
13794TIP3   OH241338   2.773   4.329   3.656 -0.7166  0.2792 -0.9468
13794TIP3    H141339   2.693   4.365   3.695  1.3200  1.4176  2.6452
13794TIP3    H241340   2.744   4.250   3.611 -3.6847 -0.2830  1.5847
13795TIP3   OH241341   1.336   0.329   3.078 -0.5657 -0.6393  0.5587
13795TIP3    H141342   1.387   0.319   2.997 -0.3156  1.8675  0.3124
13795TIP3    H241343   1.275   0.255   3.077  0.5675 -1.6320 -1.0373
13796TIP3   OH241344   2.981   6.638   6.121 -0.6393 -0.1937  0.1895
13796TIP3    H141345   2.981   6.592   6.205  1.6645 -0.3021  0.1741
13796TIP3    H241346   2.888   6.651   6.101 -1.3141  1.2990  3.5427
13797TIP3   OH241347   7.084   1.449   2.089  0.0768 -0.5601 -0.2802
13797TIP3    H141348   6.995   1.484   2.080 -0.3403 -1.7079 -0.8214
13797TIP3    H241349   7.141   1.526   2.080 -0.8205  0.0415 -1.0000
13798TIP3   OH241350   4.362   7.614   5.685 -0.1078 -0.0611 -1.0772
13798TIP3    H141351   4.278   7.571   5.666 -0.7176 -0.1521  1.4632
13798TIP3    H241352   4.373   7.677   5.614 -3.5915  1.7286 -0.2685
13799TIP3   OH241353   4.995   6.017   3.668  0.9638 -0.1011 -0.2889
13799TIP3    H141354   4.949   6.018   3.752  1.0517  0.3033 -0.2454
13799TIP3    H241355   4.976   5.930   3.631 -0.4954  0.3321 -0.6353
13800TIP3   OH241356   6.235   1.541   6.026 -0.2772  0.2082  0.3999
13800TIP3    H141357   6.222   1.475   6.094  0.6437  0.3339  0.7060
13800TIP3    H241358   6.278   1.614   6.070 -2.7073  1.7216  0.4370
13801TIP3   OH241359   0.545   0.340   5.378  0.3433 -0.2177  0.6813
13801TIP3    H141360   0.533   0.255   5.422  1.9838  0.0257  1.6688
13801TIP3    H241361   0.585   0.318   5.294  0.0083 -0.4735  0.5868
13802TIP3   OH241362   1.624   0.684   5.561  0.3738 -0.1813 -0.5468
13802TIP3    H141363   1.531   0.662   5.560  0.4878 -0.7161  0.2229
13802TIP3    H241364   1.633   0.746   5.634  0.5376  0.2731 -0.9451
13803TIP3   OH241365   3.118   6.480   4.012 -0.2620 -0.2264  0.2055
13803TIP3    H141366   3.086   6.395   4.043 -2.3267  0.6169  0.5966
13803TIP3    H241367   3.169   6.514   4.085  0.1677 -0.9072  0.2326
13804TIP3   OH241368   3.079   1.253   0.218  0.0242 -0.3580 -0.1269
13804TIP3    H141369   3.091   1.292   0.132  2.7941 -1.9181 -0.5543
13804TIP3    H241370   3.125   1.313   0.278 -2.0037  0.7931  0.3810
13805TIP3   OH241371   1.855   5.435   5.138  0.0435 -0.5450 -0.4383
13805TIP3    H141372   1.836   5.476   5.222  1.7044 -0.8164  0.1052
13805TIP3    H241373   1.848   5.506   5.074 -1.3729 -0.3719 -0.1170
13806TIP3   OH241374   5.718   0.614   0.253 -0.0385 -0.1122 -0.0044
13806TIP3    H141375   5.716   0.707   0.233 -0.0835  0.0747  0.8486
13806TIP3    H241376   5.752   0.608   0.342 -2.5685 -0.6995  1.0414
13807TIP3   OH241377   6.142   3.457   1.117  0.1429  0.4969 -0.5264
13807TIP3    H141378   6.132   3.517   1.190  0.7351  0.5671 -0.5034
13807TIP3    H241379   6.160   3.514   1.042 -0.4694  0.4272 -0.7360
13808TIP3   OH241380   6.542   5.718   2.457 -0.5600 -0.5694  0.1255
13808TIP3    H141381   6.585   5.802   2.474 -0.3099 -0.7142  0.2108
13808TIP3    H241382   6.456   5.727   2.499 -0.8284 -0.0789 -0.5119
13809TIP3   OH241383   5.105   5.204   0.479 -0.0764 -0.5830  0.4991
13809TIP3    H141384   5.083   5.199   0.572  0.3001 -0.2179  0.6118
13809TIP3    H241385   5.100   5.113   0.448 -2.0907 -0.4875  0.4085
13810TIP3   OH241386   8.257   3.163   5.619 -0.8401 -0.4081 -0.3912
13810TIP3    H141387   8.238   3.161   5.713 -0.9739 -2.0520 -0.4167
13810TIP3    H241388   8.352   3.165   5.613 -0.8432  1.2223 -0.2462
13811TIP3   OH241389   5.875   6.066   4.141  0.4378  0.3074 -0.2903
13811TIP3    H141390   5.944   6.062   4.208 -0.3093  1.6464  0.6193
13811TIP3    H241391   5.844   5.976   4.132  0.9835  0.0038  0.7212
13812TIP3   OH241392   6.923   5.497   0.884 -0.2649 -0.0799 -0.5769
13812TIP3    H141393   7.017   5.482   0.892 -0.1340  1.1618  0.7689
13812TIP3    H241394   6.893   5.434   0.818  1.4757 -0.5744 -0.9314
13813TIP3   OH241395   5.468   0.745   0.416  0.0316  0.5963  0.0893
13813TIP3    H141396   5.540   0.807   0.415 -1.1589  2.0304  0.7738
13813TIP3    H241397   5.411   0.774   0.487 -0.9503 -0.8213 -0.0728
13814TIP3   OH241398   7.526   1.857   6.103  0.0651  0.0510  0.5011
13814TIP3    H141399   7.549   1.915   6.176 -1.5403  1.3871  0.0099
13814TIP3    H241400   7.449   1.809   6.133  0.8172 -1.1773  0.5418
13815TIP3   OH241401   2.224   4.509   4.679  1.2382 -0.0105 -0.1140
13815TIP3    H141402   2.148   4.457   4.654  1.4724  0.4436 -1.8951
13815TIP3    H241403   2.187   4.584   4.726  0.4205  0.8307 -1.9843
13816TIP3   OH241404   6.937   7.373   3.842 -0.0483  0.5135 -0.4222
13816TIP3    H141405   6.857   7.325   3.865 -0.5474  1.6067  0.2008
13816TIP3    H241406   7.004   7.305   3.832 -0.5410 -0.2659  1.2616
13817TIP3   OH241407   3.202   3.234   4.953 -0.0555 -0.2014 -0.1466
13817TIP3    H141408   3.254   3.156   4.972  0.8830  0.6320  0.8950
13817TIP3    H241409   3.250   3.305   4.996 -0.9641  0.9265 -0.9401
13818TIP3   OH241410   5.766   4.153   0.251 -0.0493  0.5910 -0.6454
13818TIP3    H141411   5.731   4.139   0.163 -1.1292 -1.3940  0.0360
13818TIP3    H241412   5.711   4.222   0.288  0.8152  1.8958 -1.6980
13819TIP3   OH241413   7.684   3.432   4.700  0.2495 -0.2928  0.0662
13819TIP3    H141414   7.676   3.491   4.626  1.7853 -0.0888  0.0260
13819TIP3    H241415   7.759   3.377   4.679 -0.2010 -1.2263  0.8064
13820TIP3   OH241416   4.639   1.816   4.285 -0.0089  0.3856 -0.4376
13820TIP3    H141417   4.676   1.780   4.204 -2.0597  0.9854 -1.7132
13820TIP3    H241418   4.636   1.741   4.345  1.8720  0.0107 -0.7254
13821TIP3   OH241419   3.349   1.680   6.573  0.5361  0.4487 -0.0789
13821TIP3    H141420   3.358   1.591   6.540 -1.5110  0.5880 -1.1913
13821TIP3    H241421   3.265   1.710   6.538 -0.6082  1.5289  3.1788
13822TIP3   OH241422   5.517   0.380   0.288 -0.3838  0.2204  0.6927
13822TIP3    H141423   5.472   0.462   0.271 -0.4064 -0.2494 -1.9212
13822TIP3    H241424   5.609   0.405   0.302 -0.7162  0.8101  2.0036
13823TIP3   OH241425   4.754   1.619   5.492 -0.8315  0.2166 -0.3654
13823TIP3    H141426   4.804   1.692   5.529 -1.3302  0.2326  0.2869
13823TIP3    H241427   4.663   1.648   5.495 -0.9201  0.0718 -1.2847
13824TIP3   OH241428   2.053   0.509   2.794 -0.2573 -0.4464  0.3796
13824TIP3    H141429   1.989   0.437   2.794  0.6566 -1.2992 -0.6344
13824TIP3    H241430   2.010   0.579   2.843 -1.9290 -1.0228 -0.1814
13825TIP3   OH241431   4.123   0.093   2.888 -0.3181  0.6274  0.2217
13825TIP3    H141432   4.040   0.054   2.859 -0.0295 -0.9691  1.4322
13825TIP3    H241433   4.133   0.066   2.979  2.2520 -0.5376 -0.2993
13826TIP3   OH241434   7.056   1.367   6.290 -0.2862  0.0559 -0.2385
13826TIP3    H141435   7.052   1.293   6.230  0.0346 -1.6854  1.7899
13826TIP3    H241436   7.148   1.394   6.288 -0.2923  0.0556 -0.5746
13827TIP3   OH241437   1.225   2.550   5.280  0.4766  0.2144 -0.2466
13827TIP3    H141438   1.221   2.646   5.276  2.0116  0.4518  2.0930
13827TIP3    H241439   1.165   2.526   5.350  1.2612 -0.3703  0.2442
13828TIP3   OH241440   5.863   0.782   4.970 -0.1190 -0.0611  0.2979
13828TIP3    H141441   5.888   0.715   5.033 -2.7467 -1.7163 -0.2607
13828TIP3    H241442   5.840   0.733   4.891  2.0146  1.8702 -1.6847
13829TIP3   OH241443   1.786   5.760   1.321  0.0583 -0.6753  0.0878
13829TIP3    H141444   1.745   5.810   1.392  0.7592 -0.5975  0.4421
13829TIP3    H241445   1.746   5.673   1.326  1.5971 -1.3427  1.9453
13830TIP3   OH241446   7.319   3.320   5.449 -0.0885  0.3607  0.2020
13830TIP3    H141447   7.333   3.311   5.354  1.5803 -1.0491  0.5388
13830TIP3    H241448   7.309   3.231   5.481 -1.3658  0.8597  1.3001
13831TIP3   OH241449   1.812   4.646   4.842  0.2774  0.7898 -0.2062
13831TIP3    H141450   1.728   4.637   4.887  0.6440  0.1826  0.3755
13831TIP3    H241451   1.877   4.646   4.913  0.8010  0.8291 -0.6762
13832TIP3   OH241452   3.606   3.766   5.588 -0.3657 -0.4297 -0.1622
13832TIP3    H141453   3.517   3.799   5.580 -0.6956 -1.4720 -0.9567
13832TIP3    H241454   3.602   3.700   5.657 -0.4993 -1.3916 -1.0712
13833TIP3   OH241455   7.187   5.632   3.754 -0.2879 -0.4319 -0.0716
13833TIP3    H141456   7.179   5.544   3.792 -2.5305 -0.5522 -0.6446
13833TIP3    H241457   7.105   5.675   3.778  0.1642  1.0064 -1.0188
13834TIP3   OH241458   2.632   3.093   3.087 -0.0507 -0.0536  0.5953
13834TIP3    H141459   2.703   3.077   3.148  2.7986  1.9426 -1.9140
13834TIP3    H241460   2.672   3.140   3.014 -4.0252  1.4435 -0.9273
13835TIP3   OH241461   2.371   0.006   2.365 -0.3537  0.0230 -0.4651
13835TIP3    H141462   2.463   0.023   2.344 -0.2646 -1.5432 -1.5674
13835TIP3    H241463   2.327   0.090   2.352  0.7175  0.4814 -1.2831
13836TIP3   OH241464   4.845   5.946   1.258  0.1728 -0.2681  0.3498
13836TIP3    H141465   4.905   5.936   1.332 -0.0310  1.6275  0.8248
13836TIP3    H241466   4.762   5.913   1.290  0.3414 -0.4633  0.5899
13837TIP3   OH241467   7.496   3.824   4.712 -0.1035  0.0286  0.2265
13837TIP3    H141468   7.592   3.817   4.714 -0.1974 -1.5677  1.1568
13837TIP3    H241469   7.473   3.804   4.621  0.4299  0.2411  0.0388
13838TIP3   OH241470   1.815   3.976   5.708 -0.2262 -0.2713  0.3485
13838TIP3    H141471   1.872   3.908   5.744 -1.3101 -1.7056 -0.5397
13838TIP3    H241472   1.860   4.006   5.629 -0.3934 -0.9761 -0.0242
13839TIP3   OH241473   7.758   0.505   2.693 -0.1491 -0.5198  0.3912
13839TIP3    H141474   7.752   0.508   2.598  1.5471 -0.0051  0.2600
13839TIP3    H241475   7.716   0.586   2.723  0.6783  0.0830 -0.0365
13840TIP3   OH241476   8.093   0.423   0.151  0.1892 -0.0619  0.2391
13840TIP3    H141477   8.050   0.488   0.095 -1.6473 -0.7204  0.8023
13840TIP3    H241478   8.048   0.431   0.235  0.3539 -1.6145  0.4997
13841TIP3   OH241479   4.910   7.454   0.853  0.3030 -0.4764  0.1819
13841TIP3    H141480   4.906   7.384   0.787  1.9196 -1.2981  0.8784
13841TIP3    H241481   4.896   7.408   0.936 -0.6625  0.3835  0.5131
13842TIP3   OH241482   5.052   3.970   4.642 -0.0200  0.5468  0.0218
13842TIP3    H141483   5.079   4.059   4.618  1.0457  0.0854 -0.5335
13842TIP3    H241484   5.083   3.915   4.571  0.5456 -0.4598  1.0085
13843TIP3   OH241485   3.720   6.014   6.475  0.1186 -0.4273 -0.3525
13843TIP3    H141486   3.686   6.045   6.392  2.8223  1.6366 -0.8210
13843TIP3    H241487   3.806   5.977   6.454  0.0962 -1.5583  1.3113
13844TIP3   OH241488   1.127   5.142   5.862 -0.0723  0.2028  0.3305
13844TIP3    H141489   1.119   5.186   5.777 -3.0149 -1.0677 -0.1597
13844TIP3    H241490   1.099   5.208   5.925 -0.5452  0.2956  0.0252
13845TIP3   OH241491   3.199   1.678   4.923 -0.3823  0.0175 -0.1053
13845TIP3    H141492   3.174   1.752   4.979  0.9375 -0.5334  1.2652
13845TIP3    H241493   3.250   1.621   4.980  1.9003 -0.0950 -2.1184
13846TIP3   OH241494   0.515   4.222   0.563  0.1245 -0.0127 -0.4135
13846TIP3    H141495   0.469   4.226   0.646  1.4893 -0.7096  0.4125
13846TIP3    H241496   0.606   4.243   0.584  0.5795 -0.5983 -1.6506
13847TIP3   OH241497   7.599   6.769   0.900  0.0668  0.5094  0.4094
13847TIP3    H141498   7.679   6.821   0.892 -0.5132  1.2116 -1.1603
13847TIP3    H241499   7.561   6.797   0.983  0.7577  1.1427  0.5240
13848TIP3   OH241500   3.721   5.672   0.634 -0.5905  0.2531  0.0641
13848TIP3    H141501   3.749   5.648   0.546  0.3585  0.1718  0.3746
13848TIP3    H241502   3.704   5.589   0.677  4.8213 -0.3309  1.8461
13849TIP3   OH241503   0.978   4.872   5.664 -0.0547  0.4032 -0.1013
13849TIP3    H141504   0.922   4.948   5.646 -0.6098  0.3824  1.3945
13849TIP3    H241505   0.929   4.797   5.629  0.5041  0.7052 -1.6024
13850TIP3   OH241506   1.758   2.952   5.931 -0.1904  0.3849 -0.9750
13850TIP3    H141507   1.794   2.867   5.906  1.4942  1.0076 -0.7654
13850TIP3    H241508   1.687   2.967   5.869  0.6528 -0.3628 -2.1655
13851TIP3   OH241509   0.759   2.922   3.265 -0.4320  0.1773  0.8741
13851TIP3    H141510   0.803   2.839   3.245 -1.1492  0.0649 -0.3125
13851TIP3    H241511   0.712   2.905   3.347 -1.7797 -1.0795 -0.1089
13852TIP3   OH241512   8.116   0.823   4.585  0.5128 -0.5225  0.7304
13852TIP3    H141513   8.049   0.797   4.521  2.2605 -1.8655 -0.6859
13852TIP3    H241514   8.156   0.902   4.548  1.2942 -1.1044  0.2894
13853TIP3   OH241515   1.430   6.010   4.616 -0.0195 -0.0187  0.3834
13853TIP3    H141516   1.493   6.017   4.545 -1.0790 -1.0468 -0.7068
13853TIP3    H241517   1.352   6.056   4.584 -0.7350 -1.0498  0.5885
13854TIP3   OH241518   7.803   4.647   2.240  0.0409  0.1193 -0.3729
13854TIP3    H141519   7.840   4.677   2.323 -1.4174 -2.4781  1.3708
13854TIP3    H241520   7.834   4.557   2.231  0.2759  0.3613 -2.7824
13855TIP3   OH241521   7.558   4.089   0.415 -0.1195 -0.0858  0.2025
13855TIP3    H141522   7.489   4.031   0.446  0.0338 -0.2820  0.1808
13855TIP3    H241523   7.626   4.030   0.382  0.0966  0.1023  0.3042
13856TIP3   OH241524   4.400   6.151   2.167 -0.0056  0.1274  0.2226
13856TIP3    H141525   4.433   6.128   2.080  0.6459  1.0313  0.2133
13856TIP3    H241526   4.326   6.092   2.181 -1.0868  0.9429 -1.5700
13857TIP3   OH241527   5.423   3.299   3.611 -0.2008  0.0481 -0.4492
13857TIP3    H141528   5.486   3.364   3.640 -0.2881 -0.4160  0.8612
13857TIP3    H241529   5.439   3.223   3.668 -2.6590  0.3070  0.7506
13858TIP3   OH241530   1.331   4.997   0.981  0.4684 -0.2729  0.5302
13858TIP3    H141531   1.345   4.909   0.946  2.3017 -1.1059  3.0912
13858TIP3    H241532   1.297   5.047   0.906 -0.2371 -3.0036 -1.1265
13859TIP3   OH241533   8.128   3.521   4.152  0.5445  1.0144  0.2728
13859TIP3    H141534   8.197   3.523   4.086  0.4485  1.2645  0.1790
13859TIP3    H241535   8.167   3.563   4.229  0.7040  0.5976  0.4254
13860TIP3   OH241536   3.338   2.266   2.765 -0.2709  0.6016  1.0750
13860TIP3    H141537   3.300   2.266   2.677 -2.9301  3.2556  2.0421
13860TIP3    H241538   3.433   2.273   2.750 -0.6564  1.3026 -1.5932
13861TIP3   OH241539   5.841   0.630   2.149  0.1015  0.5145  0.3696
13861TIP3    H141540   5.821   0.685   2.224  2.1841  0.9526  0.6637
13861TIP3    H241541   5.906   0.680   2.099  0.9144 -1.0041 -0.1606
13862TIP3   OH241542   7.064   6.963   0.796 -0.7290  0.1079 -0.4611
13862TIP3    H141543   7.099   6.896   0.738 -2.0959 -0.7153 -0.3789
13862TIP3    H241544   7.119   6.958   0.874 -1.1448 -1.3336 -0.2270
13863TIP3   OH241545   8.130   4.054   2.167 -0.0509 -0.0706 -0.4014
13863TIP3    H141546   8.092   4.003   2.239  0.7305  3.3477  2.7037
13863TIP3    H241547   8.217   4.018   2.155 -0.1772 -0.6655  0.3967
13864TIP3   OH241548   6.407   1.689   6.197 -0.2014  0.0187 -0.3499
13864TIP3    H141549   6.493   1.679   6.157 -0.0716 -0.2011 -0.0116
13864TIP3    H241550   6.408   1.777   6.235  0.5701 -0.6887  1.3363
13865TIP3   OH241551   4.575   4.059   5.358  0.0987  0.0625 -0.6838
13865TIP3    H141552   4.520   4.067   5.436 -0.4081 -1.7091 -0.8000
13865TIP3    H241553   4.653   4.013   5.388 -0.6563 -1.7981 -1.4002
13866TIP3   OH241554   1.426   5.999   2.358 -0.1393  0.5131 -0.4391
13866TIP3    H141555   1.350   5.946   2.381 -0.8117  0.7980 -1.9051
13866TIP3    H241556   1.480   5.998   2.437 -0.8244 -1.1397  0.0632
13867TIP3   OH241557   0.735   3.797   0.598  0.1276  0.2189 -0.4956
13867TIP3    H141558   0.756   3.704   0.594  0.0209  0.2248 -1.3162
13867TIP3    H241559   0.718   3.814   0.691  0.4797 -0.5011 -0.2929
13868TIP3   OH241560   3.287   5.410   3.167 -0.0190  0.0344  0.1061
13868TIP3    H141561   3.333   5.347   3.111  0.2283  0.6415 -0.3842
13868TIP3    H241562   3.196   5.380   3.166 -0.0513  0.1169 -0.7543
13869TIP3   OH241563   0.397   1.750   5.475 -0.0002 -0.4716 -0.0099
13869TIP3    H141564   0.471   1.709   5.431  0.0878 -0.7857  0.4259
13869TIP3    H241565   0.435   1.792   5.553 -0.0137  0.8186 -0.6671
13870TIP3   OH241566   7.435   3.702   2.306  0.1650 -0.4876 -0.2363
13870TIP3    H141567   7.511   3.673   2.257  1.4331 -2.5500  2.6298
13870TIP3    H241568   7.467   3.774   2.361 -0.7148  0.4620 -0.9157
13871TIP3   OH241569   3.661   5.374   5.229  0.3300 -0.2355  0.4834
13871TIP3    H141570   3.720   5.349   5.299 -0.5928 -0.7091  1.1230
13871TIP3    H241571   3.714   5.425   5.168  1.5006 -1.0628  0.7826
13872TIP3   OH241572   6.705   6.029   1.348 -0.5800  0.1334 -0.6089
13872TIP3    H141573   6.679   6.121   1.353 -1.4663 -0.1700  1.5145
13872TIP3    H241574   6.667   5.997   1.267 -2.2198  1.1014 -0.2667
13873TIP3   OH241575   7.893   5.848   1.100  0.4712  0.0961  0.1970
13873TIP3    H141576   7.822   5.903   1.066 -0.4269  0.3023  2.2867
13873TIP3    H241577   7.851   5.766   1.124  1.4583 -0.7996 -1.0043
13874TIP3   OH241578   1.032   1.825   1.532 -0.3733  0.4221  0.4555
13874TIP3    H141579   1.092   1.897   1.510 -0.6405  1.0056  1.5516
13874TIP3    H241580   1.041   1.815   1.627 -0.9273 -0.4718  0.4235
13875TIP3   OH241581   7.452   6.249   3.320  0.3703 -0.1523 -0.4614
13875TIP3    H141582   7.356   6.256   3.324  0.4288  1.0440 -0.6694
13875TIP3    H241583   7.478   6.320   3.262  1.4298 -0.0353  0.1395
13876TIP3   OH241584   4.630   6.878   3.610 -0.2898 -0.2012  0.2214
13876TIP3    H141585   4.595   6.963   3.584 -2.5926 -0.6136  1.6046
13876TIP3    H241586   4.580   6.815   3.558 -0.5566 -0.7751  1.1503
13877TIP3   OH241587   2.784   7.148   6.322 -0.5062 -0.4190 -0.4176
13877TIP3    H141588   2.775   7.240   6.347  0.3196 -0.6463  0.8022
13877TIP3    H241589   2.757   7.099   6.399 -0.6150 -1.2069 -0.9455
13878TIP3   OH241590   4.968   3.567   1.345 -0.0682  0.1495 -0.2164
13878TIP3    H141591   5.003   3.635   1.287  0.6265 -0.2830 -0.3136
13878TIP3    H241592   5.041   3.508   1.360  0.1827  0.9571  2.1937
13879TIP3   OH241593   4.095   0.500   3.599  0.4021  0.0243  0.2587
13879TIP3    H141594   4.159   0.509   3.528 -0.4692  0.3121 -0.4987
13879TIP3    H241595   4.118   0.417   3.641  0.6191 -0.3984 -0.6662
13880TIP3   OH241596   1.649   0.746   3.825  0.0715  0.5695 -0.5009
13880TIP3    H141597   1.736   0.736   3.788 -1.1353  0.2358 -3.5263
13880TIP3    H241598   1.634   0.841   3.828  0.1316  0.5978 -1.0526
13881TIP3   OH241599   0.219   3.512   1.162  0.7018 -0.2442  0.6310
13881TIP3    H141600   0.176   3.428   1.144  0.4382 -0.0612  0.4084
13881TIP3    H241601   0.148   3.574   1.175  0.8956  0.0222  0.4382
13882TIP3   OH241602   5.356   6.723   5.366 -0.6178 -1.0422  0.0906
13882TIP3    H141603   5.264   6.699   5.365 -0.8128 -0.3654  0.7814
13882TIP3    H241604   5.393   6.675   5.440 -0.9252  0.3945  1.2343
13883TIP3   OH241605   1.279   7.034   4.318 -0.8336 -0.0307  0.1105
13883TIP3    H141606   1.364   7.025   4.361 -0.3780 -0.5121 -0.8720
13883TIP3    H241607   1.231   7.097   4.373  0.7321  1.4856 -0.1818
13884TIP3   OH241608   2.873   5.789   3.955  0.1257  0.3054  0.6149
13884TIP3    H141609   2.784   5.756   3.970 -0.4664  2.2509  1.8161
13884TIP3    H241610   2.862   5.884   3.947  2.1551  0.6589  1.3641
13885TIP3   OH241611   6.006   4.753   5.584  0.7177  0.6044  0.2107
13885TIP3    H141612   6.002   4.688   5.514  2.4837 -0.8666  1.3797
13885TIP3    H241613   5.930   4.808   5.569 -0.0149 -0.7968 -1.7370
13886TIP3   OH241614   3.062   2.642   3.023 -0.0626 -0.5558  0.1491
13886TIP3    H141615   3.005   2.566   3.019 -0.8006  0.0195 -0.4676
13886TIP3    H241616   3.046   2.680   3.110  0.2757 -1.0678  0.4397
13887TIP3   OH241617   6.601   0.741   3.751 -0.6482  0.4691  0.4379
13887TIP3    H141618   6.627   0.814   3.695 -0.5070 -1.4491 -2.1573
13887TIP3    H241619   6.676   0.728   3.809  0.3926  0.7945 -0.7880
13888TIP3   OH241620   4.876   6.105   4.971  0.1357 -0.5635 -0.2229
13888TIP3    H141621   4.886   6.116   4.876 -0.6697  1.7569 -0.1091
13888TIP3    H241622   4.789   6.140   4.990  1.1233  1.1167  1.6202
13889TIP3   OH241623   7.832   4.692   2.522 -0.3751 -0.7683 -0.0406
13889TIP3    H141624   7.767   4.697   2.593 -0.5153 -3.1488  0.0885
13889TIP3    H241625   7.872   4.605   2.533  1.5433 -0.0889 -1.2467
13890TIP3   OH241626   5.983   4.234   4.350  0.0259 -1.0077 -0.1946
13890TIP3    H141627   5.968   4.323   4.317 -0.0881 -0.6471  0.7822
13890TIP3    H241628   5.981   4.179   4.272 -0.4643 -0.2228 -0.7560
13891TIP3   OH241629   2.464   0.541   1.212 -0.1148  0.0366  0.2635
13891TIP3    H141630   2.438   0.459   1.253  0.7411 -0.5484 -0.3218
13891TIP3    H241631   2.554   0.525   1.181  0.3797  1.4676  0.8675
13892TIP3   OH241632   0.665   6.612   5.065  0.4778 -0.3442  0.5034
13892TIP3    H141633   0.748   6.646   5.030  0.1444  0.0679  0.1030
13892TIP3    H241634   0.675   6.517   5.061  0.5084 -0.3073 -0.5931
13893TIP3   OH241635   3.794   4.700   3.501  0.6861 -0.7480  0.0759
13893TIP3    H141636   3.883   4.731   3.483  0.7339 -0.6641  0.4492
13893TIP3    H241637   3.775   4.732   3.589  0.3476 -0.9067  0.0615
13894TIP3   OH241638   6.128   0.912   1.746 -0.4529  0.2144 -0.2943
13894TIP3    H141639   6.055   0.920   1.807 -0.4816  1.0932 -0.4209
13894TIP3    H241640   6.195   0.972   1.781 -0.2123  0.2273 -0.7640
13895TIP3   OH241641   5.782   4.293   5.676  0.0747 -0.0939 -0.0141
13895TIP3    H141642   5.704   4.268   5.627  0.8466 -1.4172 -0.6085
13895TIP3    H241643   5.853   4.291   5.612  0.7537  0.1493  0.7177
13896TIP3   OH241644   2.691   0.946   0.242  0.3441  0.0661  0.4792
13896TIP3    H141645   2.651   0.975   0.160  1.2194 -0.6383 -0.2120
13896TIP3    H241646   2.625   0.967   0.308  0.1078  1.7437 -0.2288
13897TIP3   OH241647   2.432   7.607   3.632 -1.3713 -0.4710 -0.0847
13897TIP3    H141648   2.443   7.698   3.658 -1.5643 -0.0212 -1.5418
13897TIP3    H241649   2.499   7.560   3.682  0.2492  0.7804 -0.9964
13898TIP3   OH241650   4.806   5.508   3.660  0.5317 -0.1404  0.1599
13898TIP3    H141651   4.767   5.558   3.732  1.4070 -0.2086  0.7006
13898TIP3    H241652   4.846   5.574   3.604 -0.1328 -0.0887 -0.2575
13899TIP3   OH241653   5.859   6.181   5.832 -0.0407  0.5106 -0.2603
13899TIP3    H141654   5.886   6.230   5.754 -1.2403  1.7902  0.0780
13899TIP3    H241655   5.796   6.239   5.876  0.7841 -0.0441  1.7940
13900TIP3   OH241656   0.849   4.521   2.039 -0.2235 -0.1896  0.1367
13900TIP3    H141657   0.902   4.449   2.005  0.5161  0.3478  0.1256
13900TIP3    H241658   0.874   4.529   2.131 -0.2974  0.0569  0.1371
13901TIP3   OH241659   3.584   3.598   5.814  0.5422  0.2390  0.6835
13901TIP3    H141660   3.513   3.608   5.877  1.1920  0.0644  1.4642
13901TIP3    H241661   3.629   3.518   5.842 -0.2492 -0.9082 -1.1115
13902TIP3   OH241662   4.667   0.019   6.535  0.4052  0.5662 -0.4472
13902TIP3    H141663   4.662   0.052   6.625 -0.6752  3.1092 -1.3563
13902TIP3    H241664   4.754   0.043   6.505  0.5845  0.1657 -0.2545
13903TIP3   OH241665   0.649   4.387   4.558 -0.9648  0.1850  0.0247
13903TIP3    H141666   0.632   4.369   4.650  2.3102 -0.1620  0.6885
13903TIP3    H241667   0.669   4.481   4.556 -0.3906  0.0668 -0.1632
13904TIP3   OH241668   4.623   2.469   2.797 -0.4623 -0.3246  0.1365
13904TIP3    H141669   4.564   2.421   2.856 -0.0715 -0.7505  0.1804
13904TIP3    H241670   4.710   2.456   2.834 -0.3637  0.5296  0.2195
13905TIP3   OH241671   3.303   0.751   2.285 -0.2646 -0.0048  0.0678
13905TIP3    H141672   3.357   0.689   2.334 -0.8491 -1.3878 -0.9922
13905TIP3    H241673   3.320   0.731   2.193 -2.1432 -0.0827 -0.2989
13906TIP3   OH241674   5.091   4.657   5.928  0.1488  0.0458 -0.1522
13906TIP3    H141675   5.001   4.690   5.925  0.1150  0.0123  0.3935
13906TIP3    H241676   5.117   4.668   6.019  0.9145  0.6316 -0.4345
13907TIP3   OH241677   5.043   3.592   0.359 -0.2953 -0.5896  0.5824
13907TIP3    H141678   5.052   3.553   0.271 -0.0077  0.0376  0.3235
13907TIP3    H241679   5.131   3.583   0.397 -0.4659 -1.0241  0.8833
13908TIP3   OH241680   2.075   1.069   4.623 -0.3541 -0.4335  0.2628
13908TIP3    H141681   2.003   1.114   4.667  0.4427  0.5096  0.6521
13908TIP3    H241682   2.056   0.976   4.635 -1.3870 -0.2012  0.5348
13909TIP3   OH241683   3.746   4.124   0.965  0.0232 -0.1226  0.1123
13909TIP3    H141684   3.753   4.204   1.017  0.0924 -0.1989  0.2210
13909TIP3    H241685   3.803   4.061   1.010  0.0795 -0.1903 -0.0539
13910TIP3   OH241686   0.869   4.786   1.698 -0.3516  0.0770  0.0962
13910TIP3    H141687   0.807   4.833   1.754  0.6757  1.3443  0.2322
13910TIP3    H241688   0.845   4.694   1.708 -2.7892  0.5497 -0.5892
13911TIP3   OH241689   0.978   3.198   1.237 -0.5477 -0.1185  0.5109
13911TIP3    H141690   1.067   3.227   1.257 -0.8831  1.2509  0.1011
13911TIP3    H241691   0.980   3.178   1.144 -0.5791 -0.4530  0.5812
13912TIP3   OH241692   0.666   7.023   4.213 -0.5677 -0.1816  0.4737
13912TIP3    H141693   0.731   6.976   4.162  0.0198 -0.0340  1.0786
13912TIP3    H241694   0.655   6.972   4.293 -0.4926  0.2860  0.7926
13913TIP3   OH241695   6.971   4.615   0.806  0.4395 -0.4743 -0.0756
13913TIP3    H141696   6.876   4.608   0.791  0.6175 -0.6986 -1.1673
13913TIP3    H241697   6.987   4.561   0.884 -0.3219 -0.4824  0.0837
13914TIP3   OH241698   2.523   0.951   1.058 -0.0188 -0.0157  0.3958
13914TIP3    H141699   2.555   0.890   1.125  0.1473  0.7949  1.0673
13914TIP3    H241700   2.563   0.920   0.976  1.2250  0.0273  0.9626
13915TIP3   OH241701   6.908   4.316   5.556 -0.4636 -0.0187  0.3371
13915TIP3    H141702   6.850   4.352   5.623  0.1797  0.2829  0.7430
13915TIP3    H241703   6.869   4.343   5.473 -0.9055  0.1699  0.6031
13916TIP3   OH241704   4.578   0.851   3.465 -0.4672  0.4877  0.1024
13916TIP3    H141705   4.543   0.887   3.384  0.6764  0.6865 -0.3279
13916TIP3    H241706   4.602   0.928   3.517 -1.0547  0.3607  0.5814
13917TIP3   OH241707   2.446   7.612   2.456  0.6771 -0.0664  0.2272
13917TIP3    H141708   2.474   7.541   2.513 -1.1016 -0.1189  1.1137
13917TIP3    H241709   2.500   7.603   2.378  1.0849 -1.8700  0.6803
13918TIP3   OH241710   1.105   7.111   5.802  0.0271 -0.0349 -0.5241
13918TIP3    H141711   1.167   7.184   5.804 -0.7649  0.6837  2.0939
13918TIP3    H241712   1.032   7.143   5.749 -0.6146  1.4453  1.1360
13919TIP3   OH241713   2.659   7.276   4.231 -0.1364 -0.3586  0.0082
13919TIP3    H141714   2.745   7.286   4.272  0.0149  0.6088 -0.5046
13919TIP3    H241715   2.664   7.332   4.153 -1.0964 -0.6106 -0.2431
13920TIP3   OH241716   7.939   5.450   0.077 -0.8217  0.8060 -0.0436
13920TIP3    H141717   7.863   5.392   0.068 -0.5386  0.6781 -2.1186
13920TIP3    H241718   7.916   5.527   0.025  0.2323  1.0174 -0.2090
13921TIP3   OH241719   4.854   2.441   3.962 -0.0245  0.1331 -0.2673
13921TIP3    H141720   4.810   2.522   3.987 -2.3934  0.0764 -3.5471
13921TIP3    H241721   4.794   2.372   3.991 -0.1315 -0.1877 -1.2334
13922TIP3   OH241722   0.295   3.458   4.450 -0.1694  0.2087  0.1841
13922TIP3    H141723   0.325   3.543   4.417  1.3238 -0.7707 -1.1367
13922TIP3    H241724   0.285   3.471   4.544  1.7710  1.4204  0.2941
13923TIP3   OH241725   1.126   6.830   4.027  0.3699  0.0332  0.2710
13923TIP3    H141726   1.204   6.880   4.003  0.2196  0.3243  0.3934
13923TIP3    H241727   1.146   6.795   4.114  1.5468 -2.2843 -0.8266
13924TIP3   OH241728   2.355   2.613   4.397  0.6015  0.0968 -0.1753
13924TIP3    H141729   2.388   2.616   4.307 -1.9394  0.7536 -1.1444
13924TIP3    H241730   2.349   2.519   4.417  1.1335 -0.0544 -0.6880
13925TIP3   OH241731   6.546   1.124   6.333 -0.1728 -0.1130 -0.0539
13925TIP3    H141732   6.474   1.087   6.384 -0.3792  0.2458 -0.0818
13925TIP3    H241733   6.518   1.214   6.314  0.4011  0.1223  0.1759
13926TIP3   OH241734   2.150   4.988   4.373 -0.4664  0.1075 -0.4368
13926TIP3    H141735   2.131   4.937   4.452 -0.9098 -1.5391 -1.5700
13926TIP3    H241736   2.084   5.058   4.375  0.4442  0.9900  1.3821
13927TIP3   OH241737   4.901   4.457   4.785 -0.0889 -0.5777  0.0471
13927TIP3    H141738   4.951   4.383   4.750 -0.8340 -0.4518 -1.3928
13927TIP3    H241739   4.967   4.516   4.819  0.5645 -1.6004  0.6120
13928TIP3   OH241740   4.922   3.864   1.465 -0.4792  0.3454  0.7912
13928TIP3    H141741   4.927   3.930   1.534  1.6953 -0.9143  1.9585
13928TIP3    H241742   4.877   3.790   1.505 -0.7361  0.2221  0.2872
13929TIP3   OH241743   0.904   5.778   5.412  0.0438  0.0744 -0.0239
13929TIP3    H141744   0.933   5.803   5.324  1.1334  1.7052  0.7388
13929TIP3    H241745   0.976   5.803   5.469 -1.1097  0.1595  1.4757
13930TIP3   OH241746   1.557   7.057   4.425  0.0708  0.3843  0.2435
13930TIP3    H141747   1.629   7.094   4.375  1.1865 -1.3544  0.4701
13930TIP3    H241748   1.577   7.077   4.516  0.1614  0.0865  0.2899
13931TIP3   OH241749   5.356   0.685   6.055  0.2290  0.2428  0.4140
13931TIP3    H141750   5.302   0.611   6.026  2.3054 -1.6140  0.9955
13931TIP3    H241751   5.363   0.741   5.978 -2.4052  0.5318  0.3003
13932TIP3   OH241752   0.778   4.211   4.400 -0.2377  1.0231 -0.1173
13932TIP3    H141753   0.750   4.281   4.460 -0.3180 -0.3983  1.6124
13932TIP3    H241754   0.830   4.152   4.456  1.6287  0.7688 -1.9986
13933TIP3   OH241755   1.424   4.910   3.325 -0.9989  0.5586  0.2671
13933TIP3    H141756   1.489   4.904   3.396 -0.6830 -0.6914 -0.1152
13933TIP3    H241757   1.344   4.873   3.363 -1.5395  2.1433  0.7541
13934TIP3   OH241758   1.500   7.584   1.668 -0.4251 -0.2751  0.1269
13934TIP3    H141759   1.574   7.645   1.669 -0.3955 -0.3127  0.2895
13934TIP3    H241760   1.481   7.569   1.761 -1.2242  0.4606  0.1023
13935TIP3   OH241761   0.878   1.815   2.225  0.2026 -0.2087  0.5836
13935TIP3    H141762   0.894   1.722   2.241 -3.1029 -1.7309 -3.3396
13935TIP3    H241763   0.942   1.839   2.158 -0.3207 -0.2765  0.0583
13936TIP3   OH241764   2.129   6.407   1.488 -0.1999  0.0762 -0.3176
13936TIP3    H141765   2.173   6.342   1.433  0.2407 -0.0008  0.1216
13936TIP3    H241766   2.148   6.490   1.446  0.6406  0.0739  0.0431
13937TIP3   OH241767   6.718   2.534   6.235 -0.2651 -0.2665  0.2418
13937TIP3    H141768   6.799   2.583   6.243  0.7695 -1.2544 -2.7501
13937TIP3    H241769   6.688   2.522   6.325  0.9498  3.1930  1.2712
13938TIP3   OH241770   2.582   3.763   4.290 -0.9727  0.4965 -0.1010
13938TIP3    H141771   2.566   3.743   4.382 -0.6634  3.1268  0.5912
13938TIP3    H241772   2.656   3.707   4.266 -2.1134 -1.4611  0.7077
13939TIP3   OH241773   1.976   7.724   3.617  0.0596 -0.0105 -0.3946
13939TIP3    H141774   2.052   7.767   3.655  0.0683  0.1634 -0.6076
13939TIP3    H241775   1.939   7.789   3.558 -0.0952 -0.1927 -0.4975
13940TIP3   OH241776   2.913   0.978   5.796  0.5072 -0.1383 -0.4707
13940TIP3    H141777   2.990   1.016   5.839  0.5804 -1.0401  0.1981
13940TIP3    H241778   2.865   0.934   5.865 -0.6295  0.4068 -0.8804
13941TIP3   OH241779   0.761   3.947   0.158  0.0415  0.0239 -0.6049
13941TIP3    H141780   0.812   3.915   0.232 -0.4052 -0.9277 -0.6976
13941TIP3    H241781   0.809   3.916   0.081  1.1350  1.9776 -0.7656
13942TIP3   OH241782   4.294   2.836   5.715 -0.3473 -0.0792 -0.0890
13942TIP3    H141783   4.304   2.741   5.727  1.9894  0.3355  1.8784
13942TIP3    H241784   4.383   2.869   5.708 -1.0973  2.0603 -0.2463
13943TIP3   OH241785   5.386   2.285   6.642  0.2043 -0.1279  0.1594
13943TIP3    H141786   5.330   2.343   6.591  0.0153  0.3040  0.8513
13943TIP3    H241787   5.326   2.234   6.696  0.3733 -0.9224 -0.3877
13944TIP3   OH241788   2.936   7.440   6.224  0.8573 -0.1013  0.0298
13944TIP3    H141789   2.946   7.513   6.162  0.0316  1.6734  1.8631
13944TIP3    H241790   2.843   7.419   6.221  0.9822 -0.6455 -0.0208
13945TIP3   OH241791   1.423   3.497   1.919 -0.1142  0.1270 -0.3281
13945TIP3    H141792   1.499   3.489   1.977 -0.3389  2.5566  0.4094
13945TIP3    H241793   1.348   3.480   1.977 -0.2189 -1.0939 -0.7902
13946TIP3   OH241794   5.819   1.290   2.363 -0.4362  0.1002  0.3946
13946TIP3    H141795   5.880   1.330   2.301 -1.4254 -1.3443 -1.6180
13946TIP3    H241796   5.875   1.246   2.426  0.6086  0.5598 -0.1842
13947TIP3   OH241797   5.373   1.555   0.772  0.0932  0.2739 -0.3328
13947TIP3    H141798   5.454   1.606   0.777  0.3534 -0.1998  0.7415
13947TIP3    H241799   5.382   1.502   0.693  1.0435 -0.0940  0.0062
13948TIP3   OH241800   7.395   7.434   1.578 -0.5523  0.0600 -0.0270
13948TIP3    H141801   7.414   7.526   1.599  1.1847 -0.5051  1.1248
13948TIP3    H241802   7.357   7.399   1.659  0.9770 -0.7779  0.3696
13949TIP3   OH241803   3.142   1.848   3.440  0.6794 -0.5278 -0.0504
13949TIP3    H141804   3.195   1.848   3.360 -1.6907 -2.5978 -1.7501
13949TIP3    H241805   3.052   1.850   3.410 -0.3066 -0.4225  2.6397
13950TIP3   OH241806   7.359   3.352   3.313 -0.4638  0.1507 -0.3102
13950TIP3    H141807   7.350   3.295   3.389 -2.1945  1.0128  0.1845
13950TIP3    H241808   7.325   3.436   3.342  0.2946  0.9319 -1.5872
13951TIP3   OH241809   4.352   0.896   3.759 -0.6965 -0.4493 -0.2115
13951TIP3    H141810   4.428   0.954   3.757 -1.5778  0.7281 -0.7721
13951TIP3    H241811   4.277   0.954   3.746 -1.5609 -1.7959 -1.6205
13952TIP3   OH241812   3.343   4.794   4.956  0.1485  0.4146  0.2927
13952TIP3    H141813   3.291   4.716   4.973 -0.6662  1.0950  0.9986
13952TIP3    H241814   3.284   4.852   4.908  0.5168  0.8830  0.3977
13953TIP3   OH241815   2.327  -0.013   3.137  0.3734  0.2189 -0.1998
13953TIP3    H141816   2.243   0.032   3.134 -0.9969 -2.1187  0.4807
13953TIP3    H241817   2.353  -0.009   3.229 -1.3759 -2.9136  0.5866
13954TIP3   OH241818   3.835   3.242   4.087 -0.7643  0.2855 -0.1440
13954TIP3    H141819   3.871   3.154   4.099 -1.1989 -0.0842 -1.4447
13954TIP3    H241820   3.790   3.261   4.170 -0.8252 -0.7875  0.0794
13955TIP3   OH241821   4.039   3.367   6.154  0.2736  0.2931  0.0091
13955TIP3    H141822   3.998   3.424   6.219  0.9163 -0.5970  1.2317
13955TIP3    H241823   4.090   3.426   6.098  0.0980  1.0182  0.6066
13956TIP3   OH241824   5.183   4.865   5.767 -0.4391  0.1231 -0.1737
13956TIP3    H141825   5.198   4.829   5.854 -1.2093 -1.3188 -0.6157
13956TIP3    H241826   5.146   4.793   5.716 -0.4975  1.0803 -1.5581
13957TIP3   OH241827   7.160   2.777   6.430 -0.3876  0.1863  0.0540
13957TIP3    H141828   7.183   2.721   6.504 -0.5361  0.6945  0.4921
13957TIP3    H241829   7.125   2.857   6.470  0.2503  0.7806 -0.5519
13958TIP3   OH241830   7.455   5.281   4.723  0.1534  0.2284 -0.3173
13958TIP3    H141831   7.399   5.212   4.757  0.8477 -0.5831 -0.7663
13958TIP3    H241832   7.395   5.351   4.697 -0.5771 -0.2779 -0.0164
13959TIP3   OH241833   0.695   1.620   1.854  0.1094  0.3655  0.0815
13959TIP3    H141834   0.636   1.634   1.928 -1.7317 -0.0203 -1.2656
13959TIP3    H241835   0.715   1.708   1.822 -0.1841  0.4724  0.1908
13960TIP3   OH241836   7.255   6.990   1.341  0.1085  0.3520 -0.0817
13960TIP3    H141837   7.177   6.989   1.398 -0.1327  0.4920 -0.4038
13960TIP3    H241838   7.277   7.083   1.334 -0.8599  0.4917 -1.5558
13961TIP3   OH241839   4.647   7.199   2.077  0.1132  0.2385 -0.5351
13961TIP3    H141840   4.691   7.202   1.992  1.0983 -0.7945 -0.0836
13961TIP3    H241841   4.671   7.113   2.113 -0.9767  0.3198  0.4241
13962TIP3   OH241842   8.276   4.033   6.608 -0.1159  0.0063 -0.1425
13962TIP3    H141843   8.287   3.965   6.675 -1.0317  0.2727  0.2927
13962TIP3    H241844   8.310   3.993   6.528  1.8597 -0.0105  0.6244
13963TIP3   OH241845   0.868   1.506   0.850 -0.2948 -0.3148  0.6146
13963TIP3    H141846   0.955   1.497   0.811  0.1384  0.5978  1.3365
13963TIP3    H241847   0.882   1.494   0.944 -1.0253 -0.6237  0.6943
13964TIP3   OH241848   0.606   5.778   5.109 -0.3636  0.2545  0.2108
13964TIP3    H141849   0.644   5.708   5.056 -0.2330  0.1269  0.4692
13964TIP3    H241850   0.521   5.796   5.068 -0.1031  0.4104 -0.2563
13965TIP3   OH241851   4.752   5.362   5.301 -0.1356 -0.2920  0.5371
13965TIP3    H141852   4.746   5.267   5.311 -0.0145 -0.3920 -0.2659
13965TIP3    H241853   4.839   5.384   5.334 -0.5804 -0.3015  1.7745
13966TIP3   OH241854   6.478   4.720   6.226  0.1391  0.4523  0.8078
13966TIP3    H141855   6.565   4.753   6.204  0.2980 -0.4385  0.0189
13966TIP3    H241856   6.493   4.630   6.253 -0.6569 -0.1329 -0.5999
13967TIP3   OH241857   6.290   7.598   0.969 -0.1282 -0.3939 -0.1087
13967TIP3    H141858   6.383   7.591   0.991  0.5375  0.8964 -2.2767
13967TIP3    H241859   6.266   7.511   0.937  0.4404 -0.6097  0.0465
13968TIP3   OH241860   5.843   6.457   5.241 -0.6854  0.2483 -0.1900
13968TIP3    H141861   5.754   6.438   5.271 -0.6615  0.2456 -0.1201
13968TIP3    H241862   5.855   6.401   5.164 -0.4504 -0.3648  0.2883
13969TIP3   OH241863   0.402   4.228   6.465 -0.2898  0.3021 -0.1506
13969TIP3    H141864   0.449   4.258   6.543 -0.4099  1.3917 -0.4907
13969TIP3    H241865   0.309   4.232   6.490 -0.2801 -0.7866  0.1399
13970TIP3   OH241866   6.313   3.913   1.761  0.3708 -0.0723  0.2044
13970TIP3    H141867   6.369   3.837   1.772 -0.8741 -0.9849  0.4949
13970TIP3    H241868   6.308   3.952   1.848 -1.0026 -1.1621  0.6625
13971TIP3   OH241869   0.618   1.821   1.158  0.1250  0.0657  0.7302
13971TIP3    H141870   0.544   1.772   1.193 -0.3895  0.0440 -0.3655
13971TIP3    H241871   0.682   1.821   1.230 -0.1093 -1.6591  0.9812
13972TIP3   OH241872   0.508   3.176   0.386 -0.3951  0.1540  0.2412
13972TIP3    H141873   0.415   3.193   0.370 -0.5917 -1.6701 -0.7851
13972TIP3    H241874   0.549   3.183   0.299  0.1711 -0.5545  0.4443
13973TIP3   OH241875   3.130   0.411   2.460  0.4426  0.3248  0.0090
13973TIP3    H141876   3.200   0.372   2.407 -0.9126 -0.3712 -1.3581
13973TIP3    H241877   3.083   0.468   2.399  0.4542  1.6511  1.1820
13974TIP3   OH241878   0.762   2.700   0.223  0.6471 -0.5102  0.2199
13974TIP3    H141879   0.709   2.620   0.226  2.1714 -1.5673  3.5785
13974TIP3    H241880   0.833   2.679   0.162  0.1630 -1.0952 -0.1609
13975TIP3   OH241881   1.528   5.685   2.457  0.3331  0.0377 -0.1357
13975TIP3    H141882   1.529   5.655   2.547 -0.2291 -0.5338 -0.3152
13975TIP3    H241883   1.617   5.716   2.441  1.1542 -2.1747 -0.1632
13976TIP3   OH241884   4.847   0.091   5.224 -0.2911  0.6489 -0.1085
13976TIP3    H141885   4.778   0.092   5.158  0.1130 -2.9693 -0.7674
13976TIP3    H241886   4.803   0.070   5.306 -0.2908  1.2317  0.0492
13977TIP3   OH241887   6.120   1.647   2.209  0.1499  0.4815  0.2184
13977TIP3    H141888   6.039   1.680   2.249  0.2236  0.7075  0.1845
13977TIP3    H241889   6.105   1.658   2.115  0.7549  1.8216  0.2513
13978TIP3   OH241890   4.877   3.929   6.106 -0.5820 -0.1406  0.1928
13978TIP3    H141891   4.949   3.866   6.102 -1.5719 -1.2492 -1.6770
13978TIP3    H241892   4.903   3.999   6.047 -1.0502 -0.5772 -0.5405
13979TIP3   OH241893   2.054   1.452   5.609  0.0454  0.4338  0.2261
13979TIP3    H141894   2.136   1.405   5.621 -0.5125 -0.7989 -0.5639
13979TIP3    H241895   1.996   1.418   5.677 -0.4702 -0.3257 -0.5662
13980TIP3   OH241896   7.654   7.485   1.773  0.0772  0.2370 -0.1522
13980TIP3    H141897   7.747   7.507   1.770  0.1310  0.4461  1.8006
13980TIP3    H241898   7.610   7.559   1.731  0.7628  0.2445 -0.8710
13981TIP3   OH241899   6.374   1.260   3.890  0.0475 -0.2558  0.2332
13981TIP3    H141900   6.300   1.258   3.830 -0.0889 -1.4774  0.4346
13981TIP3    H241901   6.384   1.353   3.911 -2.7459 -0.2313  1.8571
13982TIP3   OH241902   1.848   5.415   2.494  0.4358  0.6761 -0.2897
13982TIP3    H141903   1.854   5.507   2.468  1.4718  0.7145  0.0134
13982TIP3    H241904   1.936   5.381   2.478  0.4131  0.0749  0.8076
13983TIP3   OH241905   1.838   1.313   5.765 -0.4679 -0.1699 -0.9928
13983TIP3    H141906   1.815   1.257   5.839 -0.7740  1.0853 -0.1057
13983TIP3    H241907   1.754   1.343   5.731 -0.2895  0.6006 -0.7685
13984TIP3   OH241908   7.131   5.279   0.371  0.6710 -0.4725  0.3815
13984TIP3    H141909   7.167   5.326   0.446  0.3654  1.8300 -0.8321
13984TIP3    H241910   7.083   5.205   0.409  2.4374 -0.7323  2.2865
13985TIP3   OH241911   4.648   4.460   6.063  0.5966  0.2153  0.5391
13985TIP3    H141912   4.649   4.549   6.029  1.6934 -0.2952 -0.9019
13985TIP3    H241913   4.586   4.414   6.006 -0.0246  0.0684  1.3233
13986TIP3   OH241914   6.652   4.902   5.327  0.0010  0.4613 -0.2338
13986TIP3    H141915   6.722   4.945   5.279 -0.5540  0.2218 -1.2746
13986TIP3    H241916   6.572   4.949   5.301 -0.4160 -0.2269 -0.2127
13987TIP3   OH241917   0.171   3.243   0.664 -0.1986 -0.2045  0.1296
13987TIP3    H141918   0.217   3.162   0.642 -2.4807 -1.4810 -0.2097
13987TIP3    H241919   0.130   3.270   0.582  0.5376  1.3469  0.2364
13988TIP3   OH241920   8.010   1.400   2.546  0.6153  0.3998  0.5380
13988TIP3    H141921   7.923   1.368   2.573  0.7857  0.0922  0.7239
13988TIP3    H241922   7.998   1.495   2.537 -0.2823  0.1453 -1.4537
13989TIP3   OH241923   3.821   5.437   6.380  0.2312  0.7245  0.1489
13989TIP3    H141924   3.806   5.422   6.473 -0.9193  3.1514  0.4197
13989TIP3    H241925   3.757   5.380   6.336 -1.8962  2.3151  1.0054
13990TIP3   OH241926   1.493   2.673   3.031  0.1716  0.4761 -0.1390
13990TIP3    H141927   1.476   2.719   3.113 -0.6190  0.6072 -0.3623
13990TIP3    H241928   1.525   2.741   2.971  1.4969  0.2389  0.2675
13991TIP3   OH241929   5.511   7.486   2.759 -0.3995  0.6139  0.4638
13991TIP3    H141930   5.576   7.509   2.692  1.0350  0.5583  1.7901
13991TIP3    H241931   5.438   7.545   2.742  0.5371  1.6076 -0.2604
13992TIP3   OH241932   1.883   2.369   5.781 -0.2043  0.0055  0.0596
13992TIP3    H141933   1.792   2.365   5.750 -0.3295  1.4309  0.1686
13992TIP3    H241934   1.884   2.312   5.858 -1.3532  0.9250  0.8032
13993TIP3   OH241935   6.698   6.405   0.420  0.2352  0.8418  0.2667
13993TIP3    H141936   6.780   6.373   0.458 -0.2168  0.7853  1.2222
13993TIP3    H241937   6.633   6.394   0.489 -1.2847 -1.9825 -1.3897
13994TIP3   OH241938   3.499   7.790   0.437 -0.3581 -0.4015 -0.1856
13994TIP3    H141939   3.525   7.698   0.438 -0.9227 -0.5863 -1.1155
13994TIP3    H241940   3.445   7.801   0.516  2.1660 -0.0756  1.6173
13995TIP3   OH241941   0.509   5.142   5.689  0.3133 -1.0374  0.3247
13995TIP3    H141942   0.423   5.184   5.687  0.3851 -0.7532  1.9832
13995TIP3    H241943   0.553   5.175   5.610  0.1885  1.6898  1.2724
13996TIP3   OH241944   1.020   6.106   2.568 -0.5731  0.8362  0.2295
13996TIP3    H141945   0.968   6.139   2.495  0.0054  1.7737  0.2188
13996TIP3    H241946   1.023   6.178   2.631 -0.5135  0.2757  0.8867
13997TIP3   OH241947   4.309   6.343   3.409  0.0561  0.4398  0.1380
13997TIP3    H141948   4.391   6.375   3.372  0.0322 -0.1624 -0.4566
13997TIP3    H241949   4.334   6.305   3.494 -0.0099  2.5315  1.1505
13998TIP3   OH241950   2.900   2.284   2.487  0.3293 -0.2273 -0.1966
13998TIP3    H141951   2.853   2.295   2.570  1.5396 -0.7192  0.5804
13998TIP3    H241952   2.867   2.201   2.452 -0.3961  0.1253 -0.3549
13999TIP3   OH241953   7.793   6.134   6.042  0.2151  0.0925 -0.6172
13999TIP3    H141954   7.821   6.206   6.098 -2.6778  1.2296 -0.4770
13999TIP3    H241955   7.822   6.160   5.954 -0.6419  1.3727 -0.5430
14000TIP3   OH241956   0.703   7.245   1.214 -0.7251 -0.0777 -0.5491
14000TIP3    H141957   0.683   7.335   1.239  1.0490  0.0782  0.5270
14000TIP3    H241958   0.675   7.193   1.290 -1.1369 -0.3585 -0.8923
14001TIP3   OH241959   2.080   6.289   2.871 -0.4632  0.3080 -0.6629
14001TIP3    H141960   2.067   6.299   2.966 -1.5912 -0.8649 -0.6641
14001TIP3    H241961   2.169   6.320   2.856  1.0219 -2.4653  1.3256
14002TIP3   OH241962   2.726   3.032   2.585  0.2960 -0.6512 -0.0402
14002TIP3    H141963   2.760   2.963   2.643  1.4606  0.7570  1.0402
14002TIP3    H241964   2.789   3.035   2.513  1.2322  0.3851  0.7810
14003TIP3   OH241965   0.383   0.297   0.284  0.1160  0.0170  0.1443
14003TIP3    H141966   0.464   0.292   0.232 -0.2146  0.2395 -0.3996
14003TIP3    H241967   0.363   0.391   0.287 -0.5809 -0.1133 -0.4330
14004TIP3   OH241968   0.113   5.218   4.812  0.6519  0.5343  0.0931
14004TIP3    H141969   0.155   5.179   4.888  1.8246 -0.5830 -1.0837
14004TIP3    H241970   0.144   5.309   4.811  0.1579  0.7387  1.2371
14005TIP3   OH241971   5.464   4.206   3.084 -0.1750 -0.4300  0.2198
14005TIP3    H141972   5.518   4.142   3.131  0.1592  1.1387  2.1355
14005TIP3    H241973   5.399   4.233   3.149 -1.3977 -0.0864 -1.1113
14006TIP3   OH241974   1.815   7.448   5.861 -0.4871 -0.1096 -0.3658
14006TIP3    H141975   1.899   7.435   5.906 -0.5989  0.4951  0.0305
14006TIP3    H241976   1.750   7.407   5.919 -0.4672 -0.5849 -0.6768
14007TIP3   OH241977   5.418   5.532   6.137 -0.1824 -0.2774 -0.6505
14007TIP3    H141978   5.430   5.448   6.182 -0.2492 -1.2240 -2.3056
14007TIP3    H241979   5.323   5.541   6.129 -0.2440  0.7318  0.8468
14008TIP3   OH241980   1.092   5.332   0.121 -0.5462 -0.1685  0.5696
14008TIP3    H141981   1.026   5.294   0.063  0.8852 -0.5412 -0.8609
14008TIP3    H241982   1.069   5.299   0.208 -0.9061 -2.1847 -0.2454
14009TIP3   OH241983   5.119   3.906   2.548  0.0551  0.2425  0.4631
14009TIP3    H141984   5.038   3.903   2.598  0.3986  0.9860  1.0958
14009TIP3    H241985   5.188   3.897   2.614  0.4890 -1.5903 -0.1818
14010TIP3   OH241986   1.814   6.441   1.833  0.3722  1.3131  0.5588
14010TIP3    H141987   1.907   6.417   1.840  0.2931  0.9578  0.4572
14010TIP3    H241988   1.799   6.504   1.903  1.1478  2.8615 -0.6013
14011TIP3   OH241989   1.425   7.819   3.836 -0.2181  0.1520 -0.3182
14011TIP3    H141990   1.519   7.836   3.836 -0.2709  0.5073 -1.4074
14011TIP3    H241991   1.417   7.729   3.804 -0.2654  0.2244 -0.5088
14012TIP3   OH241992   5.392   4.881   4.438 -0.0407  0.2917 -0.0969
14012TIP3    H141993   5.312   4.901   4.390  1.3524  1.5155 -2.0419
14012TIP3    H241994   5.444   4.961   4.434  0.4119  0.3117  3.0989
14013TIP3   OH241995   2.062   5.196   2.656  0.2933  0.4870  0.4853
14013TIP3    H141996   2.069   5.209   2.750 -1.6733  2.0294  0.4674
14013TIP3    H241997   2.141   5.237   2.620 -0.0102  1.8525  1.3168
14014TIP3   OH241998   2.472   5.381   0.390 -0.1124 -0.2940  0.1293
14014TIP3    H141999   2.546   5.433   0.423 -0.6768  0.5054  0.1768
14014TIP3    H242000   2.462   5.311   0.454  0.5930 -0.4034  0.1310
14015TIP3   OH242001   5.813   6.777   4.336  0.1390 -0.6212  0.0029
14015TIP3    H142002   5.743   6.745   4.392  0.7037  0.3209  1.3083
14015TIP3    H242003   5.893   6.744   4.377  0.5845  0.4200  0.0089
14016TIP3   OH242004   7.513   2.475   0.007 -0.3862  0.4840 -0.0970
14016TIP3    H142005   7.419   2.464   0.019 -0.7527  1.3207 -1.8442
14016TIP3    H242006   7.533   2.560   0.047 -0.7121  1.0862 -1.1786
14017TIP3   OH242007   4.033  -0.014   2.429  0.3635  0.7771  0.1809
14017TIP3    H142008   3.981   0.063   2.452  2.1874  1.7390  1.3533
14017TIP3    H242009   4.089   0.017   2.358 -0.3380 -0.1232 -0.7879
14018TIP3   OH242010   2.237   7.359   1.865  0.2482  0.0936  0.1892
14018TIP3    H142011   2.297   7.422   1.903 -1.2029  0.7846  1.4512
14018TIP3    H242012   2.293   7.299   1.816  1.8300  1.3540  0.3594
14019TIP3   OH242013   0.692   4.118   0.968  0.2481 -0.1170 -0.0087
14019TIP3    H142014   0.703   4.209   0.997  0.3297 -0.1137 -0.0506
14019TIP3    H242015   0.621   4.084   1.022  0.4063 -0.1122  0.2021
14020TIP3   OH242016   7.544   2.710   0.199  0.4227  1.0262  0.2550
14020TIP3    H142017   7.562   2.694   0.292  0.9484  0.2156  0.0283
14020TIP3    H242018   7.456   2.747   0.198  0.9552  2.4235  1.1860
14021TIP3   OH242019   7.168   3.865   2.147  0.0212  0.0203  0.2413
14021TIP3    H142020   7.248   3.905   2.112 -1.0342 -0.2961 -2.8587
14021TIP3    H242021   7.168   3.777   2.110 -2.1910  0.3330 -0.6705
14022TIP3   OH242022   2.796   1.237   2.083  0.0039  0.2388  0.2135
14022TIP3    H142023   2.761   1.263   1.998 -2.8225  0.6949  1.4046
14022TIP3    H242024   2.781   1.143   2.088  0.2631  0.1945  0.1740
14023TIP3   OH242025   5.928   0.765   6.460 -0.2389 -0.1501  0.1934
14023TIP3    H142026   5.899   0.812   6.382  0.5392 -0.6591 -0.4158
14023TIP3    H242027   5.969   0.686   6.427  1.8016  0.4980  0.9985
14024TIP3   OH242028   5.357   4.591   1.038  0.1199  0.5759 -0.1790
14024TIP3    H142029   5.288   4.525   1.032  0.4418  0.0353  1.4584
14024TIP3    H242030   5.314   4.668   1.076 -0.0704  1.0522 -1.3197
14025TIP3   OH242031   5.438   3.933   0.168 -0.0837 -0.2383  0.3291
14025TIP3    H142032   5.366   3.988   0.138  0.6972  0.2258 -0.7507
14025TIP3    H242033   5.488   3.913   0.089  0.2913 -1.5695  0.8727
14026TIP3   OH242034   3.486   6.614   2.591  0.3596  0.1554 -0.3073
14026TIP3    H142035   3.534   6.535   2.617 -0.2986 -0.7470 -1.7021
14026TIP3    H242036   3.397   6.599   2.621  0.2374  0.3854 -0.5487
14027TIP3   OH242037   7.356   0.118   1.020 -0.2411 -0.2642  0.5036
14027TIP3    H142038   7.429   0.139   1.078 -1.0075  1.7457  0.8224
14027TIP3    H242039   7.322   0.035   1.054  1.2214 -0.7021  0.9868
14028TIP3   OH242040   3.465   1.874   5.548  0.2639 -0.0495  0.2576
14028TIP3    H142041   3.472   1.963   5.515  0.8430  0.0735  0.6968
14028TIP3    H242042   3.378   1.870   5.589  0.2094  0.2883  0.1746
14029TIP3   OH242043   3.922   3.777   3.653 -0.2378  0.2790 -0.1447
14029TIP3    H142044   4.013   3.767   3.682 -0.1872  0.3316 -0.2829
14029TIP3    H242045   3.915   3.869   3.626 -0.5047  0.4346  0.4528
14030TIP3   OH242046   6.797   7.674   1.757  0.4046 -0.2927 -0.5016
14030TIP3    H142047   6.838   7.594   1.723 -0.3220 -0.9713  0.1775
14030TIP3    H242048   6.766   7.720   1.679 -0.4615 -1.4020 -0.8367
14031TIP3   OH242049   6.133   2.359   2.436 -0.4051 -0.0989 -0.2534
14031TIP3    H142050   6.094   2.378   2.350  3.2773  0.8199 -1.9461
14031TIP3    H242051   6.189   2.434   2.454 -0.7506 -0.4486  2.8694
14032TIP3   OH242052   1.797   4.465   1.903 -0.0093  0.1765  0.1820
14032TIP3    H142053   1.822   4.471   1.996 -0.1125  0.8631  0.1678
14032TIP3    H242054   1.875   4.493   1.855  0.2720 -0.8251  0.0299
14033TIP3   OH242055   7.160   1.921   5.530  0.1928  0.3186  0.0484
14033TIP3    H142056   7.218   1.856   5.492  0.1370 -0.0257  0.5470
14033TIP3    H242057   7.217   1.974   5.586  0.2716  0.8137 -0.4838
14034TIP3   OH242058   0.284   5.830   6.394 -0.2000  0.2149  0.4286
14034TIP3    H142059   0.356   5.802   6.450  0.5382  2.8143  0.9403
14034TIP3    H242060   0.314   5.814   6.305  0.2494 -0.3563  0.6763
14035TIP3   OH242061   3.324   1.667   5.166  0.6342 -0.1854 -0.0704
14035TIP3    H142062   3.330   1.762   5.161 -1.5573  0.0324  0.2373
14035TIP3    H242063   3.278   1.651   5.249  0.1696 -1.4410 -0.5435
14036TIP3   OH242064   6.908   7.468   2.942 -0.3125  0.1060  0.1061
14036TIP3    H142065   6.891   7.374   2.952  0.4562 -0.4687 -3.0036
14036TIP3    H242066   6.833   7.501   2.892 -0.3320  1.0877  0.7419
14037TIP3   OH242067   5.177   1.833   3.483  0.0965 -0.1020  0.5000
14037TIP3    H142068   5.268   1.827   3.455 -0.1177 -1.5585  0.0710
14037TIP3    H242069   5.133   1.879   3.411 -0.1275 -2.3487 -0.8685
14038TIP3   OH242070   2.570   0.147   2.238 -0.4855 -0.0965  0.4782
14038TIP3    H142071   2.609   0.203   2.171 -1.1501 -2.2635 -1.8639
14038TIP3    H242072   2.646   0.110   2.285  0.0863  0.0201 -0.3342
14039TIP3   OH242073   7.710   1.325   0.476  0.0674 -0.0596 -0.1207
14039TIP3    H142074   7.635   1.317   0.416  0.4248  0.9909 -0.7483
14039TIP3    H242075   7.673   1.366   0.554  0.3014  2.5362 -1.2433
14040TIP3   OH242076   0.314   2.550   6.566 -0.5539  0.4852  0.0085
14040TIP3    H142077   0.361   2.557   6.483 -1.8987 -0.9762 -0.9294
14040TIP3    H242078   0.294   2.457   6.574 -0.5461  0.6249  1.9409
14041TIP3   OH242079   1.486   3.793   5.858 -0.2574  0.0874  0.0949
14041TIP3    H142080   1.489   3.888   5.867 -1.6458  0.1408  0.3398
14041TIP3    H242081   1.553   3.772   5.794 -0.5965  1.3440 -0.7100
14042TIP3   OH242082   0.489   2.911   5.890  0.2615  0.1237  0.7265
14042TIP3    H142083   0.578   2.947   5.884 -0.2511  1.1586 -1.3032
14042TIP3    H242084   0.471   2.876   5.803 -1.2404 -0.2854  1.1723
14043TIP3   OH242085   8.206   7.139   4.942 -1.1524 -0.3580  0.1136
14043TIP3    H142086   8.196   7.109   5.033 -0.3284  0.6913  0.5740
14043TIP3    H242087   8.125   7.110   4.899 -1.6814 -0.6528  1.2440
14044TIP3   OH242088   4.107   1.931   6.716  0.3992  1.0454  0.4612
14044TIP3    H142089   4.158   1.879   6.778  1.3920 -0.6361 -1.6290
14044TIP3    H242090   4.171   1.989   6.674  0.0029  1.2444  0.1172
14045TIP3   OH242091   6.435   6.503   1.323  1.0593 -0.0951  0.1122
14045TIP3    H142092   6.523   6.535   1.306  0.6862  1.1053  0.3451
14045TIP3    H242093   6.381   6.583   1.329  0.2279 -0.7316  1.4852
14046TIP3   OH242094   1.323   7.158   6.309  0.0686  0.1468  0.0698
14046TIP3    H142095   1.250   7.189   6.254  0.6905  0.4472 -0.6075
14046TIP3    H242096   1.383   7.116   6.247  0.0619 -0.8735  0.7440
14047TIP3   OH242097   6.525   7.183   4.642 -0.4982 -0.1963 -0.7916
14047TIP3    H142098   6.609   7.140   4.623 -1.0014 -1.1913 -0.7788
14047TIP3    H242099   6.464   7.112   4.658 -1.5783  0.4956 -1.7059
14048TIP3   OH242100   6.132   7.780   1.809 -0.5301  0.2025 -0.1587
14048TIP3    H142101   6.140   7.849   1.875 -2.8445  0.3260  0.0807
14048TIP3    H242102   6.207   7.722   1.827  0.5498  1.7591  0.6627
14049TIP3   OH242103   5.212   1.420   3.461 -0.9427  0.3891  0.0225
14049TIP3    H142104   5.267   1.435   3.384 -1.5913 -1.5059 -0.8647
14049TIP3    H242105   5.176   1.332   3.448 -1.5464  0.2703  2.2138
14050TIP3   OH242106   1.493   4.229   3.806  0.2016  0.2808  0.4346
14050TIP3    H142107   1.428   4.183   3.753  1.9625 -1.6454 -0.1968
14050TIP3    H242108   1.538   4.160   3.854  1.2397  1.6328  1.4903
14051TIP3   OH242109   7.201   4.379   3.466  0.0455 -0.7952  0.0273
14051TIP3    H142110   7.190   4.426   3.383 -1.3156 -0.9343  0.1052
14051TIP3    H242111   7.137   4.420   3.525  0.5975 -1.0794  0.8402
14052TIP3   OH242112   0.655   4.844   4.818  0.4199  0.4159  0.3240
14052TIP3    H142113   0.720   4.857   4.887  1.2518  0.4947 -0.4590
14052TIP3    H242114   0.598   4.921   4.824  0.8575  0.7278  0.5252
14053TIP3   OH242115   1.486   6.950   0.419 -0.2057 -0.1249 -0.0228
14053TIP3    H142116   1.511   6.995   0.500 -2.0686  0.2440  0.3754
14053TIP3    H242117   1.436   6.874   0.448  0.5733 -0.9692 -0.8054
14054TIP3   OH242118   6.317   0.313   3.819  0.2698 -0.1498  0.5819
14054TIP3    H142119   6.241   0.336   3.765  0.6336  0.2616  0.2373
14054TIP3    H242120   6.380   0.277   3.757  0.7237  0.4022  0.7229
14055TIP3   OH242121   3.273   4.135   2.275  0.1069  0.3547  1.0566
14055TIP3    H142122   3.360   4.104   2.249 -0.9386 -1.4484 -0.5439
14055TIP3    H242123   3.266   4.222   2.236  0.7118 -0.0197  0.0852
14056TIP3   OH242124   2.403   0.010   5.756  0.1414 -0.3137 -0.1742
14056TIP3    H142125   2.366   0.066   5.688  1.1345  0.7107  0.0832
14056TIP3    H242126   2.489  -0.014   5.722  0.7511  0.4183  0.8021
14057TIP3   OH242127   6.702   4.474   3.183 -0.6066  0.1118  0.1125
14057TIP3    H142128   6.640   4.428   3.126 -2.7928  2.2280  0.5946
14057TIP3    H242129   6.733   4.547   3.129  0.0179  0.1436  0.5121
14058TIP3   OH242130   4.527   5.904   4.466 -0.1526 -0.0426  0.3045
14058TIP3    H142131   4.505   5.897   4.559 -1.5439 -0.3644 -0.0179
14058TIP3    H242132   4.446   5.935   4.425  1.4522  3.9251 -0.3225
14059TIP3   OH242133   0.758   5.992   5.182  0.8873 -0.2543 -0.3603
14059TIP3    H142134   0.846   5.982   5.144  0.9948 -0.0901 -0.1540
14059TIP3    H242135   0.707   5.922   5.141  0.6808  0.6746 -1.7717
14060TIP3   OH242136   6.818   3.091   4.187  0.2516  0.0216 -0.4658
14060TIP3    H142137   6.806   3.100   4.092  0.6272 -0.8237 -0.6014
14060TIP3    H242138   6.894   3.146   4.206 -1.4647  2.4985 -0.1705
14061TIP3   OH242139   1.460   3.466   5.600 -0.2245 -0.3895  0.1439
14061TIP3    H142140   1.516   3.509   5.535  2.2607 -1.6793  1.2707
14061TIP3    H242141   1.379   3.517   5.599  0.0648  0.2505 -3.1870
14062TIP3   OH242142   0.005   5.039   3.759  0.2964  0.0791  0.5609
14062TIP3    H142143   0.054   5.019   3.839  0.7594 -2.8788 -0.3519
14062TIP3    H242144   0.071   5.048   3.691 -0.2614 -2.1142 -0.3339
14063TIP3   OH242145   8.195   4.892   3.531  0.3003  0.2172  0.2382
14063TIP3    H142146   8.212   4.799   3.546 -1.1480 -0.0655  0.3141
14063TIP3    H242147   8.212   4.934   3.616  0.6160 -0.0291  0.2972
14064TIP3   OH242148   6.258   2.101   0.188  0.2177  0.1508 -0.0130
14064TIP3    H142149   6.204   2.177   0.211  0.2811  0.2631 -0.2314
14064TIP3    H242150   6.330   2.103   0.250  0.7955  0.8857 -0.6848
14065TIP3   OH242151   6.965   3.479   6.554  0.3091 -0.3371 -0.8654
14065TIP3    H142152   6.924   3.448   6.473  0.5369 -0.4728 -0.9299
14065TIP3    H242153   6.902   3.456   6.623  0.1170 -0.2252 -1.0039
14066TIP3   OH242154   3.515   3.386   1.536  0.2430  0.4554 -0.2676
14066TIP3    H142155   3.604   3.395   1.501  0.9543 -0.0775  1.3305
14066TIP3    H242156   3.522   3.317   1.602 -1.8353 -1.1294 -1.5952
14067TIP3   OH242157   6.165   0.778   1.323  0.1029  0.8648  0.0276
14067TIP3    H142158   6.082   0.745   1.289 -0.6932  1.5525  1.2215
14067TIP3    H242159   6.231   0.721   1.285 -0.6852  1.5676 -2.6422
14068TIP3   OH242160   7.375   5.044   0.392 -0.3140 -0.6850  0.1174
14068TIP3    H142161   7.290   5.066   0.431  0.3477 -1.5220  2.1937
14068TIP3    H242162   7.438   5.092   0.446  0.5534  0.1280 -1.5662
14069TIP3   OH242163   3.220   3.276   2.528 -0.2728  0.2992  0.3858
14069TIP3    H142164   3.221   3.358   2.577 -1.3332 -0.6687  2.1299
14069TIP3    H242165   3.260   3.212   2.587  0.6842 -0.4497 -0.9943
14070TIP3   OH242166   2.618   1.833   4.646  0.3798  0.3862  0.8889
14070TIP3    H142167   2.542   1.892   4.647  0.5704  0.6448  0.3278
14070TIP3    H242168   2.597   1.767   4.712 -0.5523  0.1853  0.4146
14071TIP3   OH242169   2.254   4.710   3.252  0.2836 -0.2883  0.1966
14071TIP3    H142170   2.209   4.777   3.304  0.7126 -0.2068  0.4671
14071TIP3    H242171   2.314   4.759   3.197 -0.5941 -0.3252 -0.8295
14072TIP3   OH242172   4.151   6.840   5.192  0.3561  0.1307 -0.1222
14072TIP3    H142173   4.211   6.914   5.200  0.9697 -0.5511  2.4385
14072TIP3    H242174   4.144   6.804   5.280 -2.6732 -0.7665 -0.5870
14073TIP3   OH242175   1.465   2.377   1.764  0.4395  0.0528  0.4391
14073TIP3    H142176   1.370   2.379   1.776  0.3033 -1.8269 -0.0060
14073TIP3    H242177   1.491   2.468   1.767 -1.4143  0.6352  0.3512
14074TIP3   OH242178   7.578   6.828   6.131  0.4178  0.3496  0.2827
14074TIP3    H142179   7.595   6.880   6.053  2.0567 -1.8292 -0.9222
14074TIP3    H242180   7.652   6.846   6.189  0.1374  0.6065  0.5612
14075TIP3   OH242181   7.794   1.799   1.820  0.1959  0.4128 -0.7342
14075TIP3    H142182   7.878   1.842   1.804 -0.3708  1.3840 -1.1227
14075TIP3    H242183   7.746   1.859   1.876  0.4564 -0.9811  1.0860
14076TIP3   OH242184   2.820   7.557   3.239 -0.1804 -0.2798 -0.5412
14076TIP3    H142185   2.825   7.463   3.259  2.3649 -0.1982 -0.5133
14076TIP3    H242186   2.726   7.575   3.233 -0.8637 -2.2316  2.1952
14077TIP3   OH242187   4.355   6.429   1.350 -0.1862  0.0062 -0.0632
14077TIP3    H142188   4.409   6.424   1.429 -0.8502 -0.6733  0.3578
14077TIP3    H242189   4.274   6.385   1.374 -0.3779 -0.2493 -1.1463
14078TIP3   OH242190   5.710   1.488   4.254  0.0771  0.4202 -0.4067
14078TIP3    H142191   5.673   1.435   4.325  1.5037 -0.9799 -0.6426
14078TIP3    H242192   5.675   1.575   4.269 -0.8736 -0.1748  1.1267
14079TIP3   OH242193   4.768   1.083   2.993 -0.0857  0.0409 -0.6572
14079TIP3    H142194   4.674   1.068   2.980 -0.0758 -0.2029 -0.4610
14079TIP3    H242195   4.793   1.021   3.062  0.0919  0.5321 -0.2727
14080TIP3   OH242196   7.809   4.026   3.838 -0.0414 -0.1879 -0.2474
14080TIP3    H142197   7.715   4.042   3.834 -0.5062 -2.2427  0.8328
14080TIP3    H242198   7.846   4.076   3.766 -1.6800  2.3655  0.5680
14081TIP3   OH242199   4.621   1.572   6.457  0.3724 -0.2576 -0.5991
14081TIP3    H142200   4.616   1.482   6.492 -1.2797  0.0538  0.0909
14081TIP3    H242201   4.587   1.565   6.368  1.2485 -0.4707 -0.9285
14082TIP3   OH242202   1.375   2.896   0.537  0.1940  0.0343 -0.5945
14082TIP3    H142203   1.353   2.975   0.587  0.9303 -0.0850 -0.0646
14082TIP3    H242204   1.359   2.824   0.598  2.3012 -0.0445 -0.0404
14083TIP3   OH242205   3.359   5.201   3.625 -0.3327  0.2523 -0.2515
14083TIP3    H142206   3.367   5.138   3.554 -1.2805 -1.6301  1.2221
14083TIP3    H242207   3.265   5.211   3.639 -0.1821  1.2411  0.2133
14084TIP3   OH242208   5.857   2.038   5.974  0.0042 -0.3494 -0.3472
14084TIP3    H142209   5.822   2.017   5.888  2.5145  1.9804 -2.1257
14084TIP3    H242210   5.945   2.001   5.975 -0.9354 -2.9398  2.5385
14085TIP3   OH242211   2.773   5.808   4.308  0.6896  0.0805  0.0597
14085TIP3    H142212   2.792   5.887   4.257  1.1752 -0.7620 -1.1112
14085TIP3    H242213   2.682   5.819   4.336 -0.1265 -0.1371 -2.3435
14086TIP3   OH242214   6.573   3.289   6.218  0.3680 -0.1479 -0.2718
14086TIP3    H142215   6.576   3.383   6.237 -1.0777  0.1499 -1.3046
14086TIP3    H242216   6.549   3.284   6.125  1.0701 -1.5431 -0.4016
14087TIP3   OH242217   8.207   1.165   5.454 -0.4233  0.0715  0.0597
14087TIP3    H142218   8.268   1.125   5.516 -1.1640 -1.0294  0.1028
14087TIP3    H242219   8.251   1.158   5.370 -0.1762 -0.0260  0.1948
14088TIP3   OH242220   6.018   1.282   5.255 -0.4394  0.6945 -0.0752
14088TIP3    H142221   6.049   1.200   5.217  1.4143  1.5049 -0.4265
14088TIP3    H242222   6.008   1.341   5.180  2.5304  2.0791  0.4478
14089TIP3   OH242223   1.976   4.124   0.342  0.3843 -0.0184  0.0726
14089TIP3    H142224   1.998   4.077   0.423  0.4071  0.3979  0.3146
14089TIP3    H242225   1.904   4.182   0.368  1.2422  1.0686  0.1350
14090TIP3   OH242226   5.854   7.013   1.331  0.3920 -0.5622 -0.5459
14090TIP3    H142227   5.935   6.965   1.317  1.3249  0.7030  0.3491
14090TIP3    H242228   5.847   7.072   1.256  1.4012  0.7855  0.3834
14091TIP3   OH242229   4.384   3.478   5.269 -0.3755  0.1890  0.2032
14091TIP3    H142230   4.308   3.421   5.269 -0.1050 -0.1831 -0.3403
14091TIP3    H242231   4.367   3.541   5.339 -0.6414 -0.6063  0.8741
14092TIP3   OH242232   1.610   4.825   1.343 -0.3607 -0.1001  0.1704
14092TIP3    H142233   1.552   4.751   1.328  0.0729 -0.6960  1.3347
14092TIP3    H242234   1.563   4.900   1.305 -1.4059 -0.7424  0.1626
14093TIP3   OH242235   8.260   2.740   0.444  0.5826  0.0853  0.1439
14093TIP3    H142236   8.200   2.732   0.369  2.5006 -0.1219 -1.4512
14093TIP3    H242237   8.202   2.751   0.520 -1.4476  0.2887 -1.3447
14094TIP3   OH242238   2.564   7.403   1.340  0.0589 -0.0927 -0.3767
14094TIP3    H142239   2.496   7.429   1.278  0.0572 -1.2454 -0.9004
14094TIP3    H242240   2.609   7.330   1.297  2.1239  1.1050 -0.3613
14095TIP3   OH242241   7.044   7.770   1.876  0.7588  0.2760 -0.2469
14095TIP3    H142242   6.990   7.724   1.811  0.5650  0.6758 -0.3737
14095TIP3    H242243   7.028   7.863   1.859  1.4103  0.3992 -0.2142
14096TIP3   OH242244   6.945   5.819   5.072 -0.2775 -0.2830  0.0137
14096TIP3    H142245   6.921   5.847   5.161 -0.0977 -0.0787 -0.0010
14096TIP3    H242246   7.039   5.803   5.077 -0.4683 -1.4587  0.1727
14097TIP3   OH242247   6.439   2.907   5.079  0.9713 -0.5117  0.1391
14097TIP3    H142248   6.463   2.992   5.043 -2.1668  0.6992  0.5994
14097TIP3    H242249   6.465   2.844   5.011  0.9216  1.0592 -1.4055
14098TIP3   OH242250   1.136   6.810   4.286 -0.1736 -0.2517  0.4291
14098TIP3    H142251   1.186   6.891   4.295  0.4988 -0.7817  1.6609
14098TIP3    H242252   1.079   6.808   4.363 -2.5861  0.6298 -1.2333
14099TIP3   OH242253   5.370   3.958   1.878  0.3692 -0.0421  0.3388
14099TIP3    H142254   5.389   4.051   1.861 -1.7797  0.5256  0.7075
14099TIP3    H242255   5.450   3.912   1.853  0.6542  1.6584 -2.3003
14100TIP3   OH242256   1.170   4.768   3.947  0.2235  0.4153  0.1606
14100TIP3    H142257   1.234   4.838   3.963 -0.3051  1.3900 -1.6626
14100TIP3    H242258   1.222   4.688   3.947  0.8648  0.7711  2.1950
14101TIP3   OH242259   3.018   1.522   3.264  0.2770  0.2823 -0.1946
14101TIP3    H142260   3.087   1.457   3.253  1.0590  1.1380 -0.4554
14101TIP3    H242261   2.975   1.498   3.346  1.8118  0.5681  0.7354
14102TIP3   OH242262   5.437   5.416   2.610 -0.3141 -0.1228 -0.0706
14102TIP3    H142263   5.429   5.367   2.691  2.0113 -0.4124  0.0479
14102TIP3    H242264   5.458   5.350   2.544 -2.8202  0.0088 -1.1316
14103TIP3   OH242265   1.417   3.404   4.580  0.2484 -0.7287 -0.5536
14103TIP3    H142266   1.438   3.314   4.605  0.2020 -1.1260 -1.8579
14103TIP3    H242267   1.473   3.458   4.635 -1.2928 -1.4157  1.8706
14104TIP3   OH242268   6.314   4.478   3.213  0.1965 -0.3292 -0.0259
14104TIP3    H142269   6.382   4.412   3.226  0.8868  0.2934 -0.3554
14104TIP3    H242270   6.243   4.432   3.170 -0.5690 -1.5370  2.3606
14105TIP3   OH242271   1.341   7.200   0.547  0.1346  0.4218 -0.1087
14105TIP3    H142272   1.289   7.134   0.592  0.9680 -0.4787 -0.4112
14105TIP3    H242273   1.320   7.187   0.454 -0.0514  0.8972 -0.1312
14106TIP3   OH242274   3.360   1.511   1.442  0.8312 -1.0861 -0.1978
14106TIP3    H142275   3.454   1.492   1.437  2.1687  3.3152  2.4977
14106TIP3    H242276   3.340   1.554   1.358  0.6774 -3.4065 -1.4346
14107TIP3   OH242277   6.331   7.267   3.543  0.3198 -0.1294 -0.3861
14107TIP3    H142278   6.306   7.183   3.582  0.1853  0.7491  1.5091
14107TIP3    H242279   6.409   7.294   3.591 -0.4362  1.4704 -0.0042
14108TIP3   OH242280   2.064  -0.025   5.331  0.2411 -0.2688  0.6483
14108TIP3    H142281   2.016   0.045   5.374 -2.0827 -0.1167 -1.9088
14108TIP3    H242282   2.100   0.016   5.252 -0.6851 -1.7783 -0.6098
14109TIP3   OH242283   4.580   0.072   2.877  0.5571  0.1233  0.7437
14109TIP3    H142284   4.665   0.080   2.834  0.8762  1.7226  1.6131
14109TIP3    H242285   4.520   0.123   2.823  0.4846  0.2678  0.9564
14110TIP3   OH242286   4.495   3.565   6.065  0.6713  0.0230 -0.2467
14110TIP3    H142287   4.551   3.541   6.139  1.0938  0.4468 -0.4205
14110TIP3    H242288   4.483   3.484   6.016  0.7383 -0.1708  0.0529
14111TIP3   OH242289   2.124   7.448   4.276 -0.3909  0.1272  0.5654
14111TIP3    H142290   2.086   7.529   4.308  0.9789  0.5229  1.2530
14111TIP3    H242291   2.184   7.420   4.346 -0.6817 -1.3666  0.2577
14112TIP3   OH242292   2.275   5.125   1.738  0.4186  0.2830  0.0234
14112TIP3    H142293   2.199   5.092   1.691 -0.1061  0.2084  0.9095
14112TIP3    H242294   2.249   5.125   1.830  0.6969  2.3650  0.1535
14113TIP3   OH242295   7.090   3.124   3.856  0.0573 -0.0440 -0.1008
14113TIP3    H142296   7.158   3.058   3.847 -0.0724 -0.1830 -0.0494
14113TIP3    H242297   7.015   3.089   3.808  0.3938  0.6340 -1.1710
14114TIP3   OH242298   7.183   0.658   0.225 -0.0232  0.1522  0.2191
14114TIP3    H142299   7.194   0.738   0.277 -0.1762  0.4618 -0.2159
14114TIP3    H242300   7.126   0.684   0.153 -1.7527 -0.8372  1.1451
14115TIP3   OH242301   5.324   4.630   1.855 -0.3210  0.2366 -0.0475
14115TIP3    H142302   5.343   4.538   1.838  0.6013  0.2410  0.8564
14115TIP3    H242303   5.394   4.658   1.915 -0.7760  1.4324 -0.0577
14116TIP3   OH242304   2.241   3.590   6.729 -0.3077  0.2060  0.3542
14116TIP3    H142305   2.254   3.668   6.675  3.0118 -1.3703 -1.4362
14116TIP3    H242306   2.316   3.590   6.788  0.1227 -1.8779 -0.1124
14117TIP3   OH242307   8.242   7.613   0.775 -0.4819 -0.0829 -0.1842
14117TIP3    H142308   8.237   7.708   0.765 -2.2220 -0.0453  0.5662
14117TIP3    H242309   8.336   7.593   0.778 -0.0775  1.7891  1.1612
14118TIP3   OH242310   7.542   3.339   2.599 -0.1818 -0.0217  0.1216
14118TIP3    H142311   7.547   3.340   2.504 -0.2893 -1.3612  0.0799
14118TIP3    H242312   7.629   3.311   2.628 -0.2740 -0.0223  0.4052
14119TIP3   OH242313   5.271   2.011   5.975 -0.0665  0.0859  0.1023
14119TIP3    H142314   5.237   1.929   6.009  0.5152 -0.4089 -0.4708
14119TIP3    H242315   5.224   2.025   5.893  0.7522 -0.3556 -0.4524
14120TIP3   OH242316   7.475   3.853   2.541  0.0994 -0.8177 -0.2292
14120TIP3    H142317   7.419   3.846   2.618  1.7513 -1.6288  0.9581
14120TIP3    H242318   7.555   3.807   2.565  1.0406 -0.2737 -2.1010
14121TIP3   OH242319   2.662   7.289   1.814  0.4468 -0.0135 -0.3493
14121TIP3    H142320   2.643   7.196   1.821  0.7398 -0.0578 -0.1337
14121TIP3    H242321   2.707   7.299   1.730  0.7207 -0.1187 -0.2169
14122TIP3   OH242322   1.597   2.429   2.951  0.0851  0.0247 -0.0641
14122TIP3    H142323   1.633   2.364   3.011 -5.2221 -1.9063  1.6370
14122TIP3    H242324   1.580   2.506   3.004 -1.2001 -0.3369  0.0985
14123TIP3   OH242325   0.759   1.058   5.112  0.2626  0.0898  1.0987
14123TIP3    H142326   0.771   1.035   5.204  1.9021 -1.3862  0.5857
14123TIP3    H242327   0.717   0.981   5.073 -3.0958  1.7675  1.0679
14124TIP3   OH242328   1.557   4.116   4.488 -0.4681 -0.1695 -0.0993
14124TIP3    H142329   1.617   4.185   4.517  1.3410 -1.1639 -1.3238
14124TIP3    H242330   1.486   4.163   4.444  0.5331  0.9626 -0.5595
14125TIP3   OH242331   1.655   5.016   5.442 -0.2774  0.0580 -0.1983
14125TIP3    H142332   1.688   5.106   5.437 -1.1380  0.3279 -2.3598
14125TIP3    H242333   1.592   5.017   5.513 -0.9155  1.4193 -0.7422
14126TIP3   OH242334   4.338   1.376   0.007 -0.1839 -0.0623  0.3248
14126TIP3    H142335   4.274   1.371   0.078  1.4108  0.4037  1.8549
14126TIP3    H242336   4.413   1.326   0.038  0.8912  0.8765 -0.6569
14127TIP3   OH242337   7.290   2.043   2.761  0.7253 -0.0038  0.1864
14127TIP3    H142338   7.246   2.051   2.846  1.6302 -0.6453  0.7226
14127TIP3    H242339   7.369   1.993   2.779 -0.0768 -1.9637 -1.3881
14128TIP3   OH242340   0.619   2.383   5.486  0.0652 -0.0355  0.7722
14128TIP3    H142341   0.572   2.425   5.558  0.2829  0.5622  0.5716
14128TIP3    H242342   0.601   2.439   5.410  0.7525 -0.0368  0.6065
14129TIP3   OH242343   4.119   5.870   5.990 -0.2677  0.1901 -0.1835
14129TIP3    H142344   4.095   5.915   5.909 -2.9029 -0.1969  0.2812
14129TIP3    H242345   4.076   5.784   5.982  2.5918 -1.3639  0.0148
14130TIP3   OH242346   7.767   1.088   5.593 -0.3635  0.4203  0.2580
14130TIP3    H142347   7.843   1.062   5.541 -0.7432  0.2800 -0.2348
14130TIP3    H242348   7.692   1.076   5.534 -0.8756 -0.3704  1.0565
14131TIP3   OH242349   6.248   6.796   1.472 -0.1274  0.6005 -0.6272
14131TIP3    H142350   6.341   6.814   1.481 -0.1936  0.5981  0.2003
14131TIP3    H242351   6.206   6.855   1.535 -0.6723  0.4756 -0.8636
14132TIP3   OH242352   2.233   0.900   5.368  0.4469 -0.4330 -0.0544
14132TIP3    H142353   2.256   0.857   5.450  1.6925 -0.5367 -0.4461
14132TIP3    H242354   2.150   0.859   5.342  0.8345 -1.5107  0.3525
14133TIP3   OH242355   3.868   4.622   3.114  0.5268 -0.3289 -0.6653
14133TIP3    H142356   3.935   4.568   3.157 -0.4731 -0.7533  0.4154
14133TIP3    H242357   3.891   4.712   3.137 -0.4217 -0.5834  1.4814
14134TIP3   OH242358   3.376   6.183   1.645  0.0252  0.6112  0.2821
14134TIP3    H142359   3.395   6.273   1.619 -2.4387  1.5922  1.4694
14134TIP3    H242360   3.281   6.175   1.635  0.4326 -2.8403 -2.4819
14135TIP3   OH242361   4.656   0.377   1.343  0.0872 -0.0242  0.0817
14135TIP3    H142362   4.696   0.349   1.260  0.1365 -0.1550  0.1492
14135TIP3    H242363   4.687   0.467   1.356 -0.3680  0.1987 -0.3250
14136TIP3   OH242364   5.722   1.145   5.875  0.1617 -0.1837  0.0163
14136TIP3    H142365   5.707   1.167   5.967  0.7528 -0.6482  0.2299
14136TIP3    H242366   5.680   1.060   5.863  3.3006 -2.0126  0.8926
14137TIP3   OH242367   1.525   4.323   2.196 -0.6610 -0.7225 -0.2769
14137TIP3    H142368   1.532   4.381   2.120 -0.2868 -0.7693 -0.2814
14137TIP3    H242369   1.570   4.243   2.168 -0.8048 -0.8567 -0.1202
14138TIP3   OH242370   1.390   6.045   3.900 -0.4384  0.4410 -0.3647
14138TIP3    H142371   1.404   6.134   3.866 -0.3427  1.8015  2.8892
14138TIP3    H242372   1.473   6.022   3.940 -1.1742 -0.1274  0.8608
14139TIP3   OH242373   2.119   0.397   0.439 -0.3818  0.2623  0.9099
14139TIP3    H142374   2.131   0.480   0.485  0.0886  1.3316 -1.0433
14139TIP3    H242375   2.199   0.348   0.458  0.4650  1.2757  0.0929
14140TIP3   OH242376   4.380   5.357   4.795  0.2575 -0.5820  0.5222
14140TIP3    H142377   4.453   5.418   4.806  0.5690 -1.0382  1.0695
14140TIP3    H242378   4.344   5.377   4.709  0.6297  0.0777  0.5167
14141TIP3   OH242379   1.676   4.551   3.651 -0.1972 -0.1070 -0.0880
14141TIP3    H142380   1.634   4.467   3.633 -2.2548  0.7680  0.4655
14141TIP3    H242381   1.732   4.534   3.727 -0.8764 -0.8921  0.2424
14142TIP3   OH242382   3.385   4.648   2.184  0.0072  0.2230  0.4062
14142TIP3    H142383   3.403   4.695   2.266  1.6269  1.8805 -0.8069
14142TIP3    H242384   3.329   4.708   2.134  1.2954  0.5139 -0.7710
14143TIP3   OH242385   6.353   1.801   2.648 -0.5397 -0.6517  0.0264
14143TIP3    H142386   6.396   1.837   2.570  0.4100 -1.8241 -0.0092
14143TIP3    H242387   6.261   1.791   2.622 -0.5490  0.3969 -0.4147
14144TIP3   OH242388   2.978   0.064   2.122  0.1809  0.3913  0.5070
14144TIP3    H142389   2.925  -0.015   2.127  0.0511  0.3813 -0.7068
14144TIP3    H242390   3.036   0.050   2.048  0.4819  1.2447  0.5601
14145TIP3   OH242391   0.304   0.971   1.967 -0.0251 -0.0313 -0.2284
14145TIP3    H142392   0.250   0.906   2.012 -0.1399 -0.8375 -1.4529
14145TIP3    H242393   0.347   1.020   2.037  0.4071 -1.7193  0.7445
14146TIP3   OH242394   7.586   6.598   1.192  0.3582  0.1949  0.6448
14146TIP3    H142395   7.609   6.651   1.268  2.5797  1.4291 -0.7854
14146TIP3    H242396   7.497   6.626   1.169  0.0517  0.5311  2.1265
14147TIP3   OH242397   3.472   5.258   2.695 -0.5508  0.9077  0.8021
14147TIP3    H142398   3.446   5.241   2.785  1.7481 -1.1508  1.1918
14147TIP3    H242399   3.411   5.207   2.642  0.5332 -1.2746  1.5077
14148TIP3   OH242400   5.802   1.965   0.634  0.0204  0.0899 -0.0568
14148TIP3    H142401   5.861   2.038   0.615  0.1590  0.2643  0.9659
14148TIP3    H242402   5.714   2.001   0.624  0.0523  0.9003  2.0049
14149TIP3   OH242403   7.679   2.294   0.725 -0.6808  0.0474 -0.4509
14149TIP3    H142404   7.671   2.218   0.668  1.7488 -1.8908  1.5722
14149TIP3    H242405   7.607   2.287   0.787 -0.3319 -0.7549 -0.1325
14150TIP3   OH242406   6.904   1.463   0.268  0.0220  0.3253 -0.1339
14150TIP3    H142407   6.885   1.392   0.330  0.9568 -1.5426 -1.9009
14150TIP3    H242408   6.824   1.472   0.216 -0.0462  0.4982 -0.0021
14151TIP3   OH242409   1.887   3.087   2.448 -0.7184  0.4079  0.3514
14151TIP3    H142410   1.930   3.101   2.533  1.2850 -1.1780 -0.3112
14151TIP3    H242411   1.912   3.163   2.396  1.8049 -0.6405 -0.1354
14152TIP3   OH242412   1.597   3.663   1.009 -0.8438  0.0064 -0.0012
14152TIP3    H142413   1.655   3.716   1.063 -0.7489 -0.9710  0.8730
14152TIP3    H242414   1.518   3.717   0.998  0.2776  1.4638 -1.4198
14153TIP3   OH242415   4.944   5.428   2.122  0.1224 -0.1043 -0.3729
14153TIP3    H142416   4.948   5.337   2.095 -1.0038 -0.2018 -0.2407
14153TIP3    H242417   5.023   5.440   2.176  0.1943 -1.0416 -0.2492
14154TIP3   OH242418   3.727   3.032   1.168  0.1022 -0.7190  0.1405
14154TIP3    H142419   3.799   3.014   1.228  0.6763  1.1077  0.0661
14154TIP3    H242420   3.768   3.041   1.082 -0.3635 -0.7684 -0.0940
14155TIP3   OH242421   6.627   5.166   2.731 -0.3469  0.0035  0.1607
14155TIP3    H142422   6.632   5.225   2.806 -0.4558  0.3835 -0.1263
14155TIP3    H242423   6.713   5.174   2.689 -1.5799  2.9921 -2.1238
14156TIP3   OH242424   0.977   0.822   0.062  0.2354 -0.3683  0.1877
14156TIP3    H142425   0.973   0.748   0.123 -0.5469  1.2301  2.1971
14156TIP3    H242426   0.887   0.853   0.056  0.6250  0.7284 -0.1844
14157TIP3   OH242427   5.601   7.318   1.509  0.1228 -0.1621 -0.2283
14157TIP3    H142428   5.661   7.295   1.580 -0.7932  0.0187  0.6220
14157TIP3    H242429   5.635   7.400   1.473  0.8553 -0.4995 -0.3150
14158TIP3   OH242430   7.756   3.483   3.358  0.1055  0.8882  0.9855
14158TIP3    H142431   7.667   3.496   3.390 -0.8149  1.7929 -1.6867
14158TIP3    H242432   7.788   3.572   3.340  1.5723  0.5772  1.8628
14159TIP3   OH242433   2.943   6.123   5.802  0.0019 -0.0110  0.2430
14159TIP3    H142434   2.949   6.031   5.827  1.8878 -0.3583 -1.2327
14159TIP3    H242435   3.004   6.168   5.860 -1.6478  0.5314  1.6387
14160TIP3   OH242436   0.735   5.323   6.178 -0.3105  0.4073  0.4892
14160TIP3    H142437   0.705   5.299   6.090  1.3708 -2.1643  0.4919
14160TIP3    H242438   0.767   5.412   6.168 -1.5543  0.7256 -1.1262
14161TIP3   OH242439   4.482   6.077   5.790 -0.2972 -0.1017  0.4904
14161TIP3    H142440   4.441   6.015   5.729 -1.0589 -0.3280  1.2114
14161TIP3    H242441   4.572   6.046   5.799 -0.5662 -0.8863  0.5540
14162TIP3   OH242442   3.357   7.178   3.878  0.2590 -0.0793  0.0608
14162TIP3    H142443   3.369   7.253   3.936 -0.7545  1.4212 -1.5541
14162TIP3    H242444   3.342   7.217   3.792  0.4488 -2.1790 -0.9893
14163TIP3   OH242445   7.813   3.781   4.944 -0.4069 -0.1369  0.2235
14163TIP3    H142446   7.805   3.825   5.028 -0.3326 -0.5753  0.4626
14163TIP3    H242447   7.894   3.816   4.906 -1.2116  1.1871 -0.3465
14164TIP3   OH242448   5.295   3.272   3.953 -0.2746  0.5837  0.0068
14164TIP3    H142449   5.385   3.305   3.950  0.0302 -0.3297 -1.1211
14164TIP3    H242450   5.291   3.222   4.035  0.1490  0.8655  0.2056
14165TIP3   OH242451   1.613   7.057   4.067  0.0625 -0.3042 -0.3998
14165TIP3    H142452   1.706   7.047   4.088  0.3912  0.4829 -1.4124
14165TIP3    H242453   1.608   7.137   4.014 -1.2770 -0.0068  0.1317
14166TIP3   OH242454   0.950   1.797   1.790  0.1218 -0.1645  0.0128
14166TIP3    H142455   0.962   1.853   1.867  0.1442  0.0817 -0.1678
14166TIP3    H242456   0.858   1.806   1.768  0.4296  0.9852 -0.9080
14167TIP3   OH242457   5.811   2.566   6.308 -0.5411 -0.0061  0.2568
14167TIP3    H142458   5.838   2.653   6.279  0.8556 -0.2295  0.8426
14167TIP3    H242459   5.823   2.567   6.403 -1.5173 -0.5132  0.4090
14168TIP3   OH242460   4.203   4.062   4.874  0.0415 -0.0218 -0.5913
14168TIP3    H142461   4.277   4.121   4.869  0.1349 -0.1952 -1.3540
14168TIP3    H242462   4.177   4.063   4.966  2.1012 -1.3244  0.0687
14169TIP3   OH242463   7.577   7.770   3.709  0.3573 -0.1725  0.3800
14169TIP3    H142464   7.553   7.833   3.641  0.0227 -0.2605  0.4163
14169TIP3    H242465   7.502   7.711   3.715 -0.3048  0.7679  1.9348
14170TIP3   OH242466   2.756   7.732   1.975  0.5674  0.1321 -0.0759
14170TIP3    H142467   2.719   7.676   1.908 -1.3607  2.5417 -1.2021
14170TIP3    H242468   2.849   7.741   1.951  0.5770 -1.3338 -0.6723
14171TIP3   OH242469   7.076   0.575   1.561 -0.2627 -0.2297 -0.1890
14171TIP3    H142470   7.068   0.553   1.654 -0.7292  2.6413  0.5603
14171TIP3    H242471   6.995   0.623   1.541  0.4946  0.5129 -1.6421
14172TIP3   OH242472   1.655   1.132   3.129  0.2268  0.0143  0.2518
14172TIP3    H142473   1.560   1.131   3.140  0.2154  0.4112  0.1969
14172TIP3    H242474   1.683   1.045   3.157 -0.4444 -1.1036 -2.2704
14173TIP3   OH242475   0.119   0.562   2.841 -0.4902 -0.2773  0.1037
14173TIP3    H142476   0.059   0.635   2.855 -0.8891 -0.9164  2.1656
14173TIP3    H242477   0.066   0.493   2.801 -0.9796 -0.5693  1.2117
14174TIP3   OH242478   2.425   4.735   6.389  0.1432 -0.2061 -0.0096
14174TIP3    H142479   2.392   4.818   6.423  0.4410 -0.4066  0.7815
14174TIP3    H242480   2.378   4.668   6.439  0.0049 -0.5250 -0.5488
14175TIP3   OH242481   4.957   0.752   0.835  0.3956 -0.1640 -0.2828
14175TIP3    H142482   4.999   0.704   0.763  0.0203 -0.0554 -0.5774
14175TIP3    H242483   4.995   0.840   0.830 -1.4564  0.6189 -1.9645
14176TIP3   OH242484   3.397   3.566   3.082 -0.0675 -0.4957 -0.4519
14176TIP3    H142485   3.404   3.652   3.124  0.6021 -0.7217 -0.0842
14176TIP3    H242486   3.425   3.504   3.149 -0.6548 -1.0177 -0.6761
14177TIP3   OH242487   6.439   2.463   6.695 -0.1645  0.3146  0.3881
14177TIP3    H142488   6.472   2.496   6.612  0.1699 -0.0117  0.3877
14177TIP3    H242489   6.506   2.489   6.759  0.4578 -0.9638  0.2797
14178TIP3   OH242490   3.710   2.124   1.016  0.1894  0.6901  0.1050
14178TIP3    H142491   3.775   2.057   1.033 -1.5189 -1.1318 -0.1474
14178TIP3    H242492   3.716   2.183   1.091 -1.4828 -2.4649  2.9810
14179TIP3   OH242493   0.416   7.406   0.833  0.3463 -0.0606  0.6188
14179TIP3    H142494   0.370   7.346   0.892 -1.9874  1.3662  0.3945
14179TIP3    H242495   0.417   7.489   0.879 -0.3674  0.7659 -0.7810
14180TIP3   OH242496   3.040   2.899   2.928 -0.4182  0.2807  0.4198
14180TIP3    H142497   3.012   2.940   3.010 -1.3940 -0.9539  0.7526
14180TIP3    H242498   3.074   2.814   2.955 -0.9502 -0.2289 -0.4565
14181TIP3   OH242499   2.764   6.034   3.875  0.1092  0.4643 -0.0955
14181TIP3    H142500   2.708   6.095   3.827 -3.1736 -2.2463 -0.1707
14181TIP3    H242501   2.702   5.979   3.924  2.7933 -2.3986  0.4286
14182TIP3   OH242502   0.460   1.525   4.627 -0.0393 -0.0081 -0.2707
14182TIP3    H142503   0.395   1.458   4.607 -0.8000  1.0803 -1.5928
14182TIP3    H242504   0.542   1.489   4.592 -0.0270 -1.0865  0.7995
14183TIP3   OH242505   0.458   7.014   2.883  0.1126 -0.5513  0.1292
14183TIP3    H142506   0.539   7.010   2.833 -0.3421  0.6556 -0.7589
14183TIP3    H242507   0.484   7.048   2.969  0.6637 -1.0869  0.1817
14184TIP3   OH242508   4.396   2.907   6.061  0.1194  0.2313  0.1303
14184TIP3    H142509   4.304   2.896   6.040  0.1857 -0.1271  0.0168
14184TIP3    H242510   4.408   2.859   6.143 -0.0004  1.0928  0.6729
14185TIP3   OH242511   0.503   4.032   1.635 -0.4042  0.2046 -0.3033
14185TIP3    H142512   0.464   4.040   1.548  1.7537  1.0025 -1.2856
14185TIP3    H242513   0.588   3.990   1.619  0.6433  1.6308  1.2058
14186TIP3   OH242514   1.363   5.162   0.068  0.3065  0.6304  0.4415
14186TIP3    H142515   1.406   5.146  -0.016  0.3090  2.3562  0.0728
14186TIP3    H242516   1.283   5.110   0.065 -0.9084  2.4248 -1.6717
14187TIP3   OH242517   1.308   7.423   1.533  0.1873  0.0036 -0.2042
14187TIP3    H142518   1.380   7.475   1.570 -0.3559  0.6535 -0.0431
14187TIP3    H242519   1.313   7.339   1.580 -0.2642  0.6902  1.1074
14188TIP3   OH242520   3.606   4.423   1.276 -0.3093  0.5359  0.0818
14188TIP3    H142521   3.511   4.436   1.279 -0.5189 -0.8764  2.6091
14188TIP3    H242522   3.641   4.483   1.342  0.3024 -0.4871  0.7123
14189TIP3   OH242523   2.141   1.718   2.402 -0.2841  0.2129  0.7872
14189TIP3    H142524   2.193   1.645   2.367  0.1495  0.4815  0.8643
14189TIP3    H242525   2.170   1.726   2.493  0.5865  1.2962  0.4292
14190TIP3   OH242526   2.902   0.902   6.282 -0.2744 -0.2404 -0.3912
14190TIP3    H142527   2.882   0.881   6.373  0.4282 -0.3508 -0.2598
14190TIP3    H242528   2.927   0.994   6.283  2.1338 -0.8439 -0.0590
14191TIP3   OH242529   4.559   1.381   0.931  0.6751  0.5723  0.5845
14191TIP3    H142530   4.515   1.298   0.951  0.4126  0.7288  0.6667
14191TIP3    H242531   4.631   1.357   0.873  0.5148  0.3028  0.4962
14192TIP3   OH242532   4.729   6.222   1.136  0.3154 -0.7961 -0.1036
14192TIP3    H142533   4.806   6.196   1.187  0.7912  0.3651 -0.2044
14192TIP3    H242534   4.762   6.284   1.071 -0.3784 -1.8469 -1.5058
14193TIP3   OH242535   3.070   4.405   5.927  0.1593  0.3266  0.3388
14193TIP3    H142536   3.041   4.413   5.836  1.3959 -2.3172 -0.3769
14193TIP3    H242537   3.159   4.440   5.928  1.3364 -2.3846 -0.2797
14194TIP3   OH242538   0.431   0.921   2.873 -0.7467 -0.5413 -0.1093
14194TIP3    H142539   0.389   0.841   2.905 -1.0750  0.1171  1.1892
14194TIP3    H242540   0.504   0.936   2.934 -0.4268 -0.0751 -0.5901
14195TIP3   OH242541   4.638   7.086   5.469  0.0267 -0.1621 -0.1116
14195TIP3    H142542   4.679   7.029   5.533 -0.5661  0.7242  1.0857
14195TIP3    H242543   4.707   7.146   5.442  0.2175 -0.3918 -0.1322
14196TIP3   OH242544   8.021   1.597   2.841 -0.0386  0.0959  0.1509
14196TIP3    H142545   7.994   1.513   2.877 -0.9861 -0.3699 -1.5151
14196TIP3    H242546   7.987   1.662   2.902 -1.6131 -0.6492  0.1111
14197TIP3   OH242547   7.345   7.797   0.528  0.2549  0.0570  0.1873
14197TIP3    H142548   7.268   7.847   0.554  0.4964 -0.3903  1.8387
14197TIP3    H242549   7.343   7.801   0.432 -2.9567 -1.6449  0.0361
14198TIP3   OH242550   7.339   6.467   3.810 -0.1544 -1.0260  0.3718
14198TIP3    H142551   7.385   6.438   3.889  0.4285 -3.0996 -0.6440
14198TIP3    H242552   7.340   6.390   3.753 -1.2880  0.1608 -1.3295
14199TIP3   OH242553   5.159   0.985   3.277  0.1253 -0.0571  0.3670
14199TIP3    H142554   5.154   0.947   3.190 -1.5194 -0.3818  0.5783
14199TIP3    H242555   5.179   0.911   3.334  1.8808  0.2631  0.2234
14200TIP3   OH242556   0.242   4.416   5.794  0.5539 -0.1665  0.2137
14200TIP3    H142557   0.327   4.386   5.827  1.5327  1.7493 -0.4512
14200TIP3    H242558   0.195   4.444   5.872  1.2595  0.4766  0.4203
14201TIP3   OH242559   2.431   5.103   0.470  0.1868 -0.0009 -0.0520
14201TIP3    H142560   2.509   5.079   0.421 -0.0341 -2.0480  0.4929
14201TIP3    H242561   2.433   5.046   0.547 -1.4092  0.5073  0.3997
14202TIP3   OH242562   1.689   1.335   1.054  0.5442  0.4574  0.1417
14202TIP3    H142563   1.659   1.262   1.000  0.9181  1.5731 -1.6682
14202TIP3    H242564   1.715   1.402   0.991  0.6020  2.0058  1.7423
14203TIP3   OH242565   6.242   5.697   2.585 -0.4254  0.2438  0.1001
14203TIP3    H142566   6.199   5.750   2.518  1.6275  1.1521 -0.5653
14203TIP3    H242567   6.220   5.607   2.562  0.2767  0.5368 -1.8820
14204TIP3   OH242568   0.401   3.484   0.487 -0.1831  0.2358  0.2150
14204TIP3    H142569   0.337   3.413   0.495 -0.1165  0.1443 -0.0613
14204TIP3    H242570   0.378   3.529   0.406  0.1610  0.1388  0.0592
14205TIP3   OH242571   6.920   2.879   4.810  0.0573  0.3312 -0.1458
14205TIP3    H142572   6.834   2.919   4.826 -0.1723 -0.8215  1.9865
14205TIP3    H242573   6.899   2.794   4.771  0.1281 -0.3802  1.3105
14206TIP3   OH242574   5.570   6.361   5.339 -0.2698  0.5096 -0.7055
14206TIP3    H142575   5.568   6.341   5.433  1.3213  1.3728 -0.4645
14206TIP3    H242576   5.535   6.282   5.297 -1.2523  0.2155  0.6115
14207TIP3   OH242577   7.816   4.152   5.405 -0.1372 -0.0731 -0.2291
14207TIP3    H142578   7.840   4.243   5.389  0.2270  0.0384  0.9122
14207TIP3    H242579   7.755   4.131   5.334  1.4373  0.3817 -1.7745
14208TIP3   OH242580   7.897   4.831   3.526  0.0368 -0.2880  0.1614
14208TIP3    H142581   7.815   4.791   3.498 -0.7746 -0.1488  2.1598
14208TIP3    H242582   7.953   4.830   3.448 -1.4287 -1.4807 -0.9185
14209TIP3   OH242583   8.039   6.385   5.926  0.3635 -0.2477  0.4342
14209TIP3    H142584   8.007   6.394   6.016 -0.1979  0.8966  0.1432
14209TIP3    H242585   8.076   6.471   5.905  0.5965 -0.5373 -0.3916
14210TIP3   OH242586   6.912   0.422   4.161 -0.1579  0.1931 -0.3754
14210TIP3    H142587   6.829   0.462   4.187 -0.8060 -0.1115 -1.8326
14210TIP3    H242588   6.939   0.471   4.083  1.3435  0.6468  0.3822
14211TIP3   OH242589   1.913   2.711   3.763  0.6997 -0.1583  0.2346
14211TIP3    H142590   2.007   2.725   3.754  0.3943  1.2022 -1.2778
14211TIP3    H242591   1.878   2.722   3.674 -0.9480 -0.1450  0.8464
14212TIP3   OH242592   8.042   5.545   4.660 -0.6513  0.1089 -0.3673
14212TIP3    H142593   7.996   5.557   4.744 -0.7484  0.5948 -0.4889
14212TIP3    H242594   8.131   5.522   4.685 -0.9440 -0.8166 -0.1273
14213TIP3   OH242595   1.248   1.408   4.378 -0.0795  0.2361  0.3427
14213TIP3    H142596   1.251   1.365   4.293  1.3477  1.5529 -0.3222
14213TIP3    H242597   1.211   1.494   4.361 -0.8948  0.1023  1.2877
14214TIP3   OH242598   5.087   0.196   2.750 -0.4009  0.2657  0.1887
14214TIP3    H142599   5.162   0.202   2.690 -0.7567  2.2413 -0.1151
14214TIP3    H242600   5.104   0.117   2.801  0.2835 -1.1107 -2.0056
14215TIP3   OH242601   7.786   3.795   2.972  0.1047  0.7368 -0.4501
14215TIP3    H142602   7.691   3.797   2.957 -0.1844  1.0142  1.1387
14215TIP3    H242603   7.824   3.766   2.889 -1.3746  0.5913 -1.1020
14216TIP3   OH242604   7.412   0.052   0.520 -0.0917  0.4466 -0.1335
14216TIP3    H142605   7.458   0.124   0.477 -0.5654 -0.0162 -1.4796
14216TIP3    H242606   7.383  -0.004   0.448 -1.2501 -0.1750  0.7821
14217TIP3   OH242607   3.044   0.645   2.323 -0.3096  0.1815 -0.2848
14217TIP3    H142608   3.057   0.654   2.229  0.3559  3.5052  0.0061
14217TIP3    H242609   3.114   0.697   2.362 -1.7574  0.5463  1.9955
14218TIP3   OH242610   6.122   1.823   0.995 -0.4914 -0.1238  0.1287
14218TIP3    H142611   6.081   1.773   0.924  0.8623 -0.7662 -0.2580
14218TIP3    H242612   6.175   1.758   1.041 -1.3116  0.3047  1.7258
14219TIP3   OH242613   7.164   4.428   1.803  0.3527  0.3551  0.0915
14219TIP3    H142614   7.219   4.457   1.730 -0.2335  2.2833  0.3609
14219TIP3    H242615   7.083   4.478   1.793 -0.4662 -0.7442  1.0136
14220TIP3   OH242616   3.873   5.271   1.311 -0.0629 -0.4225 -0.1694
14220TIP3    H142617   3.818   5.237   1.381  0.4464 -3.2838 -1.0306
14220TIP3    H242618   3.961   5.239   1.332  0.3933  0.0490 -1.2868
14221TIP3   OH242619   2.551   3.280   3.969 -0.1837  0.1960 -0.7467
14221TIP3    H142620   2.499   3.249   4.043 -2.9513  0.6755 -2.3773
14221TIP3    H242621   2.537   3.215   3.900 -0.2316  1.3533 -1.8568
14222TIP3   OH242622   5.153   4.947   1.115 -0.0280 -0.0372 -0.2624
14222TIP3    H142623   5.244   4.948   1.085 -1.0256 -2.0470 -3.9616
14222TIP3    H242624   5.119   4.862   1.087 -3.0367  0.5370  1.2035
14223TIP3   OH242625   7.008   6.103   6.586  0.0457  0.3287 -0.6282
14223TIP3    H142626   6.922   6.141   6.569 -0.2872 -0.7502 -1.5265
14223TIP3    H242627   6.989   6.020   6.630  0.7238  0.8901  0.7772
14224TIP3   OH242628   0.161   2.059   5.243 -0.1931 -0.0672 -0.4794
14224TIP3    H142629   0.227   2.032   5.180 -0.1461  1.4852 -1.1512
14224TIP3    H242630   0.171   2.154   5.249  0.4079 -0.2275  2.5908
14225TIP3   OH242631   2.619   5.932   5.688  0.2848  0.5274  0.0735
14225TIP3    H142632   2.561   5.972   5.753 -0.2913  0.8664 -0.6297
14225TIP3    H242633   2.590   5.840   5.684 -0.3998  0.7550 -0.4614
14226TIP3   OH242634   7.965   6.630   2.393 -0.0929  0.1814  0.2833
14226TIP3    H142635   8.031   6.653   2.458  0.4426 -1.9082  0.5690
14226TIP3    H242636   7.891   6.686   2.413  1.1287  1.7163  0.7479
14227TIP3   OH242637   4.992   2.478   0.705 -0.0285 -0.5264 -0.6049
14227TIP3    H142638   4.969   2.486   0.612 -0.2723  1.4053 -0.4223
14227TIP3    H242639   5.071   2.425   0.706 -0.1196 -0.7203 -1.9040
14228TIP3   OH242640   1.288   5.188   4.518  0.3810  0.1078 -0.0387
14228TIP3    H142641   1.316   5.118   4.459 -0.0461  0.0637 -0.1981
14228TIP3    H242642   1.316   5.269   4.476 -0.4714  0.1140 -0.6262
14229TIP3   OH242643   0.117   5.794   0.306  0.0589  0.2590 -0.0154
14229TIP3    H142644   0.054   5.799   0.235  0.0124 -0.1128 -0.0049
14229TIP3    H242645   0.081   5.728   0.366  1.0404 -0.8437 -0.6036
14230TIP3   OH242646   3.557   0.847   5.871 -0.0501  0.2421  0.5619
14230TIP3    H142647   3.599   0.849   5.786 -0.2569  0.6507  0.4671
14230TIP3    H242648   3.471   0.809   5.855 -0.5467  1.4083  0.3754
14231TIP3   OH242649   3.316   7.372   5.409 -0.1628  0.2142  0.4256
14231TIP3    H142650   3.349   7.442   5.465 -0.7709 -0.1489  1.2503
14231TIP3    H242651   3.277   7.418   5.334  1.5101  0.6670 -0.2100
14232TIP3   OH242652   3.579   3.637   0.333 -0.2203 -0.1229  0.4783
14232TIP3    H142653   3.536   3.551   0.341  0.4361 -0.5809 -0.7466
14232TIP3    H242654   3.624   3.649   0.417  0.7287 -1.5693  0.2128
14233TIP3   OH242655   2.746   6.080   5.198  0.1339 -0.0871  0.0526
14233TIP3    H142656   2.730   6.169   5.229  0.2617 -0.1819  0.4029
14233TIP3    H242657   2.809   6.044   5.261 -2.5408 -1.6306  2.1146
14234TIP3   OH242658   2.726   3.452   2.231 -0.7982  0.0805 -0.2393
14234TIP3    H142659   2.692   3.410   2.152 -1.3885  0.6875 -0.3164
14234TIP3    H242660   2.766   3.381   2.281  0.1194 -0.2116 -1.3557
14235TIP3   OH242661   4.900   7.778   1.875  0.5015 -0.0936  0.0954
14235TIP3    H142662   4.821   7.752   1.826  0.7107 -1.4052  0.4313
14235TIP3    H242663   4.889   7.739   1.961  1.7345 -0.6892  0.0038
14236TIP3   OH242664   0.745   4.067   3.444  0.3167  0.4985  0.3381
14236TIP3    H142665   0.792   3.984   3.444  1.7419  1.2563  0.0010
14236TIP3    H242666   0.660   4.048   3.483 -0.6185 -1.7498 -2.5079
14237TIP3   OH242667   3.346   0.728   6.759  0.0091  0.0880  0.5801
14237TIP3    H142668   3.380   0.779   6.832  2.0884 -0.4707  0.0755
14237TIP3    H242669   3.359   0.784   6.682 -2.2271  0.7057  0.5638
14238TIP3   OH242670   3.609   1.105   0.620 -0.0508  0.0307 -0.0716
14238TIP3    H142671   3.677   1.076   0.560  2.7419  4.7775  0.2782
14238TIP3    H242672   3.624   1.055   0.700  1.4912 -0.7000 -0.7794
14239TIP3   OH242673   5.373   5.938   0.826  0.1455 -0.3190 -0.6486
14239TIP3    H142674   5.336   5.856   0.791 -0.1551 -0.0736 -0.9156
14239TIP3    H242675   5.301   6.001   0.819 -0.1423 -0.4234  1.0496
14240TIP3   OH242676   6.828   1.159   3.750  0.6499 -0.1224  0.0284
14240TIP3    H142677   6.813   1.253   3.765  0.1537 -0.4039  1.4086
14240TIP3    H242678   6.844   1.123   3.837  1.7051 -1.1864 -0.5872
14241TIP3   OH242679   0.611   5.887   1.087  0.0620 -0.4753  0.5807
14241TIP3    H142680   0.683   5.939   1.051 -0.4761 -0.7087 -0.8806
14241TIP3    H242681   0.651   5.805   1.115  0.3369 -0.6637 -0.3679
14242TIP3   OH242682   7.475   3.101   0.488 -0.1852  0.2164 -0.7231
14242TIP3    H142683   7.489   3.156   0.411  1.1761  2.6774  1.1418
14242TIP3    H242684   7.559   3.057   0.501 -0.2080  0.3002 -0.2865
14243TIP3   OH242685   7.499   7.058   5.725 -0.7633 -0.2308 -1.1667
14243TIP3    H142686   7.449   7.138   5.707 -0.2024  0.2469 -0.6483
14243TIP3    H242687   7.434   6.997   5.760 -0.9568  0.4880 -0.2024
14244TIP3   OH242688   3.990   6.529   3.746 -0.4513 -0.0990  0.6333
14244TIP3    H142689   3.919   6.590   3.730  0.6898  1.2174  0.4507
14244TIP3    H242690   4.013   6.542   3.838 -2.8334 -3.1952  1.8799
14245TIP3   OH242691   4.495   2.948   2.738  0.2987  0.1549 -0.5471
14245TIP3    H142692   4.406   2.942   2.703 -0.7854  0.1240  2.0111
14245TIP3    H242693   4.532   3.027   2.697 -1.4472  1.0041 -0.5635
14246TIP3   OH242694   6.145   7.689   6.097  0.6892 -0.0915 -0.0713
14246TIP3    H142695   6.108   7.760   6.046  1.0833  0.3019  0.1829
14246TIP3    H242696   6.080   7.671   6.165  0.5585 -0.0259 -0.1790
14247TIP3   OH242697   2.757   5.841   2.213  0.0737  0.7547  1.1198
14247TIP3    H142698   2.811   5.764   2.198  1.6169  2.1829 -1.3385
14247TIP3    H242699   2.690   5.837   2.145  0.4911  1.8019  0.6238
14248TIP3   OH242700   7.348   4.445   4.119 -0.5099  0.5703 -0.3294
14248TIP3    H142701   7.431   4.476   4.081 -0.7910  0.2940 -1.1746
14248TIP3    H242702   7.287   4.444   4.046 -0.5989 -1.7233 -0.3012
14249TIP3   OH242703   6.971   1.438   3.437  0.1357 -0.0253  0.4666
14249TIP3    H142704   6.987   1.379   3.363 -1.9626 -3.1789  2.3250
14249TIP3    H242705   6.879   1.462   3.428  0.6142  2.0013  0.5215
14250TIP3   OH242706   1.473   5.025   3.602  0.2578  0.2130  0.4641
14250TIP3    H142707   1.385   5.043   3.637  0.7601  0.5583  1.6196
14250TIP3    H242708   1.501   5.108   3.565  0.1968  0.1697  0.3206
14251TIP3   OH242709   0.324   2.583   4.667  0.6193  0.4160 -0.0495
14251TIP3    H142710   0.335   2.663   4.615  0.8862 -0.5488 -1.5472
14251TIP3    H242711   0.413   2.551   4.680  0.5183  0.4052  0.6223
14252TIP3   OH242712   0.810   6.852   2.285  0.1575 -0.3425  0.3040
14252TIP3    H142713   0.895   6.897   2.283  0.1235 -0.2909 -0.5177
14252TIP3    H242714   0.833   6.759   2.293  0.2613 -0.2579  0.9964
14253TIP3   OH242715   4.573   5.298   4.359  0.2992 -0.1031  0.5651
14253TIP3    H142716   4.609   5.307   4.271 -0.1454  1.0272  0.4772
14253TIP3    H242717   4.640   5.249   4.408 -1.1700 -4.5151 -1.3732
14254TIP3   OH242718   1.310   2.839   3.825 -0.2415  0.4170  0.5145
14254TIP3    H142719   1.230   2.868   3.868  0.1394  0.7711  0.9842
14254TIP3    H242720   1.328   2.753   3.864 -0.8428 -0.0449 -0.1917
14255TIP3   OH242721   7.854   0.237   6.727 -0.0913  0.5709  0.6112
14255TIP3    H142722   7.904   0.317   6.742  1.4588 -0.3997  0.8805
14255TIP3    H242723   7.872   0.183   6.805  1.6789 -1.3787 -1.0212
14256TIP3   OH242724   6.241   1.128   1.886  0.0459  0.2952  0.0623
14256TIP3    H142725   6.213   1.215   1.861 -0.1631  0.1305 -0.2885
14256TIP3    H242726   6.277   1.138   1.974  0.9936  0.9276 -0.3848
14257TIP3   OH242727   4.558   1.212   0.552  0.3518  0.0969  0.2121
14257TIP3    H142728   4.619   1.177   0.488 -0.7597 -0.0059 -0.8214
14257TIP3    H242729   4.570   1.157   0.630  2.0456  0.5174  0.2868
14258TIP3   OH242730   5.963   7.690   6.293 -0.0025  0.9507 -0.4351
14258TIP3    H142731   5.905   7.763   6.315 -1.7213 -0.7700  1.0496
14258TIP3    H242732   6.024   7.685   6.367 -0.8466 -0.0191  0.2148
14259TIP3   OH242733   3.799   2.785   6.046 -0.3882  0.0996  0.4130
14259TIP3    H142734   3.815   2.693   6.068 -0.0012  0.6090  2.4346
14259TIP3    H242735   3.827   2.833   6.124 -0.1584  1.9740 -0.7776
14260TIP3   OH242736   3.573   3.226   0.908 -0.0772 -0.2263 -0.2279
14260TIP3    H142737   3.536   3.301   0.861 -1.0157  0.5076  1.5742
14260TIP3    H242738   3.561   3.248   1.001 -0.0501 -2.4441  0.3558
14261TIP3   OH242739   4.815   7.576   4.209 -0.1406  0.0587 -0.1192
14261TIP3    H142740   4.834   7.668   4.230  0.6537  0.0290 -0.6807
14261TIP3    H242741   4.884   7.527   4.254 -0.3542 -0.2441 -0.1207
14262TIP3   OH242742   5.852   4.064   0.770  0.7469 -0.0187  0.1201
14262TIP3    H142743   5.764   4.066   0.731  1.2070 -2.4641 -1.2474
14262TIP3    H242744   5.840   4.017   0.852  1.0801 -2.9237 -1.3520
14263TIP3   OH242745   2.451   3.742   4.045  0.4449 -0.4249  0.0434
14263TIP3    H142746   2.496   3.747   4.129 -0.4308  1.6041  0.4546
14263TIP3    H242747   2.473   3.825   4.001 -1.4400 -0.1413 -0.4610
14264TIP3   OH242748   2.021   2.389   6.380 -0.4983 -0.6224  0.5198
14264TIP3    H142749   1.950   2.373   6.443 -0.6368  1.4512  0.9663
14264TIP3    H242750   2.101   2.370   6.429 -0.6327  0.4194  1.1735
14265TIP3   OH242751   1.335   3.920   5.004 -0.0190 -0.5783  0.3412
14265TIP3    H142752   1.352   3.829   4.979  0.4294 -0.7589  1.2454
14265TIP3    H242753   1.249   3.918   5.045 -0.0131 -0.5928  0.3529
14266TIP3   OH242754   4.884   6.812   1.922 -0.5023 -0.2892  0.2068
14266TIP3    H142755   4.917   6.859   1.845 -0.5576 -0.0652  0.3181
14266TIP3    H242756   4.859   6.726   1.889 -0.9802 -0.0322 -0.1263
14267TIP3   OH242757   4.945   2.599   0.063 -0.2161  0.4344 -0.1990
14267TIP3    H142758   4.925   2.682   0.019 -2.3798 -1.0583 -2.2457
14267TIP3    H242759   4.860   2.566   0.091  0.5138 -1.4440 -0.0519
14268TIP3   OH242760   0.347   0.344   3.992 -0.3700  0.5238  0.2157
14268TIP3    H142761   0.431   0.381   4.019 -1.0119  2.2431  0.0060
14268TIP3    H242762   0.366   0.298   3.910  0.5769 -0.1168  0.7851
14269TIP3   OH242763   0.333   3.025   4.081  0.0804 -0.6377  0.5405
14269TIP3    H142764   0.400   3.074   4.129 -0.2113  1.6036 -1.1763
14269TIP3    H242765   0.382   2.980   4.012  0.1790 -1.6652  1.2681
14270TIP3   OH242766   4.174   4.855   3.340 -0.0673  0.0749  0.0474
14270TIP3    H142767   4.230   4.879   3.266 -1.3968  0.9016 -0.7265
14270TIP3    H242768   4.204   4.911   3.411  1.8055 -1.3418  0.4375
14271TIP3   OH242769   6.932   1.009   2.520 -0.0833  0.4495  0.1150
14271TIP3    H142770   6.919   0.931   2.574  1.9448 -0.5331 -0.7148
14271TIP3    H242771   6.981   1.069   2.576  1.3056 -0.2443 -0.3287
14272TIP3   OH242772   5.352   7.342   1.360 -0.3909 -0.5550 -0.1204
14272TIP3    H142773   5.442   7.337   1.393 -1.8517 -1.4319  4.3409
14272TIP3    H242774   5.352   7.286   1.282  3.0083  0.0639 -0.7419
14273TIP3   OH242775   2.432   4.002   3.959 -0.1386  0.3760 -0.0873
14273TIP3    H142776   2.389   4.065   3.901 -0.1244  0.1820 -0.3133
14273TIP3    H242777   2.460   4.053   4.034  1.0636  0.9239 -0.8718
14274TIP3   OH242778   2.414   1.510   4.577  0.3351  0.1575 -0.0267
14274TIP3    H142779   2.492   1.548   4.538  0.0356  1.0498  0.2050
14274TIP3    H242780   2.343   1.536   4.518 -0.3737  2.9217  1.8109
14275TIP3   OH242781   3.382   2.345   6.442  0.3069 -0.1926 -0.0486
14275TIP3    H142782   3.370   2.265   6.494  1.2258  1.1509  2.4012
14275TIP3    H242783   3.315   2.405   6.474  1.1152  0.7932 -0.1379
14276TIP3   OH242784   3.297   0.069   2.154 -0.1144 -0.1162  0.0699
14276TIP3    H142785   3.284   0.077   2.060 -0.7196  1.9529  0.2819
14276TIP3    H242786   3.303  -0.025   2.170  2.2873 -0.4924 -2.3081
14277TIP3   OH242787   0.775   4.889   5.908  0.0341 -0.0752 -0.2757
14277TIP3    H142788   0.830   4.859   5.835 -0.4206 -2.0368  0.1258
14277TIP3    H242789   0.686   4.885   5.875 -0.0694  0.5835 -0.0983
14278TIP3   OH242790   0.221   4.864   4.890  0.7074 -0.2321 -0.2820
14278TIP3    H142791   0.243   4.905   4.806  1.1469 -1.7221 -0.9282
14278TIP3    H242792   0.238   4.932   4.955  2.8867  0.1537 -1.1666
14279TIP3   OH242793   6.277   4.372   5.045 -0.2020 -0.7535  0.1463
14279TIP3    H142794   6.248   4.326   5.124 -0.4741 -1.3010 -0.2729
14279TIP3    H242795   6.216   4.343   4.977  0.8374 -1.2961 -0.5646
14280TIP3   OH242796   6.265   4.556   1.570 -0.7259  0.3821  0.6908
14280TIP3    H142797   6.229   4.468   1.563 -0.2834  0.2490  0.0573
14280TIP3    H242798   6.274   4.571   1.664 -0.0539 -0.5500  0.7875
14281TIP3   OH242799   4.445   4.005   1.982  0.3622  0.2084  0.0344
14281TIP3    H142800   4.525   4.038   1.943 -0.7255  0.6821 -1.9058
14281TIP3    H242801   4.463   3.912   1.998  0.7589 -0.0867 -1.9328
14282TIP3   OH242802   0.919   6.894   0.333  0.4559 -0.0790 -0.1714
14282TIP3    H142803   0.992   6.955   0.321 -0.2662  0.7359 -0.5470
14282TIP3    H242804   0.881   6.885   0.245 -0.0113 -0.3441  0.0559
14283TIP3   OH242805   7.261   5.554   0.336 -0.1440  0.0387 -0.1132
14283TIP3    H142806   7.239   5.471   0.293  0.7138  0.6222 -1.7635
14283TIP3    H242807   7.331   5.590   0.283 -0.5916  1.9003  0.5032
14284TIP3   OH242808   5.798   6.986   2.663 -0.3284 -0.4056  0.0406
14284TIP3    H142809   5.738   6.941   2.604 -0.5397  0.3837 -0.3711
14284TIP3    H242810   5.812   7.072   2.622  3.1109 -1.4047 -1.2907
14285TIP3   OH242811   2.681   0.245   2.848  0.0662 -0.2293 -0.8994
14285TIP3    H142812   2.678   0.292   2.765  0.6886 -0.0968 -0.8499
14285TIP3    H242813   2.749   0.179   2.835  0.3708 -0.0168 -0.3937
14286TIP3   OH242814   5.617   5.086   1.285 -0.1087 -0.7891 -0.0703
14286TIP3    H142815   5.630   5.124   1.372  0.5030  0.5186 -0.6927
14286TIP3    H242816   5.686   5.022   1.275  0.3576 -0.3200  0.0954
14287TIP3   OH242817   7.295   1.903   5.843  0.0983  0.2234 -0.1263
14287TIP3    H142818   7.284   1.968   5.912  0.4499  0.2364 -0.0811
14287TIP3    H242819   7.335   1.951   5.770 -1.0055  0.3992 -0.6447
14288TIP3   OH242820   4.090   2.014   5.315  0.2796  0.0867 -0.4643
14288TIP3    H142821   4.048   2.081   5.370  0.0769  1.5080 -2.2549
14288TIP3    H242822   4.183   2.019   5.338  0.0506 -0.1015  0.5216
14289TIP3   OH242823   5.116   3.317   0.597 -0.2435  0.3672 -0.1874
14289TIP3    H142824   5.192   3.367   0.566  0.3262 -1.7660 -2.5878
14289TIP3    H242825   5.135   3.299   0.689  1.6273  0.8265 -0.4324
14290TIP3   OH242826   0.139   3.784   1.753 -0.2103 -0.1725  0.0282
14290TIP3    H142827   0.071   3.737   1.705  0.1942  0.2287 -0.9544
14290TIP3    H242828   0.218   3.772   1.702  0.2265  0.2956  0.5750
14291TIP3   OH242829   2.493   2.943   4.349 -0.2405  0.4044 -0.0264
14291TIP3    H142830   2.489   2.888   4.270 -1.5593  1.0108 -0.4128
14291TIP3    H242831   2.495   2.880   4.421  0.0210 -0.1548 -0.5092
14292TIP3   OH242832   5.372   1.899   3.919  0.5196 -0.4064 -0.4709
14292TIP3    H142833   5.293   1.934   3.879  0.1040 -0.4620  0.2800
14292TIP3    H242834   5.430   1.975   3.929 -1.0174  0.5323  2.7087
14293TIP3   OH242835   3.749   3.404   2.277  0.0433 -0.2060 -0.0421
14293TIP3    H142836   3.788   3.371   2.358 -0.9140 -0.6427  0.2556
14293TIP3    H242837   3.778   3.344   2.209  1.6668  0.7223 -0.2250
14294TIP3   OH242838   1.857   1.430   4.717  0.2880 -0.3170  0.2723
14294TIP3    H142839   1.766   1.408   4.737  0.0569  0.6820  0.3584
14294TIP3    H242840   1.905   1.410   4.798 -0.1925  1.0536  0.9202
14295TIP3   OH242841   2.124   2.902   0.231  0.7602  0.3273  0.5992
14295TIP3    H142842   2.128   2.889   0.325 -0.9023  1.0318  0.8010
14295TIP3    H242843   2.109   2.996   0.220  2.3764  0.5093 -0.4395
14296TIP3   OH242844   1.324   7.722   3.114  0.3598 -0.4772 -0.1538
14296TIP3    H142845   1.231   7.712   3.093  0.3124  0.9117 -0.7042
14296TIP3    H242846   1.325   7.745   3.207  0.3034 -2.3219  0.3526
14297TIP3   OH242847   7.073   1.477   5.292  0.1222  0.0278 -0.1082
14297TIP3    H142848   7.044   1.414   5.225 -1.9769 -0.7501  1.4291
14297TIP3    H242849   7.083   1.424   5.371  0.2006  1.3191  0.7590
14298TIP3   OH242850   4.222   7.509   2.300 -0.3359  0.4384 -0.7231
14298TIP3    H142851   4.165   7.559   2.358 -1.1012 -1.5106  0.3080
14298TIP3    H242852   4.311   7.533   2.327 -0.6869  0.4189  0.5286
14299TIP3   OH242853   7.755   3.284   3.650 -0.0969 -0.5329 -0.2504
14299TIP3    H142854   7.772   3.209   3.593 -4.0918 -0.3245 -2.0446
14299TIP3    H242855   7.757   3.360   3.592  0.4520  0.3556  0.8817
14300TIP3   OH242856   6.708   6.234   4.187 -0.4684  0.7092  0.4779
14300TIP3    H142857   6.720   6.329   4.196  1.1231  0.8600 -2.1693
14300TIP3    H242858   6.643   6.225   4.117  0.1507 -0.1184 -0.0114
14301TIP3   OH242859   7.470   1.691   5.718 -0.5055  0.3651  0.3049
14301TIP3    H142860   7.434   1.755   5.780 -0.8275  0.7541 -0.2649
14301TIP3    H242861   7.420   1.611   5.734 -0.9263  0.6061  0.2202
14302TIP3   OH242862   7.872   3.887   0.701  0.6551 -0.1403 -0.3102
14302TIP3    H142863   7.844   3.899   0.611  0.8403  1.1320 -0.2226
14302TIP3    H242864   7.797   3.915   0.753  0.6466 -0.6119 -0.0614
14303TIP3   OH242865   7.328   0.572   1.431  0.0765  0.1143  0.0666
14303TIP3    H142866   7.273   0.542   1.503 -0.5165 -0.5433 -0.6498
14303TIP3    H242867   7.319   0.667   1.432  0.5810  0.1638  1.2523
14304TIP3   OH242868   7.057   7.130   3.762 -0.2337  0.2256 -0.6691
14304TIP3    H142869   6.985   7.079   3.725 -0.6043 -0.0025  0.3267
14304TIP3    H242870   7.136   7.087   3.730 -0.5415  0.0535 -1.2026
14305TIP3   OH242871   6.551   4.439   0.952  0.4936  0.6646  0.3431
14305TIP3    H142872   6.461   4.454   0.980  0.2826  1.4138 -0.6918
14305TIP3    H242873   6.569   4.348   0.977 -1.2655 -0.1906 -1.3284
14306TIP3   OH242874   6.496   3.467   0.782  0.2722 -0.3697  0.3062
14306TIP3    H142875   6.566   3.527   0.758 -0.0576 -0.5738 -1.2300
14306TIP3    H242876   6.476   3.418   0.702 -0.6973 -1.2714  1.0543
14307TIP3   OH242877   1.332   1.283   4.105 -0.6460  0.6205  0.1440
14307TIP3    H142878   1.312   1.208   4.161 -0.7676 -0.9170 -1.8811
14307TIP3    H242879   1.257   1.290   4.046  0.0173  1.4348 -0.6297
14308TIP3   OH242880   0.004   7.508   6.019  0.1145  0.0965  0.1108
14308TIP3    H142881  -0.045   7.461   5.951 -0.3360 -1.1725  1.2585
14308TIP3    H242882   0.084   7.537   5.975  0.1069 -1.2030 -0.8340
14309TIP3   OH242883   6.671   3.844   2.351 -0.0447 -0.1083 -0.1393
14309TIP3    H142884   6.722   3.885   2.421 -0.0458 -0.3296 -0.0069
14309TIP3    H242885   6.737   3.812   2.290 -0.0666  0.7298 -0.6104
14310TIP3   OH242886   4.265   2.279   3.963 -0.1137 -0.1148  0.0088
14310TIP3    H142887   4.221   2.306   3.883 -2.0731 -2.4447  0.1842
14310TIP3    H242888   4.250   2.351   4.024  1.4810  1.7332 -1.6493
14311TIP3   OH242889   6.857   3.493   5.957  0.2117  0.0949  0.0021
14311TIP3    H142890   6.895   3.541   5.882  1.9107 -1.7207 -0.3775
14311TIP3    H242891   6.911   3.519   6.031  1.1841 -1.2255 -0.2184
14312TIP3   OH242892   4.548   4.974   0.863  1.0769 -0.1110  0.4323
14312TIP3    H142893   4.467   5.006   0.903 -0.5078 -1.1796 -1.6645
14312TIP3    H242894   4.564   5.034   0.791  0.9847 -1.0401 -0.3799
14313TIP3   OH242895   4.206   7.251   0.914 -0.1646  0.0899 -0.0552
14313TIP3    H142896   4.180   7.181   0.854  1.6965 -1.1502  0.4923
14313TIP3    H242897   4.157   7.233   0.995 -0.2327 -0.1503 -0.1504
14314TIP3   OH242898   0.884   0.927   6.010  0.2862 -0.7073 -0.2120
14314TIP3    H142899   0.849   0.842   6.034  1.3606 -1.0125  0.3516
14314TIP3    H242900   0.822   0.990   6.046 -0.5339 -1.2510 -0.6643
14315TIP3   OH242901   7.369   7.356   4.972  0.2635  0.5452  0.6642
14315TIP3    H142902   7.297   7.293   4.979 -0.4377  1.0725 -1.2167
14315TIP3    H242903   7.446   7.303   4.953 -0.0740  0.1447  0.3911
14316TIP3   OH242904   5.552   4.173   6.608  0.8030 -0.0475  0.0380
14316TIP3    H142905   5.638   4.193   6.571  1.2024 -3.1077 -1.0021
14316TIP3    H242906   5.491   4.183   6.535  0.7524 -0.6775 -0.0164
14317TIP3   OH242907   5.664   3.293   5.840  0.4048  0.6481 -0.4334
14317TIP3    H142908   5.666   3.211   5.790 -0.7321 -1.0766  2.1033
14317TIP3    H242909   5.752   3.328   5.833  1.3964 -1.6258 -0.4242
14318TIP3   OH242910   2.156   6.855   0.348  0.6025  0.5202 -0.1602
14318TIP3    H142911   2.157   6.788   0.280  0.0164 -0.8541  1.1209
14318TIP3    H242912   2.233   6.838   0.401  0.8284  1.3151 -0.2136
14319TIP3   OH242913   8.173   6.120   4.763 -0.3692 -0.2825  0.5229
14319TIP3    H142914   8.206   6.140   4.676 -0.8237  1.6958  0.7576
14319TIP3    H242915   8.083   6.093   4.750 -0.4228 -0.0284  0.3563
14320TIP3   OH242916   5.131   4.958   6.131  0.1941  0.0891 -0.2593
14320TIP3    H142917   5.123   4.882   6.188  1.3759  0.7730  0.8622
14320TIP3    H242918   5.225   4.968   6.117  0.1286  1.8289  0.3124
14321TIP3   OH242919   1.923   5.447   5.742  0.2592  0.5331  0.0170
14321TIP3    H142920   2.011   5.421   5.767  0.2432  1.6954  1.4871
14321TIP3    H242921   1.919   5.435   5.647  1.9650  0.3753 -0.0566
14322TIP3   OH242922   0.326   4.240   2.602  0.1319  0.0784  0.0565
14322TIP3    H142923   0.233   4.217   2.613 -0.0234 -0.8514 -2.4113
14322TIP3    H242924   0.336   4.252   2.507  2.3693  1.0117  0.3544
14323TIP3   OH242925   5.244   4.413   3.911  0.4254  0.2893  0.3598
14323TIP3    H142926   5.230   4.486   3.972 -2.6653  0.3376 -0.2520
14323TIP3    H242927   5.250   4.454   3.825 -0.5964 -0.0822  0.0930
14324TIP3   OH242928   0.038   4.593   3.106 -0.1809 -0.3354  0.4154
14324TIP3    H142929   0.042   4.601   3.201  0.4269  0.2102  0.3527
14324TIP3    H242930   0.006   4.678   3.076 -2.3274 -1.1420  0.2270
14325TIP3   OH242931   0.428   7.178   4.873 -0.6677 -0.1159  0.2419
14325TIP3    H142932   0.476   7.225   4.941 -0.8229 -0.7720  0.8192
14325TIP3    H242933   0.482   7.100   4.854 -0.3250  0.3576 -0.8259
14326TIP3   OH242934   1.837   4.401   1.502  0.5537 -0.2376 -0.1802
14326TIP3    H142935   1.854   4.327   1.561 -1.4130 -0.3236  0.3631
14326TIP3    H242936   1.826   4.476   1.561  0.1386 -0.0134 -0.5345
14327TIP3   OH242937   1.377   3.069   0.223  0.1765  0.3332  0.4608
14327TIP3    H142938   1.461   3.027   0.240 -0.5950 -1.6497 -0.2930
14327TIP3    H242939   1.385   3.104   0.134  0.4639  0.8914  0.6997
14328TIP3   OH242940   0.093   7.733   6.396 -0.1806  0.3156 -0.0524
14328TIP3    H142941   0.155   7.745   6.324 -0.6399 -1.3648 -0.7520
14328TIP3    H242942   0.062   7.822   6.415  0.7854  0.9223 -1.1563
14329TIP3   OH242943   3.596   4.310   4.766 -0.1866  0.3289 -0.3618
14329TIP3    H142944   3.581   4.261   4.848  0.9555 -0.9679 -0.8774
14329TIP3    H242945   3.511   4.348   4.744  0.1471  3.9562  3.3756
14330TIP3   OH242946   2.633   5.261   5.708 -0.2183 -0.1535  0.0915
14330TIP3    H142947   2.627   5.225   5.619  0.6575 -0.2427  0.0571
14330TIP3    H242948   2.720   5.235   5.738  0.5129  2.0288  0.0228
14331TIP3   OH242949   1.993   2.294   1.632 -0.5058  0.0944 -0.6507
14331TIP3    H142950   2.016   2.382   1.662  0.2267 -0.1558 -0.4617
14331TIP3    H242951   1.906   2.304   1.594 -1.3380  0.5061  1.2386
14332TIP3   OH242952   1.119   0.932   2.660 -0.0226 -0.3196  0.2544
14332TIP3    H142953   1.032   0.893   2.669 -0.1191  0.1655  1.7405
14332TIP3    H242954   1.178   0.868   2.699 -0.2251  1.0530  3.0893
14333TIP3   OH242955   0.781   6.723   3.432  0.0366 -0.1003  0.0099
14333TIP3    H142956   0.722   6.781   3.384  0.6733  1.2518  0.8205
14333TIP3    H242957   0.828   6.780   3.493  0.4442 -1.5180  1.0881
14334TIP3   OH242958   5.952   2.574   5.462 -0.0667 -0.1947  0.3066
14334TIP3    H142959   6.035   2.608   5.429 -1.0021  1.4807 -0.4728
14334TIP3    H242960   5.920   2.643   5.520 -1.8998  0.2232 -1.0953
14335TIP3   OH242961   6.434   6.807   1.725 -0.8636 -0.2197  0.1591
14335TIP3    H142962   6.466   6.795   1.636  0.7917 -0.4581  0.7597
14335TIP3    H242963   6.369   6.737   1.736 -0.1663 -0.9890 -0.4502
14336TIP3   OH242964   0.259   4.892   6.260  0.3064 -0.0753  0.6586
14336TIP3    H142965   0.276   4.893   6.166  2.2648  1.4517  0.9533
14336TIP3    H242966   0.215   4.975   6.278 -0.7871 -0.7027  1.0238
14337TIP3   OH242967   4.324   7.815   4.354 -0.2040 -0.2468 -0.6421
14337TIP3    H142968   4.298   7.767   4.275 -0.0525 -2.8571  0.7525
14337TIP3    H242969   4.419   7.814   4.353 -0.1241 -2.6864  0.7632
14338TIP3   OH242970   2.641   2.961   0.185  0.2898 -0.6646 -1.0558
14338TIP3    H142971   2.718   2.953   0.241  0.1260 -1.7761 -0.9654
14338TIP3    H242972   2.644   3.051   0.152  0.3048  0.1061  0.8759
14339TIP3   OH242973   0.524   0.135   1.080 -0.1074  0.4903  0.0089
14339TIP3    H142974   0.531   0.074   1.007  1.5246 -0.1933  0.6963
14339TIP3    H242975   0.504   0.081   1.156 -0.8034  1.0803  0.2647
14340TIP3   OH242976   5.347   1.903   0.490  0.3544  0.2344 -0.0462
14340TIP3    H142977   5.396   1.880   0.569  1.5274  2.0392 -0.2123
14340TIP3    H242978   5.281   1.965   0.520 -0.4286 -0.4887 -0.2136
14341TIP3   OH242979   7.440   5.460   1.210  0.4180 -0.1724  0.2144
14341TIP3    H142980   7.461   5.443   1.302  0.7656  0.2951  0.2232
14341TIP3    H242981   7.518   5.501   1.174 -0.5853  2.0444  0.3727
14342TIP3   OH242982   2.159   3.954   2.265  0.0898  0.2885  0.0310
14342TIP3    H142983   2.183   4.046   2.273  0.8615  0.1689 -0.7836
14342TIP3    H242984   2.150   3.939   2.170 -2.9289  0.2476  0.2392
14343TIP3   OH242985   2.179   3.929   1.594  0.4764  0.2075 -0.3826
14343TIP3    H142986   2.198   4.022   1.607 -0.5485  0.2389  1.1556
14343TIP3    H242987   2.132   3.925   1.511 -1.0786  1.3390  0.3900
14344TIP3   OH242988   5.376   4.173   0.267  1.2657 -0.0521  0.0528
14344TIP3    H142989   5.430   4.172   0.188  1.1116 -0.2272 -0.0511
14344TIP3    H242990   5.327   4.090   0.264 -1.3067  1.3886 -1.4592
14345TIP3   OH242991   0.108   2.700   1.319 -0.3515  0.3772  0.3701
14345TIP3    H142992   0.075   2.647   1.245 -1.8143 -0.1444  1.3427
14345TIP3    H242993   0.073   2.788   1.302  0.2834  0.5444 -0.1322
14346TIP3   OH242994   4.332   7.772   0.907  0.1071 -0.3998  0.0777
14346TIP3    H142995   4.354   7.717   0.982  0.3777 -0.6919 -0.2123
14346TIP3    H242996   4.373   7.856   0.926  0.0685 -0.4340  0.3144
14347TIP3   OH242997   5.625   5.276   2.074  0.1475  0.2246  0.3208
14347TIP3    H142998   5.530   5.274   2.087 -0.0903 -2.2653 -1.0547
14347TIP3    H242999   5.662   5.243   2.156 -0.3809 -1.2736 -0.0164
14348TIP3   OH243000   8.231   2.604   0.822 -0.7280 -0.1838  0.2636
14348TIP3    H143001   8.316   2.643   0.843 -0.3709 -0.3881 -0.7756
14348TIP3    H243002   8.251   2.518   0.787 -1.3655 -0.2397  0.0168
14349TIP3   OH243003   6.774   4.193   5.185  0.5776  0.2508 -0.8273
14349TIP3    H143004   6.702   4.218   5.128  1.0435 -0.3353 -1.6969
14349TIP3    H243005   6.800   4.274   5.228  0.0211  0.6419 -1.2117
14350TIP3   OH243006   1.528   6.634   5.593 -0.4689 -0.5844 -0.1767
14350TIP3    H143007   1.534   6.721   5.552 -1.6499 -0.9044 -1.0718
14350TIP3    H243008   1.542   6.573   5.521  2.1508 -1.1880  0.7413
14351TIP3   OH243009   8.123   0.518   3.106  0.6600  0.2406  0.3889
14351TIP3    H143010   8.180   0.566   3.166  0.3988 -0.3656  1.1477
14351TIP3    H243011   8.161   0.532   3.020  1.3701  0.6721  0.7608
14352TIP3   OH243012   2.594   5.871   1.996  0.3054 -0.0789 -0.0028
14352TIP3    H143013   2.512   5.840   1.959  0.1299  0.6635 -0.2549
14352TIP3    H243014   2.603   5.961   1.964  0.9056  0.0613  0.5269
14353TIP3   OH243015   5.334   0.979   6.203  0.0439 -0.2187 -0.5064
14353TIP3    H143016   5.355   0.909   6.266  2.0556  0.9712  0.2419
14353TIP3    H243017   5.317   1.055   6.258 -1.0541  0.1563 -1.3522
14354TIP3   OH243018   7.328   5.274   3.273  0.2716 -0.2172  0.0382
14354TIP3    H143019   7.240   5.293   3.240  0.0316 -0.3051  0.6337
14354TIP3    H243020   7.348   5.348   3.330  0.6250 -0.1519 -0.1655
14355TIP3   OH243021   3.831   5.545   4.346 -1.2182 -0.5558  0.1516
14355TIP3    H143022   3.825   5.492   4.426  0.9238 -1.1349 -0.0017
14355TIP3    H243023   3.842   5.635   4.378  0.4057 -0.8671  0.5914
14356TIP3   OH243024   5.748   5.637   6.728 -0.2523  0.2568  0.0194
14356TIP3    H143025   5.720   5.716   6.682 -1.2692  0.3968  0.8464
14356TIP3    H243026   5.699   5.638   6.810 -0.4825 -1.3712 -0.0646
14357TIP3   OH243027   3.127   1.144   6.626  0.5314  0.0523  0.0363
14357TIP3    H143028   3.088   1.103   6.549  2.1901  1.2247 -1.5205
14357TIP3    H243029   3.220   1.150   6.606  0.9107  1.0642  1.8298
14358TIP3   OH243030   3.233   0.737   4.607 -0.3044  0.5754  0.3760
14358TIP3    H143031   3.281   0.820   4.609  2.8181 -0.9568 -1.7220
14358TIP3    H243032   3.288   0.679   4.553 -3.1906 -2.3373  0.2359
14359TIP3   OH243033   8.207   1.119   1.507 -0.6187  0.1359 -0.0054
14359TIP3    H143034   8.188   1.097   1.416 -2.2505  0.4692  0.2287
14359TIP3    H243035   8.147   1.064   1.558  1.3027 -1.1610  0.9593
14360TIP3   OH243036   4.465   4.419   5.355 -0.4745 -0.5666  0.5196
14360TIP3    H143037   4.433   4.379   5.274 -3.0876  2.2366 -0.0292
14360TIP3    H243038   4.405   4.389   5.423 -1.2607  0.7377  0.4500
14361TIP3   OH243039   3.435   2.400   0.595  0.3733  0.3849  0.3350
14361TIP3    H143040   3.347   2.362   0.605 -0.2883  1.6678 -0.2557
14361TIP3    H243041   3.492   2.343   0.646 -0.7551 -0.6586  0.4874
14362TIP3   OH243042   8.019   0.246   1.480  0.5964 -0.0678 -0.2282
14362TIP3    H143043   8.045   0.173   1.537 -2.1699  0.4322  1.9023
14362TIP3    H243044   8.064   0.322   1.517  1.3712 -0.2477 -0.7832
14363TIP3   OH243045   4.249   3.268   5.690  0.1839  0.0713  0.2817
14363TIP3    H143046   4.180   3.328   5.662  0.0326  0.5245  1.5810
14363TIP3    H243047   4.202   3.196   5.733  0.5072  0.3255  1.0668
14364TIP3   OH243048   5.757   5.379   4.996 -0.0227  0.1572 -0.1712
14364TIP3    H143049   5.727   5.402   5.084  0.1943 -1.0003  0.2197
14364TIP3    H243050   5.717   5.294   4.978  2.2872 -1.0631  0.0469
14365TIP3   OH243051   3.884   3.867   3.295 -0.2030  0.0823  0.4495
14365TIP3    H143052   3.834   3.793   3.329  0.0629 -0.7637 -0.9290
14365TIP3    H243053   3.879   3.858   3.200 -0.5561  2.1159  0.2281
14366TIP3   OH243054   7.857   4.785   5.242 -0.0858  0.0445 -0.6251
14366TIP3    H143055   7.818   4.699   5.224  0.6060 -0.2272 -0.8554
14366TIP3    H243056   7.936   4.787   5.188  0.8165  0.1436  0.6715
14367TIP3   OH243057   2.878   3.219   2.261  0.0461 -0.2745  0.1653
14367TIP3    H143058   2.941   3.210   2.190  0.3235 -0.4917  0.4371
14367TIP3    H243059   2.830   3.136   2.263 -1.4315  0.4837 -1.1438
14368TIP3   OH243060   2.860   6.585   0.311 -0.4615  0.1346  0.0065
14368TIP3    H143061   2.822   6.546   0.389  3.1318  1.0639  2.4975
14368TIP3    H243062   2.923   6.519   0.280 -0.2102  0.7006 -0.7109
14369TIP3   OH243063   2.047   4.478   1.341  0.1099  0.7863 -0.3677
14369TIP3    H143064   1.962   4.458   1.382 -1.0021  1.5543 -2.1551
14369TIP3    H243065   2.111   4.435   1.397 -1.5143 -0.4452  0.6599
14370TIP3   OH243066   6.061   3.725   0.065 -0.5437  0.0441  0.5193
14370TIP3    H143067   6.141   3.752   0.019 -1.5299  0.6441 -0.9064
14370TIP3    H243068   6.054   3.631   0.049 -0.3003  0.0480  0.3839
14371TIP3   OH243069   4.390   7.400   4.092  0.0976  0.0793 -0.3464
14371TIP3    H143070   4.451   7.373   4.161 -0.4100  0.0297  0.0791
14371TIP3    H243071   4.446   7.443   4.027  0.6813 -0.5112 -0.2514
14372TIP3   OH243072   7.561   5.845   3.776  0.1841 -0.5619  0.1917
14372TIP3    H143073   7.589   5.880   3.861  1.1639  0.2733 -0.4421
14372TIP3    H243074   7.466   5.860   3.774  0.1965 -0.3229  1.0115
14373TIP3   OH243075   1.901   3.378   0.019  0.1527 -0.2285 -0.1762
14373TIP3    H143076   1.963   3.322  -0.027 -0.4205 -0.6456 -0.4415
14373TIP3    H243077   1.940   3.466   0.015  1.3081 -0.6748  0.6837
14374TIP3   OH243078   3.731   4.428   3.450  0.0997  0.0203  0.1821
14374TIP3    H143079   3.770   4.505   3.491 -0.9395  0.6072  0.0800
14374TIP3    H243080   3.637   4.436   3.466 -0.0925 -0.8839 -0.4093
14375TIP3   OH243081   2.135   4.813   4.126 -0.3516 -0.2150  0.1112
14375TIP3    H143082   2.185   4.758   4.186 -0.5009 -0.2804  0.1753
14375TIP3    H243083   2.086   4.751   4.072 -0.8916 -0.1338  0.5041
14376TIP3   OH243084   8.161   0.420   0.972 -0.8101 -0.6352 -0.1284
14376TIP3    H143085   8.129   0.505   0.941 -0.6812 -0.8463 -0.8806
14376TIP3    H243086   8.233   0.398   0.912  0.3288 -0.4703  1.1410
14377TIP3   OH243087   3.650   0.216   4.857 -0.1086  0.0462 -0.5093
14377TIP3    H143088   3.613   0.302   4.877 -1.7930 -0.6498 -0.4052
14377TIP3    H243089   3.573   0.162   4.837  1.0519 -0.6253 -3.8270
14378TIP3   OH243090   4.823   0.397   3.458  0.0357  0.0025  0.2445
14378TIP3    H143091   4.774   0.398   3.540 -0.7553  0.2383 -0.2190
14378TIP3    H243092   4.843   0.488   3.441  2.1380 -0.2169  1.2824
14379TIP3   OH243093   5.506   2.573   1.931 -0.4755 -0.7623 -0.0103
14379TIP3    H143094   5.470   2.642   1.877 -0.8119 -1.6722 -0.9877
14379TIP3    H243095   5.485   2.599   2.021  0.7617  1.1567 -0.2254
14380TIP3   OH243096   3.192   1.329   4.957  0.2059 -0.1831 -0.4869
14380TIP3    H143097   3.098   1.341   4.938 -0.3596 -1.1584  1.4140
14380TIP3    H243098   3.208   1.236   4.940  0.1331 -0.6393  1.6891
14381TIP3   OH243099   4.970   0.392   1.902  0.4042  0.3429  0.0673
14381TIP3    H143100   4.936   0.350   1.981 -2.7182 -1.5375 -2.0464
14381TIP3    H243101   5.059   0.359   1.894  0.1353 -0.9504  1.7996
14382TIP3   OH243102   4.245   6.026   2.801  0.1786 -0.1176  0.2348
14382TIP3    H143103   4.205   6.023   2.888  0.8820 -0.6331  0.5431
14382TIP3    H243104   4.170   6.028   2.741 -0.3117  0.1970  0.8429
14383TIP3   OH243105   5.584   4.612   2.597  0.1905 -0.1975  0.0517
14383TIP3    H143106   5.542   4.672   2.535 -0.6254 -0.2430  0.5401
14383TIP3    H243107   5.584   4.528   2.553  0.4946 -0.0332 -0.2669
14384TIP3   OH243108   1.337   4.426   1.517  0.0198  0.4859 -0.5037
14384TIP3    H143109   1.242   4.438   1.523 -0.1724  0.2176 -2.4792
14384TIP3    H243110   1.373   4.497   1.570 -1.2718  0.3913  0.5510
14385TIP3   OH243111   1.228   4.664   6.558  0.3094  0.1543  0.3581
14385TIP3    H143112   1.198   4.648   6.648  3.4389  1.0567  1.6825
14385TIP3    H243113   1.251   4.757   6.557  1.2957 -0.0858 -1.0790
14386TIP3   OH243114   0.262   3.770   5.282 -0.5220  0.3962 -0.0195
14386TIP3    H143115   0.236   3.862   5.291 -3.0764 -0.0085 -1.9286
14386TIP3    H243116   0.216   3.725   5.353 -0.0220  0.4696  0.3519
14387TIP3   OH243117   8.278   6.705   0.482 -0.4738  0.0636 -0.0711
14387TIP3    H143118   8.237   6.642   0.541  0.5245  0.6669  1.3003
14387TIP3    H243119   8.316   6.771   0.540  1.6077  0.0403 -1.3186
14388TIP3   OH243120   2.009   7.469   3.026  0.1831 -0.6737 -0.1999
14388TIP3    H143121   1.931   7.496   2.977 -0.2505  0.5950  1.1226
14388TIP3    H243122   1.993   7.377   3.046 -0.5220 -0.6860 -0.7705
14389TIP3   OH243123   6.164   0.507   0.846 -0.0586 -0.2871 -0.4439
14389TIP3    H143124   6.217   0.434   0.881 -0.8122  0.2653  2.0887
14389TIP3    H243125   6.134   0.476   0.761  1.8596 -1.8349 -0.6354
14390TIP3   OH243126   1.686   6.000   3.982 -0.0234  0.1068  0.0682
14390TIP3    H143127   1.764   5.947   4.002 -0.8979 -1.4683 -0.4983
14390TIP3    H243128   1.692   6.016   3.887 -0.3023  0.1098  0.0498
14391TIP3   OH243129   6.863   6.215   3.809 -0.4089  0.3631 -0.2327
14391TIP3    H143130   6.935   6.157   3.785 -0.6769 -0.2706  0.4751
14391TIP3    H243131   6.811   6.223   3.729 -0.4811 -0.5342 -0.2791
14392TIP3   OH243132   2.302   5.592   0.455 -0.0839 -0.3767 -0.3880
14392TIP3    H143133   2.220   5.570   0.410  0.2556 -1.8606 -0.3132
14392TIP3    H243134   2.361   5.521   0.434  0.8253  0.0880  0.5271
14393TIP3   OH243135   1.121   5.468   3.273 -0.1551  0.0364  0.1446
14393TIP3    H143136   1.148   5.443   3.185  0.1845 -1.5786  0.6667
14393TIP3    H243137   1.157   5.399   3.329  0.6067  1.6069  1.6853
14394TIP3   OH243138   3.098   5.171   5.571  0.0692  0.2134 -0.0710
14394TIP3    H143139   3.142   5.100   5.619  0.5790  0.6433  0.1052
14394TIP3    H243140   3.160   5.243   5.573 -0.1325  0.4209 -0.9169
14395TIP3   OH243141   4.676   4.821   4.019 -0.1644  0.5861  0.4057
14395TIP3    H143142   4.734   4.745   4.029 -1.1971 -0.2013  0.6547
14395TIP3    H243143   4.715   4.889   4.074  0.6754  0.1713  0.3299
14396TIP3   OH243144   0.589   2.053   0.231 -0.4639  0.1628  0.1184
14396TIP3    H143145   0.574   2.078   0.140 -2.6802 -0.0539  0.3791
14396TIP3    H243146   0.684   2.040   0.237 -0.2242  0.5896 -2.0331
14397TIP3   OH243147   2.327   6.202   6.061  0.1183 -0.3329 -0.0753
14397TIP3    H143148   2.313   6.142   5.987 -0.6938  0.6469 -0.7416
14397TIP3    H243149   2.266   6.274   6.045  1.1125  0.7062  0.6652
14398TIP3   OH243150   2.726   4.070   0.498  0.2299 -0.4714 -0.2445
14398TIP3    H143151   2.765   3.999   0.447  1.3138  0.4699 -0.7852
14398TIP3    H243152   2.796   4.134   0.507 -0.3028 -0.0782  1.4332
14399TIP3   OH243153   7.994   4.054   1.935  0.0037  0.0155  0.0567
14399TIP3    H143154   7.984   4.049   2.031 -0.9222  2.0101  0.1193
14399TIP3    H243155   8.088   4.061   1.921  0.0584  1.2776  0.9478
14400TIP3   OH243156   4.658   7.754   0.771 -0.3516 -0.0620 -0.6383
14400TIP3    H143157   4.593   7.823   0.786 -0.3127  0.0886 -1.1216
14400TIP3    H243158   4.684   7.766   0.680 -1.1526 -1.4130 -1.0772
14401TIP3   OH243159   3.370   7.644   2.353  0.0968 -0.0695 -0.2800
14401TIP3    H143160   3.288   7.685   2.378 -0.5378 -1.4342 -0.0236
14401TIP3    H243161   3.431   7.717   2.343 -0.7338  0.8536  1.0401
14402TIP3   OH243162   6.939   0.498   0.305  0.0808 -0.5002 -0.3666
14402TIP3    H143163   7.024   0.465   0.334  0.1929 -0.8736 -1.0879
14402TIP3    H243164   6.930   0.583   0.347  0.8392 -0.4309 -0.3310
14403TIP3   OH243165   1.120   1.121   3.269 -0.2702 -0.0971 -0.3519
14403TIP3    H143166   1.107   1.042   3.217  1.6003  0.1351 -1.2646
14403TIP3    H243167   1.082   1.191   3.216  1.2985  0.0839 -1.3296
14404TIP3   OH243168   1.594   0.047   5.389 -0.2726  0.0391 -0.0510
14404TIP3    H143169   1.651   0.117   5.357  0.6730 -0.5470  0.3152
14404TIP3    H243170   1.644  -0.033   5.375 -1.8601 -0.7381 -1.6814
14405TIP3   OH243171   0.568   5.786   2.123 -0.1311 -0.0931 -0.5217
14405TIP3    H143172   0.524   5.814   2.204  0.2010 -2.5495  0.5846
14405TIP3    H243173   0.649   5.744   2.153  0.3382 -0.4303 -2.1806
14406TIP3   OH243174   0.710   7.328   0.771  0.3894 -0.2341 -0.1922
14406TIP3    H143175   0.627   7.374   0.783 -0.3196 -1.3105 -0.7426
14406TIP3    H243176   0.754   7.335   0.855 -1.0345 -1.0982  0.6664
14407TIP3   OH243177   4.830   4.768   5.912 -0.3836  0.0951 -0.1547
14407TIP3    H143178   4.746   4.811   5.926 -0.3475 -0.0528  0.6090
14407TIP3    H243179   4.839   4.761   5.817  0.9511  4.3808 -0.5308
14408TIP3   OH243180   5.538   5.948   0.520  0.2775 -0.3940  0.1464
14408TIP3    H143181   5.599   6.019   0.540  1.1568 -0.5132 -1.8149
14408TIP3    H243182   5.454   5.992   0.507  0.5496  0.1370  0.1680
14409TIP3   OH243183   7.056   3.442   2.622 -0.1769 -0.3434  0.6330
14409TIP3    H143184   7.136   3.400   2.652  1.6666 -0.1028 -3.2619
14409TIP3    H243185   7.068   3.535   2.644  0.0579 -0.4991  1.1594
14410TIP3   OH243186   3.679   4.384   4.461 -0.0047  0.2351 -0.1363
14410TIP3    H143187   3.703   4.458   4.406 -0.4619  0.7654  0.3623
14410TIP3    H243188   3.583   4.391   4.469  0.2241  1.6764  2.7689
14411TIP3   OH243189   0.737   1.192   1.068 -0.1573 -0.1354 -0.7469
14411TIP3    H143190   0.716   1.259   1.133 -0.2307 -2.8635  2.2295
14411TIP3    H243191   0.653   1.173   1.026 -0.2199  1.2159 -1.3010
14412TIP3   OH243192   4.818   0.693   0.451 -0.0842  0.1738  0.0171
14412TIP3    H143193   4.779   0.727   0.532 -2.0217 -1.2712 -0.2516
14412TIP3    H243194   4.804   0.762   0.387  1.7240  1.4597  0.9117
14413TIP3   OH243195   6.936   5.962   1.544 -0.4151 -0.7662  0.1020
14413TIP3    H143196   6.880   5.933   1.471  0.4130  0.1420 -0.9310
14413TIP3    H243197   7.001   6.019   1.503 -0.0987  0.0103  1.6072
14414TIP3   OH243198   4.890   0.084   2.448  0.2886  0.0643  0.1469
14414TIP3    H143199   4.814   0.052   2.496  0.2492 -1.5728 -0.9140
14414TIP3    H243200   4.910   0.013   2.386 -0.4012  2.5013 -3.1179
14415TIP3   OH243201   5.334   3.347   0.270  0.0575 -0.1033  0.8694
14415TIP3    H143202   5.330   3.296   0.351  0.4474  1.8644  2.2316
14415TIP3    H243203   5.243   3.362   0.246 -0.0811 -2.5539 -0.3814
14416TIP3   OH243204   7.494   7.434   5.770 -0.4319  0.5346  0.0344
14416TIP3    H143205   7.443   7.369   5.721  1.5578 -0.1947 -1.1708
14416TIP3    H243206   7.562   7.462   5.709  0.9176  1.1074  1.7282
14417TIP3   OH243207   1.442   5.747   1.326  0.0628 -0.0039  0.1876
14417TIP3    H143208   1.512   5.809   1.305  0.9007 -0.5670  1.1958
14417TIP3    H243209   1.365   5.801   1.339  0.5531  0.7374  0.0998
14418TIP3   OH243210   4.111   7.775   2.104  0.2159 -0.2004 -0.3767
14418TIP3    H143211   4.143   7.845   2.161  1.6248 -2.5487  1.9465
14418TIP3    H243212   4.189   7.743   2.058 -0.3678 -0.4024 -1.2572
14419TIP3   OH243213   3.445   0.701   3.209  0.1583  0.1806  0.6843
14419TIP3    H143214   3.350   0.696   3.215  0.0302  1.3244 -0.0327
14419TIP3    H243215   3.475   0.702   3.300 -0.4686 -0.6778  0.9153
14420TIP3   OH243216   0.531   0.121   5.984 -0.2393 -0.1233 -0.3563
14420TIP3    H143217   0.568   0.165   5.908  0.3266 -0.4942 -0.3022
14420TIP3    H243218   0.508   0.192   6.044  0.2835  0.1203 -0.4388
14421TIP3   OH243219   4.326   6.181   6.269  0.1034 -0.0684 -0.8347
14421TIP3    H143220   4.356   6.110   6.325 -1.3844  0.5465  0.8433
14421TIP3    H243221   4.354   6.156   6.181  1.4137 -1.6945 -0.0131
14422TIP3   OH243222   4.192   0.343   1.727 -0.2680 -0.1767 -0.1678
14422TIP3    H143223   4.189   0.423   1.781 -0.5040  0.0993 -0.5890
14422TIP3    H243224   4.279   0.306   1.745 -0.2648  0.0236  0.2441
14423TIP3   OH243225   2.093   4.369   4.294  0.9110  0.0157  0.0688
14423TIP3    H143226   2.172   4.325   4.325  1.5900 -0.6100 -2.2934
14423TIP3    H243227   2.025   4.302   4.297  1.1867 -0.3082 -0.5356
14424TIP3   OH243228   5.841   4.091   4.885 -0.7962  0.0394 -0.1688
14424TIP3    H143229   5.780   4.104   4.958 -1.4028  0.4342 -0.7392
14424TIP3    H243230   5.927   4.095   4.926 -1.0652  1.9637  0.3027
14425TIP3   OH243231   1.259   0.608   2.013  0.1090  0.0833  0.1560
14425TIP3    H143232   1.275   0.703   2.011  1.8071 -0.1828 -0.6017
14425TIP3    H243233   1.278   0.579   1.924  0.4175 -1.0871  0.5883
14426TIP3   OH243234   6.767   6.008   0.339  0.3349  0.1439 -0.6606
14426TIP3    H143235   6.679   6.044   0.349 -0.1145 -0.8597 -0.8872
14426TIP3    H243236   6.814   6.039   0.416 -0.9676 -1.4376  0.8431
14427TIP3   OH243237   7.144   2.789   4.130 -0.3172  0.1055 -0.4446
14427TIP3    H143238   7.074   2.824   4.075  0.4531 -0.3821 -1.8109
14427TIP3    H243239   7.150   2.850   4.203 -1.2730  0.8954 -0.9924
14428TIP3   OH243240   7.503   6.069   5.635 -0.0867  0.0975  0.2612
14428TIP3    H143241   7.524   6.124   5.559 -0.6364 -0.7103 -0.4973
14428TIP3    H243242   7.587   6.031   5.660  0.1778  0.7377  0.3501
14429TIP3   OH243243   1.402   6.846   3.117 -0.0249  0.6267  0.1599
14429TIP3    H143244   1.443   6.915   3.066 -1.7811  0.8459 -1.0670
14429TIP3    H243245   1.461   6.831   3.190  1.8039  1.4069 -1.0962
14430TIP3   OH243246   2.539   1.095   3.854 -0.3437 -0.1643 -0.0988
14430TIP3    H143247   2.623   1.132   3.881  0.2489 -2.0416  0.8662
14430TIP3    H243248   2.475   1.137   3.912  0.5087 -1.7148  2.1244
14431TIP3   OH243249   6.657   1.242   0.038 -0.4008 -0.5155  1.0237
14431TIP3    H143250   6.610   1.198   0.109 -0.7308 -1.5629  0.1923
14431TIP3    H243251   6.701   1.171  -0.009  0.5308  0.2564  0.7039
14432TIP3   OH243252   0.032   3.671   6.501  0.3840 -0.3604  0.2268
14432TIP3    H143253   0.057   3.757   6.465 -0.6637  0.1092  0.5747
14432TIP3    H243254   0.100   3.651   6.565  0.1344  0.6711  0.8361
14433TIP3   OH243255   5.078   0.540   4.348  0.2918 -0.1251  0.0226
14433TIP3    H143256   5.083   0.630   4.318 -0.7936  0.0503  0.3160
14433TIP3    H243257   5.069   0.488   4.268 -0.3430  0.1420 -0.0857
14434TIP3   OH243258   2.766   6.485   2.813  0.1608  0.6319 -0.2821
14434TIP3    H143259   2.793   6.402   2.775 -2.0390 -1.1137  1.6287
14434TIP3    H243260   2.685   6.507   2.768 -0.0152  0.9742  0.1880
14435TIP3   OH243261   4.035   1.198   6.240 -0.0421  0.8022  0.0012
14435TIP3    H143262   3.984   1.253   6.181  1.1168  1.9854  0.0482
14435TIP3    H243263   4.088   1.143   6.182 -0.4132  0.4988 -0.0503
14436TIP3   OH243264   2.256   1.595   4.034 -0.1107 -0.1941  0.0316
14436TIP3    H143265   2.278   1.556   3.949 -0.9220 -0.7601  0.0648
14436TIP3    H243266   2.288   1.533   4.099  1.4604  0.7411  0.1926
14437TIP3   OH243267   7.581   7.415   4.733 -0.4243  0.4940 -0.0286
14437TIP3    H143268   7.603   7.466   4.811 -0.3908 -1.0734  1.0172
14437TIP3    H243269   7.486   7.419   4.729 -0.4128  0.7807 -0.0527
14438TIP3   OH243270   5.897   1.164   6.223 -0.0408  0.1745 -0.2348
14438TIP3    H143271   5.849   1.194   6.146  0.2006 -0.5329 -0.6735
14438TIP3    H243272   5.852   1.205   6.297 -2.1616 -1.4516 -0.5240
14439TIP3   OH243273   6.280   7.810   3.348 -0.2718  0.4784 -0.6855
14439TIP3    H143274   6.199   7.861   3.344 -0.1615  0.6058 -1.4565
14439TIP3    H243275   6.256   7.723   3.317 -0.4379  0.0624  0.5399
14440TIP3   OH243276   7.009   0.820   5.000  0.0920  0.0420 -0.3992
14440TIP3    H143277   6.975   0.856   5.082  1.2945  2.2896 -0.8149
14440TIP3    H243278   7.087   0.769   5.027 -2.3858 -3.7874  0.3602
14441TIP3   OH243279   5.382   3.806   5.973 -0.1398 -0.1553  0.4325
14441TIP3    H143280   5.446   3.831   5.906 -0.6808 -0.1887 -0.0985
14441TIP3    H243281   5.326   3.883   5.982  0.5839  0.2632  1.6478
14442TIP3   OH243282   4.983   6.469   5.721 -0.3338  0.2662 -0.1318
14442TIP3    H143283   4.941   6.506   5.799  0.2407 -1.6894  1.1681
14442TIP3    H243284   4.924   6.398   5.694  0.0358  0.2145 -0.8148
14443TIP3   OH243285   4.506   1.433   2.158 -0.0872 -0.0592 -0.1755
14443TIP3    H143286   4.493   1.497   2.088 -0.2316  0.7116  0.5328
14443TIP3    H243287   4.473   1.477   2.237  0.5849 -0.6855  0.4722
14444TIP3   OH243288   8.033   3.004   1.198 -0.1381 -0.2690  0.1616
14444TIP3    H143289   8.044   3.064   1.125 -0.8083  1.1213  1.1525
14444TIP3    H243290   8.117   2.960   1.206  0.7792  1.3985  0.1158
14445TIP3   OH243291   4.757   2.316   5.226  0.2499 -0.5971 -0.0390
14445TIP3    H143292   4.816   2.342   5.155 -1.0695 -1.2861 -1.4426
14445TIP3    H243293   4.720   2.398   5.257 -0.2721 -0.3944 -1.1675
14446TIP3   OH243294   0.058   1.557   3.749  0.2139 -0.7082  0.3329
14446TIP3    H143295   0.152   1.544   3.763  0.2789 -0.3215  0.2627
14446TIP3    H243296   0.046   1.652   3.756 -0.3739 -0.8570  1.5864
14447TIP3   OH243297   7.878   7.039   4.569  0.9873 -0.2921  0.2557
14447TIP3    H143298   7.938   7.112   4.557 -0.0414  0.3569 -1.2640
14447TIP3    H243299   7.816   7.069   4.635  0.7872  0.0792 -0.0962
14448TIP3   OH243300   1.395   7.124   1.177  0.1155  0.0874 -0.1200
14448TIP3    H143301   1.381   7.034   1.209 -0.1608 -0.0900 -0.7381
14448TIP3    H243302   1.376   7.120   1.084 -0.7234  0.9774 -0.0021
14449TIP3   OH243303   2.890   0.762   3.210 -0.1587  0.2734 -0.2788
14449TIP3    H143304   2.886   0.848   3.252  0.5721 -0.0842  0.5525
14449TIP3    H243305   2.800   0.746   3.181 -0.2993  1.3273 -0.4879
14450TIP3   OH243306   5.477   1.661   0.043 -0.0669 -0.0143 -0.7286
14450TIP3    H143307   5.403   1.632   0.096  0.1822 -0.1110 -0.4294
14450TIP3    H243308   5.438   1.715  -0.026 -0.4216 -0.1318 -0.6226
14451TIP3   OH243309   2.980   4.692   4.146  0.0649 -0.5330 -0.2098
14451TIP3    H143310   2.899   4.728   4.108 -1.0673 -0.6372  1.9472
14451TIP3    H243311   3.038   4.681   4.071 -2.1805 -1.1730 -1.9847
14452TIP3   OH243312   8.257   4.479   5.530 -0.4632  0.4573  0.0352
14452TIP3    H143313   8.323   4.543   5.503  0.2135 -1.1699 -2.5305
14452TIP3    H243314   8.180   4.500   5.478 -1.1145  0.7284  1.0858
14453TIP3   OH243315   0.985   4.433   4.225 -0.7043  0.0246  0.2133
14453TIP3    H143316   0.907   4.452   4.277 -0.5920 -0.0248  0.4017
14453TIP3    H243317   1.058   4.465   4.278 -0.6531  0.7863 -0.3147
14454TIP3   OH243318   1.581   3.912   0.748 -0.1874 -0.3131 -0.5785
14454TIP3    H143319   1.517   3.982   0.740  1.0184  1.7664  4.1210
14454TIP3    H243320   1.538   3.846   0.802  0.8228  0.1842  0.9186
14455TIP3   OH243321   2.469   6.753   1.509  0.3492 -0.4590 -0.1879
14455TIP3    H143322   2.382   6.783   1.481  1.0927  0.9506 -1.1108
14455TIP3    H243323   2.477   6.666   1.470  0.3521  0.4428 -2.3542
14456TIP3   OH243324   8.028   5.506   0.471 -0.2432  0.3986  0.4444
14456TIP3    H143325   7.933   5.510   0.462 -0.3049  2.4894  1.5410
14456TIP3    H243326   8.043   5.505   0.566  0.8321 -0.7781  0.2914
14457TIP3   OH243327   4.126   2.807   3.236 -0.4324  0.4524  0.0773
14457TIP3    H143328   4.088   2.871   3.297 -1.9138 -0.1024 -0.2311
14457TIP3    H243329   4.216   2.796   3.267 -0.2516  2.3692  0.3823
14458TIP3   OH243330   4.553   5.682   2.479  0.2764 -0.0565  0.3061
14458TIP3    H143331   4.516   5.754   2.529 -0.2205  0.2020 -0.4227
14458TIP3    H243332   4.638   5.665   2.520  0.3868  0.9267  0.4969
14459TIP3   OH243333   7.485   5.457   2.682  0.0038 -0.3369 -0.8965
14459TIP3    H143334   7.524   5.508   2.610 -0.2894  1.8423  0.3834
14459TIP3    H243335   7.561   5.423   2.730  0.2073 -1.0901 -1.7206
14460TIP3   OH243336   0.846   4.274   3.300  0.3028  0.0907 -0.1703
14460TIP3    H143337   0.865   4.233   3.215 -1.2765  0.4684 -0.7323
14460TIP3    H243338   0.801   4.206   3.350 -1.5638  0.8169 -0.7968
14461TIP3   OH243339   6.277   3.197   3.798  0.4613  0.1265 -0.6279
14461TIP3    H143340   6.217   3.187   3.871  0.5946  0.1630 -0.5140
14461TIP3    H243341   6.327   3.276   3.818  0.0594  0.5015 -1.0678
14462TIP3   OH243342   4.373   6.741   0.884  0.4105  0.4874 -0.1958
14462TIP3    H143343   4.418   6.697   0.956  1.4977 -0.4653 -1.4276
14462TIP3    H243344   4.402   6.832   0.890  0.5875  0.3880  0.4919
14463TIP3   OH243345   3.552   4.492   6.387 -0.7456  0.1791  0.0975
14463TIP3    H143346   3.477   4.442   6.419 -0.5287 -0.1320  0.1232
14463TIP3    H243347   3.603   4.513   6.466 -0.4480 -0.2005  0.0104
14464TIP3   OH243348   2.544   3.040   6.759 -0.4235  0.1462  0.0091
14464TIP3    H143349   2.466   3.071   6.712  0.2087  2.1351  0.1923
14464TIP3    H243350   2.616   3.055   6.698 -0.1443 -1.9065 -0.2565
14465TIP3   OH243351   1.267   3.385   0.556  0.1275 -0.5530 -0.3595
14465TIP3    H143352   1.313   3.303   0.575  0.4088 -0.0942  1.0860
14465TIP3    H243353   1.337   3.451   0.551 -0.1071 -0.3702 -1.3942
14466TIP3   OH243354   8.061   2.332   3.763  0.7295  0.2958  0.2512
14466TIP3    H143355   8.086   2.327   3.855 -0.7788  0.0517  0.6828
14466TIP3    H243356   8.045   2.425   3.748  2.5439  0.5728 -0.2530
14467TIP3   OH243357   5.256   2.789   2.314 -0.4991  0.0582 -0.0422
14467TIP3    H143358   5.242   2.716   2.253  0.4256 -1.0107  0.9673
14467TIP3    H243359   5.170   2.831   2.320 -0.9990 -0.7824 -0.8560
14468TIP3   OH243360   0.664   0.334   4.052  0.0975  0.2245  0.7266
14468TIP3    H143361   0.674   0.323   3.958 -0.9834 -0.9778  0.7355
14468TIP3    H243362   0.747   0.303   4.089 -0.5957 -2.2671  0.3361
14469TIP3   OH243363   1.608   2.718   1.183 -0.2987 -0.5511  0.2016
14469TIP3    H143364   1.601   2.630   1.145 -1.2658  0.1922 -1.4596
14469TIP3    H243365   1.626   2.703   1.276 -0.7932 -2.4988  0.0212
14470TIP3   OH243366   7.206   3.875   5.868  0.3337 -0.4629  0.3861
14470TIP3    H143367   7.176   3.866   5.777  0.5737 -0.1615  0.2752
14470TIP3    H243368   7.246   3.791   5.889 -1.7258 -1.3726  0.9719
14471TIP3   OH243369   0.353   7.776   0.218  0.6614  0.2993  0.3314
14471TIP3    H143370   0.343   7.871   0.213  1.6958  0.5128  1.5419
14471TIP3    H243371   0.350   7.747   0.127 -0.7311  1.3516  0.0012
14472TIP3   OH243372   5.840   1.503   6.237 -0.4802 -0.4567  0.2111
14472TIP3    H143373   5.753   1.542   6.243 -0.2506  0.0749  0.1175
14472TIP3    H243374   5.890   1.543   6.308  0.0392  0.1771 -0.4794
14473TIP3   OH243375   6.915   4.599   2.069  0.4033  0.1857  0.0560
14473TIP3    H143376   6.881   4.651   1.996  2.5746  1.4995 -0.1437
14473TIP3    H243377   6.852   4.613   2.140 -1.0586 -0.0438 -1.1554
14474TIP3   OH243378   4.052   5.868   4.257  0.0777 -0.1877  0.1692
14474TIP3    H143379   4.069   5.774   4.248 -0.9619 -0.3905  0.1393
14474TIP3    H243380   3.988   5.874   4.329 -3.3722  0.0040 -2.6085
14475TIP3   OH243381   1.744   2.634   3.950 -0.0068 -0.4592 -0.2220
14475TIP3    H143382   1.789   2.660   4.031 -1.2207  0.4556  0.1859
14475TIP3    H243383   1.799   2.668   3.880 -0.1177  0.7910  0.2691
14476TIP3   OH243384   0.924   1.002   6.335  0.1385  0.1519  0.1589
14476TIP3    H143385   0.923   1.053   6.415 -0.7346 -0.8410  0.8159
14476TIP3    H243386   0.852   1.038   6.283  0.8112  0.9057 -0.2596
14477TIP3   OH243387   0.026   0.772   6.425 -0.1747  0.0075 -0.2336
14477TIP3    H143388   0.037   0.680   6.450  1.0442  0.7408  2.2656
14477TIP3    H243389  -0.053   0.773   6.372 -1.3674 -2.2322  1.3193
14478TIP3   OH243390   3.280   6.433   4.709 -0.2287  0.4009  0.5726
14478TIP3    H143391   3.352   6.463   4.653 -0.0286 -0.6833  0.2394
14478TIP3    H243392   3.255   6.511   4.758  2.2966  0.4378  1.9593
14479TIP3   OH243393   0.945   4.510   2.303 -0.0831  0.5954  0.0708
14479TIP3    H143394   0.921   4.425   2.340  0.1392 -0.2128 -1.5475
14479TIP3    H243395   1.038   4.519   2.325 -0.9840  2.5332  4.0653
14480TIP3   OH243396   6.285   1.964   1.640  0.3438 -0.7803 -0.5105
14480TIP3    H143397   6.295   1.869   1.632 -0.0266 -0.9457  0.6880
14480TIP3    H243398   6.204   1.975   1.690  0.0126  0.1941 -1.2289
14481TIP3   OH243399   1.153   4.613   4.328 -0.2185 -0.1362 -0.1973
14481TIP3    H143400   1.226   4.660   4.288 -2.4361  2.1507 -1.8614
14481TIP3    H243401   1.177   4.605   4.420  1.9575  0.8389 -0.6273
14482TIP3   OH243402   8.027   1.713   3.846 -0.3225 -0.3493 -0.2362
14482TIP3    H143403   8.107   1.661   3.847  1.8110  2.6091  1.9437
14482TIP3    H243404   8.012   1.733   3.753  1.6228 -0.7839 -0.6875
14483TIP3   OH243405   3.494   7.104   6.200  0.2356  0.0473 -0.0094
14483TIP3    H143406   3.427   7.076   6.138  0.5976  3.1907 -2.0057
14483TIP3    H243407   3.447   7.119   6.281 -1.0212 -0.1604 -0.6699
14484TIP3   OH243408   3.561   5.268   6.392 -0.2023  0.1457 -0.0469
14484TIP3    H143409   3.472   5.276   6.359  0.0938  1.5846 -0.5913
14484TIP3    H243410   3.551   5.238   6.482 -1.0994 -2.1804 -0.8453
14485TIP3   OH243411   1.247   0.612   5.351 -0.3057  0.7335 -0.8175
14485TIP3    H143412   1.242   0.559   5.271 -3.3402 -0.6536  0.1589
14485TIP3    H243413   1.159   0.647   5.362  0.5316  2.4565  0.9557
14486TIP3   OH243414   0.302   0.516   3.613 -0.2330 -0.4576  0.2134
14486TIP3    H143415   0.275   0.565   3.690  0.5407 -0.7607  0.6896
14486TIP3    H243416   0.351   0.441   3.648  0.8343 -0.1557 -0.5822
14487TIP3   OH243417   2.377   4.661   4.513  0.4313  0.3417  0.5297
14487TIP3    H143418   2.461   4.663   4.560  0.0096 -1.8216  1.5276
14487TIP3    H243419   2.322   4.602   4.566 -0.9850 -0.0024 -1.2459
14488TIP3   OH243420   4.691   4.227   2.556  0.8651 -0.0706 -0.1019
14488TIP3    H143421   4.777   4.233   2.515  1.2437  0.5004  0.7473
14488TIP3    H243422   4.651   4.313   2.539  0.6718 -0.1459 -0.0269
14489TIP3   OH243423   1.469   2.153   1.285  0.5325 -0.3679 -0.4620
14489TIP3    H143424   1.458   2.248   1.278 -0.7631 -0.4168  0.5030
14489TIP3    H243425   1.463   2.135   1.379  0.8117 -1.4076 -0.6291
14490TIP3   OH243426   0.602   4.778   5.171 -0.0360  0.3751 -0.4893
14490TIP3    H143427   0.531   4.838   5.197 -1.4291 -1.5562  0.3965
14490TIP3    H243428   0.563   4.691   5.178  2.0261 -0.6712 -1.4150
14491TIP3   OH243429   5.890   6.469   6.519 -0.3167  0.0184  0.0971
14491TIP3    H143430   5.933   6.546   6.556 -0.5025  0.0853  0.1699
14491TIP3    H243431   5.861   6.497   6.432  0.4157 -0.2362 -0.2447
14492TIP3   OH243432   2.763   5.164   0.085  0.0965  0.1473 -0.3170
14492TIP3    H143433   2.824   5.212   0.141 -0.5598  1.2679 -0.5245
14492TIP3    H243434   2.817   5.101   0.038  0.4421 -2.0895  2.8128
14493TIP3   OH243435   4.942   2.464   5.498 -1.1551 -0.8284  0.7685
14493TIP3    H143436   4.860   2.485   5.454 -0.9101 -0.6099  0.4111
14493TIP3    H243437   4.996   2.423   5.429 -0.7002 -0.3113  0.8139
14494TIP3   OH243438   0.272   4.392   3.092 -0.0117  0.3542  0.1176
14494TIP3    H143439   0.315   4.460   3.143  1.1147  0.1282 -0.5139
14494TIP3    H243440   0.343   4.347   3.046 -0.8959 -0.1563 -0.7895
14495TIP3   OH243441   5.114   3.776   5.755 -0.0314 -0.2318 -0.4115
14495TIP3    H143442   5.036   3.721   5.761 -0.1526  0.0113  0.4591
14495TIP3    H243443   5.187   3.715   5.746 -0.2757 -0.4746 -0.8048
14496TIP3   OH243444   0.968   5.249   4.845 -0.0709 -0.8367  0.4968
14496TIP3    H143445   0.987   5.164   4.804  0.9621 -0.1754 -0.4505
14496TIP3    H243446   0.874   5.261   4.834  0.1047 -0.8397 -1.4432
14497TIP3   OH243447   0.209   4.301   3.380  0.5278 -0.3496  0.6466
14497TIP3    H143448   0.151   4.295   3.305  2.0542  1.1150 -0.7332
14497TIP3    H243449   0.281   4.241   3.361 -0.8779 -2.9720  2.8299
14498TIP3   OH243450   6.408   1.551   2.022 -0.2525  0.3438 -0.1987
14498TIP3    H143451   6.455   1.629   1.995  1.3569 -1.0952 -1.8250
14498TIP3    H243452   6.450   1.525   2.105 -1.3099  1.5666  0.7573
14499TIP3   OH243453   2.772   2.389   3.746 -0.6675  0.4356 -0.5981
14499TIP3    H143454   2.690   2.344   3.766 -0.6879  1.0476  0.8012
14499TIP3    H243455   2.769   2.402   3.651 -1.1115 -1.5899 -0.9104
14500TIP3   OH243456   0.888   2.788   5.671  0.1875  0.1222  0.2691
14500TIP3    H143457   0.894   2.814   5.579 -0.7436  4.0506  1.1521
14500TIP3    H243458   0.871   2.694   5.667  0.8474 -0.0203 -3.5200
14501TIP3   OH243459   5.598   2.593   4.847  0.9248  0.2819  0.8049
14501TIP3    H143460   5.573   2.627   4.933  1.9410 -0.7206  1.5306
14501TIP3    H243461   5.693   2.592   4.848  0.9604 -1.4198  0.3878
14502TIP3   OH243462   1.547   6.263   0.536 -0.4821  0.4042 -0.4498
14502TIP3    H143463   1.608   6.331   0.566 -1.0436 -0.2894  2.6489
14502TIP3    H243464   1.603   6.198   0.492  1.1728 -0.2619  2.3555
14503TIP3   OH243465   1.217   1.634   4.233 -0.3451 -0.2582  0.5913
14503TIP3    H143466   1.234   1.608   4.142 -0.9672 -1.1109  0.6958
14503TIP3    H243467   1.292   1.687   4.258 -0.0185 -0.2699 -0.3276
14504TIP3   OH243468   6.125   4.742   1.411 -0.4240  0.3405 -0.2755
14504TIP3    H143469   6.136   4.822   1.462 -0.2667  0.1717 -0.0417
14504TIP3    H243470   6.146   4.671   1.472 -0.6718  0.1139 -0.4478
14505TIP3   OH243471   4.582   2.104   6.018  0.1128  0.1543 -0.1750
14505TIP3    H143472   4.633   2.024   6.032 -0.0365 -0.1396 -1.1920
14505TIP3    H243473   4.604   2.160   6.092 -0.7278 -1.2982  1.2448
14506TIP3   OH243474   6.309   3.476   6.304  0.1457  0.3227 -0.5999
14506TIP3    H143475   6.314   3.476   6.208 -1.4188 -0.8563 -0.7306
14506TIP3    H243476   6.251   3.402   6.324  1.5987 -0.3455  1.3398
14507TIP3   OH243477   4.231   5.054   0.327  0.2139 -0.6849  0.0075
14507TIP3    H143478   4.212   5.048   0.234  0.7026  0.2173 -0.1610
14507TIP3    H243479   4.159   5.008   0.370 -0.7969  0.1712 -0.7489
14508TIP3   OH243480   3.494   2.277   5.239 -0.1461  0.1198 -0.4044
14508TIP3    H143481   3.471   2.369   5.235 -0.5281  0.0127 -0.7722
14508TIP3    H243482   3.582   2.275   5.277  0.6808  0.7673 -2.1474
14509TIP3   OH243483   8.273   3.953   5.042  0.6418  0.3258  0.8036
14509TIP3    H143484   8.292   3.860   5.028 -2.1393  0.0714 -2.5577
14509TIP3    H243485   8.285   3.992   4.956 -0.2915  2.6866  1.6788
14510TIP3   OH243486   5.565   4.119   5.654  0.3403  0.2059  0.5807
14510TIP3    H143487   5.522   4.046   5.610 -2.4169  1.4312  0.9942
14510TIP3    H243488   5.602   4.081   5.734 -0.2083 -0.8950  0.3254
14511TIP3   OH243489   2.234   3.147   3.696 -0.2838 -0.1215  0.1276
14511TIP3    H143490   2.239   3.200   3.776 -0.8011  1.0039 -0.5531
14511TIP3    H243491   2.143   3.156   3.668 -0.4126 -1.4829  0.0401
14512TIP3   OH243492   1.929   1.168   1.750 -1.0557  0.0077  0.3205
14512TIP3    H143493   1.973   1.182   1.666 -0.8860 -1.9083  0.0531
14512TIP3    H243494   1.985   1.106   1.797 -2.1731 -0.5238  1.0114
14513TIP3   OH243495   4.781   5.126   3.483  0.1861 -0.4190  0.4428
14513TIP3    H143496   4.699   5.080   3.499  0.1741 -0.5262  0.0637
14513TIP3    H243497   4.846   5.056   3.474  0.1061 -0.3770 -0.4933
14514TIP3   OH243498   3.719   7.402   1.389 -0.2568 -0.1767  0.3196
14514TIP3    H143499   3.789   7.424   1.450 -0.5699  1.0598  0.2639
14514TIP3    H243500   3.645   7.378   1.446 -0.1035 -0.4586  0.3990
14515TIP3   OH243501   6.116   1.468   4.002  0.2307 -0.5728  0.0758
14515TIP3    H143502   6.185   1.467   4.068 -0.5074 -1.1994  0.8593
14515TIP3    H243503   6.049   1.526   4.037  0.0745 -0.4765 -0.3751
14516TIP3   OH243504   4.476   5.183   3.490  0.4001 -0.1035  0.6871
14516TIP3    H143505   4.533   5.229   3.552  0.6301 -0.4814  0.7597
14516TIP3    H243506   4.436   5.113   3.542  0.5318 -0.3716  0.4318
14517TIP3   OH243507   2.581   0.740   4.553 -0.0296 -0.2837 -0.1277
14517TIP3    H143508   2.496   0.751   4.597 -0.3661  0.0420 -0.8554
14517TIP3    H243509   2.592   0.819   4.501  1.3865  0.3432  1.0417
14518TIP3   OH243510   1.377   4.370   5.790  0.0990 -0.1972  0.4213
14518TIP3    H143511   1.300   4.406   5.833 -0.4509  1.3118 -1.6869
14518TIP3    H243512   1.450   4.423   5.823 -0.3179  0.9567 -0.4456
14519TIP3   OH243513   2.648   2.359   1.270  0.2664  0.4139  0.4652
14519TIP3    H143514   2.671   2.448   1.244 -0.6353  0.5583  0.1015
14519TIP3    H243515   2.619   2.317   1.189 -0.1824  0.0759  0.7909
14520TIP3   OH243516   3.717   0.721   4.747 -0.2533 -0.5327 -0.2145
14520TIP3    H143517   3.769   0.664   4.804 -1.3176 -0.7912  0.5265
14520TIP3    H243518   3.677   0.663   4.683  1.1349 -0.2125 -1.4274
14521TIP3   OH243519   7.178   1.887   3.244  0.2280  0.1155 -0.3012
14521TIP3    H143520   7.135   1.925   3.321 -1.0658  0.7624 -1.2925
14521TIP3    H243521   7.141   1.799   3.237  0.1925  0.1296 -0.2912
14522TIP3   OH243522   3.775   2.927   5.788  0.1109  0.6096  0.1613
14522TIP3    H143523   3.775   2.900   5.879 -3.1647 -0.1963  0.0512
14522TIP3    H243524   3.852   2.983   5.779  0.9006  0.1628  3.1998
14523TIP3   OH243525   1.191   1.178   6.296 -0.3355 -0.5734  0.4181
14523TIP3    H143526   1.098   1.174   6.274  0.3243 -2.5302 -2.6756
14523TIP3    H243527   1.200   1.121   6.372 -1.6171 -0.5520  0.6153
14524TIP3   OH243528   0.942   0.133   6.730  0.8020  0.5660 -0.0042
14524TIP3    H143529   0.988   0.212   6.758  1.3641  0.8200 -1.5754
14524TIP3    H243530   0.960   0.069   6.799  0.3942  1.7644  1.2473
14525TIP3   OH243531   0.830   6.114   2.105  0.0915  0.0507  0.2224
14525TIP3    H143532   0.862   6.113   2.015  0.2135  1.2663  0.2349
14525TIP3    H243533   0.737   6.096   2.098  0.4161 -1.7979  0.0411
14526TIP3   OH243534   5.075   4.228   4.892  0.1116 -0.3418  0.4364
14526TIP3    H143535   5.047   4.137   4.902  0.7148 -0.4158  1.5727
14526TIP3    H243536   5.149   4.223   4.832  1.0075 -0.7889  1.5388
14527TIP3   OH243537   4.242   4.552   2.562  0.2444 -0.6481  0.2900
14527TIP3    H143538   4.166   4.498   2.540 -1.8055  1.6599  1.2557
14527TIP3    H243539   4.229   4.577   2.653  1.9267  0.2471  0.3365
14528TIP3   OH243540   0.410   4.769   3.447  0.2692 -0.0834 -0.9375
14528TIP3    H143541   0.333   4.810   3.485 -0.1127 -1.9284  0.3997
14528TIP3    H243542   0.481   4.832   3.462 -0.7078  1.0632 -1.0225
14529TIP3   OH243543   7.046   7.653   0.231  0.6200  0.5716 -0.5313
14529TIP3    H143544   7.006   7.597   0.165  1.3638  1.0733 -1.4467
14529TIP3    H243545   6.973   7.685   0.284  0.1216 -0.6979 -0.4259
14530TIP3   OH243546   6.958   5.175   6.054  0.4120 -0.1625  0.4055
14530TIP3    H143547   7.036   5.214   6.014  0.5972  0.3342  1.2177
14530TIP3    H243548   6.918   5.123   5.984  0.8474  0.4942 -0.3460
14531TIP3   OH243549   1.000   4.363   1.286  0.0619 -0.1372 -0.2994
14531TIP3    H143550   1.012   4.453   1.316 -1.7319  0.1227 -0.2317
14531TIP3    H243551   1.033   4.364   1.196 -0.7815  0.8563 -0.6284
14532TIP3   OH243552   0.342   3.269   1.275  0.5947 -0.2991  0.3668
14532TIP3    H143553   0.281   3.267   1.349 -0.5082 -1.2745 -0.5423
14532TIP3    H243554   0.319   3.349   1.227  0.3205 -0.4418  0.2612
14533TIP3   OH243555   0.755   1.475   6.701 -0.0973  0.0966 -0.6982
14533TIP3    H143556   0.768   1.545   6.637 -1.0774 -0.3946 -1.4556
14533TIP3    H243557   0.729   1.399   6.649  3.1304 -1.5526 -0.1871
14534TIP3   OH243558   5.114   2.392   4.713 -0.1653  0.0271  0.1513
14534TIP3    H143559   5.045   2.412   4.650 -0.9154 -2.0832  0.2028
14534TIP3    H243560   5.100   2.299   4.735  1.2493  0.1782  1.9599
14535TIP3   OH243561   0.480   3.695   6.645 -0.1336  0.1355  0.4109
14535TIP3    H143562   0.519   3.618   6.604 -2.2258  0.1812 -1.8738
14535TIP3    H243563   0.555   3.753   6.663  1.1338 -0.9875 -0.9987
14536TIP3   OH243564   1.693   3.111   2.713  0.3941  0.0099 -0.7027
14536TIP3    H143565   1.628   3.056   2.756 -0.2318  1.1796 -0.1047
14536TIP3    H243566   1.777   3.068   2.731 -0.1827 -1.6112 -1.6288
14537TIP3   OH243567   5.913   0.272   3.127 -0.4259 -0.0925  0.3162
14537TIP3    H143568   5.987   0.279   3.066 -2.0470 -1.0102 -1.8741
14537TIP3    H243569   5.921   0.349   3.183  1.9663  0.0313 -0.0879
14538TIP3   OH243570   0.359   1.673   1.167 -0.6874 -0.4069  0.2765
14538TIP3    H143571   0.336   1.601   1.109  0.6011 -0.5660 -0.0807
14538TIP3    H243572   0.292   1.739   1.151 -0.0285 -0.1785 -1.9193
14539TIP3   OH243573   4.462   1.105   0.056  0.2291 -0.2513 -0.2632
14539TIP3    H143574   4.401   1.117  -0.016 -1.3912  1.5071  1.3028
14539TIP3    H243575   4.540   1.153   0.029 -0.8231  1.4993 -0.3597
14540TIP3   OH243576   3.589   6.722   1.025 -0.2139 -0.0898  0.4674
14540TIP3    H143577   3.617   6.635   1.054 -3.4127 -1.1803  0.6032
14540TIP3    H243578   3.584   6.715   0.930  0.2851  0.2429  0.4086
14541TIP3   OH243579   6.225   4.444   5.963  0.0736  0.0611  0.0367
14541TIP3    H143580   6.216   4.473   6.054 -1.8682  1.1448 -0.4293
14541TIP3    H243581   6.206   4.523   5.912  0.5638 -0.6744 -1.3051
14542TIP3   OH243582   0.219   1.310   0.772 -0.1425 -0.1925 -0.8110
14542TIP3    H143583   0.183   1.363   0.700 -3.6185 -0.0311  0.8482
14542TIP3    H243584   0.267   1.373   0.826 -1.8637  0.7693 -0.3412
14543TIP3   OH243585   2.757   7.473   4.480 -0.0904 -0.3751  0.6940
14543TIP3    H143586   2.709   7.436   4.554 -0.9317 -1.6968 -0.4520
14543TIP3    H243587   2.804   7.398   4.443 -0.1439  0.1345 -0.4474
14544TIP3   OH243588   4.244   5.422   0.737  0.0739 -0.5655 -0.2598
14544TIP3    H143589   4.214   5.446   0.824 -0.4561  1.5461 -0.9660
14544TIP3    H243590   4.336   5.451   0.734 -0.1563  0.1529 -0.6570
14545TIP3   OH243591   1.587   7.279   5.745 -0.3442 -0.2598 -0.0265
14545TIP3    H143592   1.594   7.275   5.841 -0.6152  0.8940  0.0543
14545TIP3    H243593   1.606   7.370   5.724  1.1340 -0.7976 -1.2070
14546TIP3   OH243594   2.438   1.975   2.690  0.0007  0.0285  0.4710
14546TIP3    H143595   2.377   1.903   2.706 -1.6298  1.2641  0.0853
14546TIP3    H243596   2.420   2.037   2.761  0.4940  0.6301  0.0726
14547TIP3   OH243597   4.592   3.858   2.852 -0.1204  0.3371  0.0953
14547TIP3    H143598   4.525   3.794   2.879  0.6277  0.4759  2.5029
14547TIP3    H243599   4.543   3.922   2.801 -1.3395 -0.8798 -0.3575
14548TIP3   OH243600   5.068   2.142   2.829 -0.3417  0.4217  0.3410
14548TIP3    H143601   4.975   2.120   2.830 -0.2224 -0.1433 -0.6018
14548TIP3    H243602   5.070   2.233   2.859 -1.3966  1.1047 -1.4888
14549TIP3   OH243603   3.905   4.630   2.851  0.1609 -0.6528  0.1891
14549TIP3    H143604   3.913   4.641   2.946  0.3043  1.1711 -0.0025
14549TIP3    H243605   3.811   4.621   2.836 -0.0215  0.8058  0.3617
14550TIP3   OH243606   6.641   1.955   0.541 -0.0490 -0.6479 -0.1488
14550TIP3    H143607   6.584   2.013   0.590  0.9268  0.5902 -0.4070
14550TIP3    H243608   6.587   1.879   0.519 -1.3811  0.1914  0.1583
14551TIP3   OH243609   4.912   3.632   3.307  0.0907  0.6686 -0.6403
14551TIP3    H143610   4.873   3.706   3.354  0.0197  1.3678 -1.7603
14551TIP3    H243611   4.969   3.673   3.242 -0.7446 -0.2287 -1.9772
14552TIP3   OH243612   6.106   3.999   4.912  0.3234 -0.1128 -0.2523
14552TIP3    H143613   6.195   3.964   4.906  0.9127  1.1463  0.6623
14552TIP3    H243614   6.114   4.089   4.881 -0.5811  0.1004  0.1235
14553TIP3   OH243615   6.149   0.792   0.961  0.2565 -0.1826  0.8308
14553TIP3    H143616   6.139   0.790   1.056 -0.3449 -0.4345  0.7675
14553TIP3    H243617   6.139   0.701   0.934 -0.3200 -0.0191  0.4609
14554TIP3   OH243618   2.820   4.843   5.514 -0.0832 -0.0446 -0.6587
14554TIP3    H143619   2.768   4.875   5.440  0.0753 -0.2951 -0.8822
14554TIP3    H243620   2.762   4.850   5.589 -0.6832 -0.9425 -1.0175
14555TIP3   OH243621   4.836   4.639   3.728  0.2538 -0.1633  0.0106
14555TIP3    H143622   4.924   4.676   3.721 -0.4891  2.0004  1.1126
14555TIP3    H243623   4.833   4.598   3.814 -0.3884  1.5860  0.8679
14556TIP3   OH243624   5.837   3.090   0.757 -0.1480  0.1159 -0.0030
14556TIP3    H143625   5.742   3.103   0.747 -0.0902 -0.8294 -2.4496
14556TIP3    H243626   5.845   3.019   0.821 -1.0614  0.3858  0.4321
14557TIP3   OH243627   6.032   0.210   0.936 -0.6658 -0.5111 -0.3750
14557TIP3    H143628   5.963   0.193   0.872 -0.5911 -0.5150 -0.4551
14557TIP3    H243629   6.113   0.208   0.884 -0.5297 -1.3351 -0.1443
14558TIP3   OH243630   6.443   4.949   4.513 -0.4105  0.5624 -0.2876
14558TIP3    H143631   6.399   5.017   4.462 -1.4255  0.3076  0.2278
14558TIP3    H243632   6.533   4.950   4.482 -0.9418  0.5781 -1.9308
14559TIP3   OH243633   5.936   4.067   0.502 -0.5240 -0.0207 -0.2390
14559TIP3    H143634   5.959   4.160   0.509  2.2821 -0.6118 -0.5025
14559TIP3    H243635   5.901   4.045   0.588 -0.6358  1.1320  0.0344
14560TIP3   OH243636   5.084   5.292   1.422  0.4843 -0.5018 -1.0098
14560TIP3    H143637   5.128   5.217   1.463  1.2946  0.6573  0.3344
14560TIP3    H243638   5.151   5.331   1.366  0.7695  0.4555 -0.0334
14561TIP3   OH243639   2.628   4.987   1.014 -0.1702  0.0813 -0.0987
14561TIP3    H143640   2.683   4.987   0.936  0.1640  2.1950  0.0732
14561TIP3    H243641   2.550   4.938   0.988  0.6301 -0.6406 -1.2159
14562TIP3   OH243642   7.814   6.689   1.880 -0.2095  0.2970  0.3892
14562TIP3    H143643   7.880   6.729   1.823 -2.1169  0.1101 -2.1370
14562TIP3    H243644   7.785   6.761   1.936 -0.1724  1.2467 -0.7597
14563TIP3   OH243645   2.257   0.472   2.582  0.1066  0.1938 -0.4318
14563TIP3    H143646   2.166   0.461   2.610  0.7201 -1.3137  1.1415
14563TIP3    H243647   2.278   0.563   2.601 -0.5949  0.1256  0.7318
14564TIP3   OH243648   8.077   0.040   4.188  0.6441  0.1491  0.5852
14564TIP3    H143649   8.171   0.039   4.171  0.6607  2.4122  0.3724
14564TIP3    H243650   8.039   0.095   4.120 -1.3633 -3.2092 -1.3311
14565TIP3   OH243651   0.165   1.817   0.988  0.3504  0.5525 -0.3860
14565TIP3    H143652   0.075   1.828   0.957  0.2637  1.7075  0.2266
14565TIP3    H243653   0.220   1.834   0.911  0.0633  0.7700 -0.5433
14566TIP3   OH243654   4.270   1.645   1.288 -0.5301 -0.3903 -0.2904
14566TIP3    H143655   4.349   1.592   1.280 -0.9807 -1.5148  1.7720
14566TIP3    H243656   4.301   1.728   1.326 -0.3429 -0.9616  0.8561
14567TIP3   OH243657   3.974   5.600   3.659  0.2782 -0.2934  0.0336
14567TIP3    H143658   4.023   5.618   3.578 -1.3081  0.1796 -0.8672
14567TIP3    H243659   3.967   5.504   3.662  1.9469 -0.4353  0.6446
14568TIP3   OH243660   8.149   2.874   1.511  0.3408 -0.7243 -0.2862
14568TIP3    H143661   8.153   2.802   1.447 -0.5375 -0.6542 -0.4409
14568TIP3    H243662   8.149   2.953   1.458  1.0384 -0.6088 -0.1254
14569TIP3   OH243663   0.703   7.020   5.765 -0.2283  0.1439 -0.5067
14569TIP3    H143664   0.775   7.073   5.731 -0.0094 -1.2439 -2.3477
14569TIP3    H243665   0.627   7.046   5.714 -0.2797 -0.7360 -0.9077
14570TIP3   OH243666   1.030   2.486   2.282 -0.0729  0.1845 -0.1067
14570TIP3    H143667   0.974   2.489   2.360  1.4372 -0.4415  1.0552
14570TIP3    H243668   1.089   2.413   2.298 -0.7577 -1.0174 -2.6244
14571TIP3   OH243669   7.122   7.015   5.802  0.1511  0.6029 -0.3030
14571TIP3    H143670   7.163   7.101   5.813  1.4817  0.1672 -1.5338
14571TIP3    H243671   7.185   6.966   5.749 -0.1506 -1.4457  1.1654
14572TIP3   OH243672   3.712   0.152   5.288  0.0952  0.3445  0.0676
14572TIP3    H143673   3.771   0.149   5.213  0.4192  0.7738  0.3029
14572TIP3    H243674   3.662   0.233   5.277 -0.6569 -0.1486 -0.2754
14573TIP3   OH243675   0.633   4.709   3.819 -0.3856 -0.8853  0.5099
14573TIP3    H143676   0.652   4.640   3.755 -0.3953 -1.4532  1.1151
14573TIP3    H243677   0.664   4.674   3.902 -0.2827 -0.1077  0.8051
14574TIP3   OH243678   7.578   4.564   0.902  0.4156  0.0523  0.3055
14574TIP3    H143679   7.612   4.609   0.825  0.0540 -0.3395 -0.0844
14574TIP3    H243680   7.494   4.527   0.874  0.7682 -0.9870  0.5738
14575TIP3   OH243681   7.730   4.386   3.221 -0.3644  0.1900  0.1174
14575TIP3    H143682   7.642   4.420   3.241  0.2837  0.4910  2.8307
14575TIP3    H243683   7.765   4.449   3.159 -1.7109  0.6204 -0.2512
14576TIP3   OH243684   4.048   2.698   5.739  0.3397  0.3979 -0.2424
14576TIP3    H143685   4.103   2.639   5.687 -0.5185  0.1415 -0.8711
14576TIP3    H243686   3.977   2.643   5.771 -2.2931  1.5920 -3.4481
14577TIP3   OH243687   7.637   5.704   6.040  0.3053  0.3351 -0.1614
14577TIP3    H143688   7.562   5.664   6.084  0.1782  0.6904 -0.0457
14577TIP3    H243689   7.613   5.797   6.032  0.0062  0.1417 -1.6686
14578TIP3   OH243690   2.673   6.890   1.414  0.4513 -0.0824  0.4072
14578TIP3    H143691   2.643   6.917   1.328  1.0220  0.8604  0.4862
14578TIP3    H243692   2.594   6.870   1.463  0.1377 -1.0440 -0.4555
14579TIP3   OH243693   3.606   0.906   3.994  0.0040 -0.0154 -0.2494
14579TIP3    H143694   3.565   0.948   3.918 -1.5021 -1.7909 -0.4934
14579TIP3    H243695   3.544   0.922   4.066 -1.1256 -2.5205 -0.5668
14580TIP3   OH243696   2.731   1.510   2.183  0.0936  0.2278  0.9143
14580TIP3    H143697   2.650   1.528   2.229 -1.6706 -0.1880 -1.7778
14580TIP3    H243698   2.718   1.424   2.143  0.8734  1.1160 -1.4394
14581TIP3   OH243699   4.894   6.458   5.112  0.5287  0.1588  0.7538
14581TIP3    H143700   4.959   6.404   5.155 -0.6861 -1.1151  1.0644
14581TIP3    H243701   4.857   6.513   5.182  0.7031  0.3074  0.7302
14582TIP3   OH243702   4.271   0.746   5.298  0.5786  0.3340 -0.3924
14582TIP3    H143703   4.359   0.731   5.264  0.0901 -1.7065 -0.8541
14582TIP3    H243704   4.220   0.771   5.222  0.8969  2.4593  0.0208
14583TIP3   OH243705   7.001   7.195   6.082  0.4606 -0.4619  0.1415
14583TIP3    H143706   6.963   7.282   6.091  0.0521 -0.5867 -0.3271
14583TIP3    H243707   6.955   7.156   6.009  1.8768 -0.4222 -0.8192
14584TIP3   OH243708   4.081   7.458   2.567 -0.6066  0.2323 -0.2043
14584TIP3    H143709   4.121   7.392   2.510 -1.3475  0.3272 -0.8565
14584TIP3    H243710   3.987   7.447   2.553 -0.7203  2.4197 -1.4988
14585TIP3   OH243711   4.872   7.308   1.081  0.3986 -0.4107  0.7251
14585TIP3    H143712   4.809   7.327   1.151  0.5694 -2.5908  1.5587
14585TIP3    H243713   4.958   7.321   1.123  0.5152 -0.0870  0.3940
14586TIP3   OH243714   4.618   5.400   0.360  0.0301  0.0941 -0.0590
14586TIP3    H143715   4.653   5.428   0.275 -0.6933  4.8514  0.8941
14586TIP3    H243716   4.692   5.404   0.420  0.2299 -1.8169 -0.1235
14587TIP3   OH243717   7.192   0.503   1.965  0.0031  0.1099 -0.0189
14587TIP3    H143718   7.244   0.504   1.885  1.6382  0.3571  0.9843
14587TIP3    H243719   7.104   0.525   1.937  0.4284 -0.3058 -1.8090
14588TIP3   OH243720   0.244   5.929   3.889 -0.1060  0.8727 -0.0505
14588TIP3    H143721   0.265   5.962   3.802 -0.7730  0.2348 -0.4700
14588TIP3    H243722   0.306   5.973   3.948  0.0915  1.6050 -0.7904
14589TIP3   OH243723   6.926   0.011   6.292 -0.0540 -0.0508 -0.2173
14589TIP3    H143724   6.885   0.069   6.228  0.6996  0.3442 -0.3525
14589TIP3    H243725   6.995  -0.034   6.244  1.0839  0.8808  0.5050
14590TIP3   OH243726   3.267   6.291   4.469 -0.0375 -0.1597 -0.1783
14590TIP3    H143727   3.270   6.299   4.565 -1.3313  0.3034 -0.1517
14590TIP3    H243728   3.174   6.286   4.449  0.2142 -3.1231 -1.2161
14591TIP3   OH243729   3.440   5.590   1.319 -0.3905 -0.0975  0.3580
14591TIP3    H143730   3.413   5.678   1.290 -0.7754 -0.0014  1.0001
14591TIP3    H243731   3.393   5.531   1.260  1.0856  0.1249 -1.1337
14592TIP3   OH243732   1.344   1.201   1.355 -0.4386  0.3638  0.5539
14592TIP3    H143733   1.277   1.266   1.334 -0.4568 -0.2568 -1.5630
14592TIP3    H243734   1.423   1.253   1.371 -0.6262  0.9759 -0.3917
14593TIP3   OH243735   2.346   6.370   6.736 -0.0399  0.2437  0.0235
14593TIP3    H143736   2.405   6.309   6.781 -1.0167 -0.8090 -0.0836
14593TIP3    H243737   2.322   6.325   6.656 -0.7808  0.7831 -0.0664
14594TIP3   OH243738   0.730   2.956   0.338  0.3613 -0.4468 -0.6150
14594TIP3    H143739   0.778   2.961   0.421  0.2000  0.0167 -0.5487
14594TIP3    H243740   0.741   2.865   0.310  0.2900 -0.6458 -0.0123
14595TIP3   OH243741   6.762   6.096   4.424 -0.5675  0.3517 -0.1140
14595TIP3    H143742   6.854   6.118   4.440 -0.2435  0.3500 -1.7180
14595TIP3    H243743   6.741   6.142   4.342 -1.8582 -0.0209 -0.0105
14596TIP3   OH243744   4.631   6.027   6.240 -0.3885 -0.5111  0.2756
14596TIP3    H143745   4.571   6.041   6.166  2.3773 -2.9685 -2.7189
14596TIP3    H243746   4.596   5.950   6.285  0.9373 -2.6737 -2.1712
14597TIP3   OH243747   6.824   7.424   5.573 -0.1536 -0.0311  0.1241
14597TIP3    H143748   6.846   7.390   5.660  1.0584  0.0816 -0.1303
14597TIP3    H243749   6.877   7.503   5.564 -1.4542  0.8529 -0.0981
14598TIP3   OH243750   0.111   1.282   1.975 -0.0523  0.1747 -0.8110
14598TIP3    H143751   0.082   1.313   1.889  0.4168 -0.1308 -1.0873
14598TIP3    H243752   0.098   1.187   1.971  0.5334  0.0895 -0.7663
14599TIP3   OH243753   6.314   1.170   6.577 -0.1404 -0.3080  0.2292
14599TIP3    H143754   6.295   1.255   6.536  0.3038 -0.7818 -1.0216
14599TIP3    H243755   6.256   1.108   6.532 -0.7504 -0.6141  1.4137
14600TIP3   OH243756   6.855   5.371   1.617  0.5342  0.0865  0.0550
14600TIP3    H143757   6.917   5.340   1.551  0.7010  0.8173 -0.1406
14600TIP3    H243758   6.836   5.461   1.591  1.9973  1.0316  2.0163
14601TIP3   OH243759   5.047   4.960   0.381 -0.1509 -0.1451 -0.1264
14601TIP3    H143760   4.963   4.977   0.425 -0.2333  1.2621 -0.7932
14601TIP3    H243761   5.024   4.954   0.289  0.5021  0.3637 -0.3229
14602TIP3   OH243762   2.830   4.321   0.344  0.3331 -0.0947 -0.0721
14602TIP3    H143763   2.823   4.266   0.266  1.7984  0.7862 -0.8782
14602TIP3    H243764   2.902   4.283   0.394 -0.4402 -0.5064  0.7508
14603TIP3   OH243765   6.049   1.595   3.777 -0.0838 -0.0066  0.7714
14603TIP3    H143766   6.093   1.539   3.842  1.0099  0.0747  0.1358
14603TIP3    H243767   6.121   1.631   3.725 -0.8250  1.3787  0.6646
14604TIP3   OH243768   2.606   3.229   0.302  0.5048  0.3674 -1.1922
14604TIP3    H143769   2.534   3.284   0.333  0.0842 -0.9476  0.2770
14604TIP3    H243770   2.608   3.156   0.363  3.8084  0.8999 -0.5002
14605TIP3   OH243771   6.719   2.483   0.906  0.0441  0.4324 -0.3699
14605TIP3    H143772   6.696   2.567   0.947  1.2947  1.1178 -1.0088
14605TIP3    H243773   6.744   2.505   0.817  0.7708 -0.5591 -0.4367
14606TIP3   OH243774   2.647   3.415   1.946  0.1337  0.4857  0.3333
14606TIP3    H143775   2.720   3.366   1.910  0.8694  2.4393 -1.0257
14606TIP3    H243776   2.581   3.349   1.966  1.6999 -1.1825  0.2278
14607TIP3   OH243777   4.985   5.278   3.604  1.0123 -0.1291  0.5922
14607TIP3    H143778   4.944   5.363   3.617 -0.1104 -0.7519  1.2739
14607TIP3    H243779   4.915   5.223   3.567  2.2595 -0.2366 -1.8534
14608TIP3   OH243780   1.730   1.032   2.844  0.3876  0.1168  0.3410
14608TIP3    H143781   1.778   1.067   2.768 -1.2263  2.2018  0.1976
14608TIP3    H243782   1.650   1.084   2.848 -0.3828 -1.1106  2.4798
14609TIP3   OH243783   8.014   7.279   0.484 -0.2694 -0.7629 -0.1061
14609TIP3    H143784   7.973   7.265   0.570 -0.2893  0.8606  0.1697
14609TIP3    H243785   8.072   7.353   0.497  0.3107 -0.9883 -1.3253
14610TIP3   OH243786   7.669   4.097   1.370 -0.1659 -1.0888 -0.2026
14610TIP3    H143787   7.640   4.188   1.381  1.4017 -0.4870 -0.7538
14610TIP3    H243788   7.597   4.044   1.404 -1.2417  0.3545 -0.1564
14611TIP3   OH243789   1.159   0.503   1.506  0.2273  0.1400 -0.1503
14611TIP3    H143790   1.094   0.435   1.524  0.2269  0.4238  1.0456
14611TIP3    H243791   1.108   0.579   1.479  0.1748 -0.0787 -0.6820
14612TIP3   OH243792   3.736   1.240   0.037  0.1103  0.1817 -0.5938
14612TIP3    H143793   3.711   1.333   0.037 -0.4202  0.0528 -1.3086
14612TIP3    H243794   3.791   1.230  -0.041 -0.4174 -0.2393 -0.9240
14613TIP3   OH243795   0.867   4.093   1.274  0.3806 -0.3273 -0.2451
14613TIP3    H143796   0.899   4.179   1.302 -2.2379  1.1451 -1.4260
14613TIP3    H243797   0.910   4.078   1.190 -0.5775  0.8215 -0.9847
14614TIP3   OH243798   3.954   6.925   3.044  0.6145  0.1706  0.0441
14614TIP3    H143799   3.981   6.930   2.952 -0.4340  0.6098 -0.2544
14614TIP3    H243800   3.883   6.860   3.044  0.2861  0.5217  0.4569
14615TIP3   OH243801   4.880   3.673   5.858  0.2965  0.0134  0.3008
14615TIP3    H143802   4.798   3.717   5.881 -0.4416 -0.4145 -1.3406
14615TIP3    H243803   4.907   3.630   5.939 -1.2605 -0.0684  0.8218
14616TIP3   OH243804   5.684   4.347   5.417  0.0091  0.0806 -0.6392
14616TIP3    H143805   5.591   4.370   5.420 -0.0662 -0.0716 -1.5616
14616TIP3    H243806   5.729   4.430   5.436 -0.3030  0.3777 -1.1522
14617TIP3   OH243807   1.766   2.740   1.492  0.3808  0.4767  0.4161
14617TIP3    H143808   1.844   2.710   1.446 -0.4298 -1.4681  0.2300
14617TIP3    H243809   1.711   2.662   1.501 -0.3838  1.2072  2.9161
14618TIP3   OH243810   4.753   6.477   0.930 -0.1928 -0.0540 -0.0052
14618TIP3    H143811   4.706   6.447   0.852  1.8404 -0.4873 -1.1407
14618TIP3    H243812   4.741   6.572   0.930 -0.9774 -0.1483 -0.3320
14619TIP3   OH243813   4.119   6.291   1.362  0.1279  0.1960  0.1155
14619TIP3    H143814   4.091   6.200   1.376 -0.3379  0.4611  1.0000
14619TIP3    H243815   4.139   6.296   1.269  0.5082 -0.9109  0.1237
14620TIP3   OH243816   5.645   4.246   2.028 -0.4742  0.5093 -0.4145
14620TIP3    H143817   5.713   4.307   2.057 -0.1569  0.7399 -1.5824
14620TIP3    H243818   5.691   4.163   2.018 -0.5235  0.4953 -0.5206
14621TIP3   OH243819   6.903   7.425   2.033 -0.3984 -0.1513 -0.4771
14621TIP3    H143820   6.961   7.487   2.078 -0.2581 -0.4296 -0.2749
14621TIP3    H243821   6.833   7.408   2.096  0.6156 -1.7565  0.2654
14622TIP3   OH243822   6.472   7.070   4.325  0.6319 -0.4047  0.0383
14622TIP3    H143823   6.524   7.129   4.380 -0.4232  0.0641  0.5595
14622TIP3    H243824   6.528   6.993   4.313  1.5448  0.1846  0.3617
14623TIP3   OH243825   7.178   4.779   3.450  0.0034  0.0383  0.3086
14623TIP3    H143826   7.165   4.799   3.357  0.0571 -1.0378  0.0627
14623TIP3    H243827   7.221   4.857   3.485  1.4521 -0.1732 -0.9175
14624TIP3   OH243828   4.564   1.187   5.742  0.1897  0.1438 -0.1754
14624TIP3    H143829   4.504   1.123   5.705 -0.4128 -0.6702  2.0188
14624TIP3    H243830   4.521   1.272   5.727  0.4433 -0.0313 -2.0931
14625TIP3   OH243831   4.090   2.915   2.759  0.8148 -0.2531  1.0469
14625TIP3    H143832   4.021   2.851   2.778 -0.6922  0.9388 -0.0804
14625TIP3    H243833   4.098   2.913   2.664  2.7006 -0.6947  1.1962
14626TIP3   OH243834   1.897   1.611   1.850  0.2877 -0.1393  0.0351
14626TIP3    H143835   1.810   1.571   1.847 -0.4335  1.3739 -0.1690
14626TIP3    H243836   1.892   1.674   1.922  1.1229  0.1589 -0.1587
14627TIP3   OH243837   8.234   7.464   0.506 -0.0227  0.0751 -0.4071
14627TIP3    H143838   8.305   7.523   0.482 -0.8447  1.3944  0.3066
14627TIP3    H243839   8.278   7.383   0.534  1.1677  0.7193 -0.3864
14628TIP3   OH243840   2.741   1.833   1.639  0.2999  0.2573  0.3001
14628TIP3    H143841   2.728   1.739   1.623  0.9157  0.1815  0.2335
14628TIP3    H243842   2.812   1.837   1.704  1.0760  0.7058 -0.5573
14629TIP3   OH243843   5.519   0.097   0.867 -0.1768  0.1062  0.3417
14629TIP3    H143844   5.426   0.117   0.856 -0.1851  0.1677  0.5262
14629TIP3    H243845   5.564   0.178   0.842 -0.1315 -0.1914 -0.5823
14630TIP3   OH243846   2.678   2.378   5.998 -0.5934 -0.1506  0.8085
14630TIP3    H143847   2.609   2.444   5.993 -0.4096  0.0132  0.4270
14630TIP3    H243848   2.757   2.423   5.971 -0.9991 -1.3015 -2.7355
14631TIP3   OH243849   6.284   1.027   1.288  0.2105 -0.5962 -0.0093
14631TIP3    H143850   6.320   1.041   1.376  0.0074  1.8251 -0.2633
14631TIP3    H243851   6.235   0.945   1.296  0.1783 -0.4380  2.1443
14632TIP3   OH243852   5.642   3.081   4.652  0.3305 -0.3284  0.2263
14632TIP3    H143853   5.725   3.129   4.652  0.6361 -0.7719 -1.6834
14632TIP3    H243854   5.665   2.995   4.617 -0.7761 -0.7923  0.6138
14633TIP3   OH243855   4.800   0.483   4.410 -0.4228  0.1856 -0.5323
14633TIP3    H143856   4.887   0.511   4.382 -0.5640 -0.6771 -1.9430
14633TIP3    H243857   4.810   0.390   4.431 -0.2196  0.8687  2.9475
14634TIP3   OH243858   5.212   0.806   1.533  0.2387  0.1226 -0.8801
14634TIP3    H143859   5.256   0.878   1.489  0.8314  0.0820 -0.3648
14634TIP3    H243860   5.271   0.781   1.605 -0.5017 -0.0989 -0.3305
14635TIP3   OH243861   0.656   5.392   2.456 -0.0340 -0.1645 -0.4376
14635TIP3    H143862   0.652   5.448   2.378  2.1266  1.0940  0.2608
14635TIP3    H243863   0.715   5.439   2.516 -1.2324 -1.3225  1.7825
14636TIP3   OH243864   5.412   1.700   3.088 -0.1322 -0.1249 -0.1058
14636TIP3    H143865   5.352   1.763   3.048 -0.9646 -0.7765  0.0999
14636TIP3    H243866   5.488   1.699   3.030 -0.2058  0.9021 -0.2290
14637TIP3   OH243867   8.072   5.034   0.263 -0.0662  0.5446  0.4249
14637TIP3    H143868   8.099   5.022   0.355 -0.2599  0.7117  0.5040
14637TIP3    H243869   8.114   5.116   0.237  0.6155  0.1038  0.1273
14638TIP3   OH243870   5.335   1.391   4.332 -0.3123  0.2496 -0.7229
14638TIP3    H143871   5.274   1.364   4.401  0.1106 -0.7976 -0.7397
14638TIP3    H243872   5.280   1.439   4.269 -0.9630  0.0298 -0.3315
14639TIP3   OH243873   8.157   0.325   6.553  0.1903  0.0141 -0.0822
14639TIP3    H143874   8.186   0.235   6.567  0.7334  0.2659  0.4427
14639TIP3    H243875   8.076   0.316   6.502  1.7630 -0.6622 -2.6695
14640TIP3   OH243876   0.788   4.493   2.837 -0.4036  0.0797 -0.1640
14640TIP3    H143877   0.876   4.462   2.817 -0.6653 -0.1265 -1.0496
14640TIP3    H243878   0.771   4.560   2.771 -1.2757 -0.5642 -0.6067
14641TIP3   OH243879   2.390   6.928   4.192  0.2596  0.1799  0.0695
14641TIP3    H143880   2.338   7.007   4.204  0.1603  0.1541 -0.2057
14641TIP3    H243881   2.334   6.857   4.223 -0.1106  0.0800 -0.8102
14642TIP3   OH243882   2.331   6.649   4.516  0.1202 -0.0773 -0.2401
14642TIP3    H143883   2.305   6.741   4.506 -0.3128 -0.2614 -0.9033
14642TIP3    H243884   2.387   6.632   4.439  2.2758  0.3195  1.1565
14643TIP3   OH243885   3.628   1.541   4.200  0.3170 -0.2288  0.0427
14643TIP3    H143886   3.613   1.504   4.113  0.7446  0.8032 -0.4923
14643TIP3    H243887   3.722   1.528   4.215  0.1683 -0.7767  0.5433
14644TIP3   OH243888   7.812   6.493   6.372 -0.2986 -0.1390  0.8731
14644TIP3    H143889   7.754   6.550   6.321 -0.1186 -1.4094 -0.8551
14644TIP3    H243890   7.767   6.482   6.456 -1.2807  0.9520  0.5188
14645TIP3   OH243891   5.703   4.625   5.845 -0.3582  0.5478 -0.0147
14645TIP3    H143892   5.702   4.719   5.865  0.4657  0.5656 -0.0126
14645TIP3    H243893   5.756   4.587   5.915  0.4165  0.2663 -0.7363
14646TIP3   OH243894   3.221   1.976   3.688  0.4420 -0.3938  0.8456
14646TIP3    H143895   3.180   1.908   3.635 -0.5545  1.2785 -0.6280
14646TIP3    H243896   3.315   1.960   3.681  0.3253 -0.3358 -1.2837
14647TIP3   OH243897   7.676   6.581   0.521 -0.0502 -0.5687  0.4319
14647TIP3    H143898   7.655   6.623   0.438 -1.1385 -1.4997  0.2122
14647TIP3    H243899   7.643   6.492   0.512  4.3764 -2.4371 -0.1317
14648TIP3   OH243900   2.466   5.756   1.454 -0.1712  0.2246 -1.0614
14648TIP3    H143901   2.420   5.796   1.381 -0.5966  1.1899 -0.2973
14648TIP3    H243902   2.417   5.784   1.532  0.4943 -0.4412 -0.3812
14649TIP3   OH243903   0.755   1.341   4.728  0.1124  0.2915 -0.0102
14649TIP3    H143904   0.695   1.274   4.695 -0.0454  0.5100 -0.1674
14649TIP3    H243905   0.752   1.331   4.823  0.4759 -0.2606 -0.0502
14650TIP3   OH243906   7.185   2.325   3.960  0.2866  0.4436  0.1654
14650TIP3    H143907   7.163   2.397   4.019 -1.1630 -0.4709  0.8063
14650TIP3    H243908   7.165   2.359   3.873  1.5891  1.4967  0.2391
14651TIP3   OH243909   1.571   7.250   1.910 -0.6248  0.1316 -0.1616
14651TIP3    H143910   1.649   7.276   1.860 -0.2468 -1.4723 -0.4628
14651TIP3    H243911   1.520   7.331   1.917  1.4517  1.4586  0.7986
14652TIP3   OH243912   2.935   2.546   2.421  0.3500 -0.4541  0.4375
14652TIP3    H143913   2.924   2.457   2.452 -0.9807 -0.6030 -0.3506
14652TIP3    H243914   2.850   2.568   2.381  1.1380  0.6115 -0.7439
14653TIP3   OH243915   4.360   3.786   5.316 -0.0412  0.1057 -0.5340
14653TIP3    H143916   4.388   3.728   5.387 -1.7870 -1.1709 -0.8350
14653TIP3    H243917   4.439   3.797   5.262  0.0776 -3.2933 -1.3263
14654TIP3   OH243918   0.187   1.985   1.195 -0.4487  0.1400  0.2721
14654TIP3    H143919   0.101   2.021   1.216 -0.0639  1.2953 -0.0403
14654TIP3    H243920   0.174   1.936   1.114 -1.0639 -0.8144  0.9218
14655TIP3   OH243921   5.433   7.280   1.983 -0.4025 -0.4034  0.2710
14655TIP3    H143922   5.353   7.300   2.032 -0.3079 -1.4025  0.8652
14655TIP3    H243923   5.420   7.321   1.897 -0.2935  1.9706  1.3069
14656TIP3   OH243924   5.422   4.474   4.820  0.2849 -0.2898 -0.4446
14656TIP3    H143925   5.499   4.500   4.770  0.7205 -0.9645 -0.1361
14656TIP3    H243926   5.409   4.382   4.797 -0.8321 -0.0149 -1.0060
14657TIP3   OH243927   4.556   3.052   4.781  0.1722 -0.3027 -0.3821
14657TIP3    H143928   4.629   3.075   4.723 -0.3210 -0.2456 -0.9926
14657TIP3    H243929   4.544   3.129   4.836 -0.5405  0.3695 -1.4494
14658TIP3   OH243930   2.884   4.536   1.391  0.2979  0.4886  0.5039
14658TIP3    H143931   2.952   4.472   1.372  0.8337  0.9453  0.8508
14658TIP3    H243932   2.841   4.503   1.470  0.0589  0.1598  0.2398
14659TIP3   OH243933   0.699   5.705   2.783 -0.0553  0.7072  0.4885
14659TIP3    H143934   0.674   5.792   2.751  2.3999  1.7562  1.1723
14659TIP3    H243935   0.755   5.670   2.714 -0.1875  0.1013  0.6873
14660TIP3   OH243936   6.224   6.277   5.945 -0.1419 -0.1355  0.6483
14660TIP3    H143937   6.228   6.373   5.949  0.5134 -0.1854  1.5905
14660TIP3    H243938   6.315   6.249   5.957 -0.0055 -0.8473 -1.6736
14661TIP3   OH243939   3.897   1.091   1.613 -0.4257  0.3238 -0.0066
14661TIP3    H143940   3.958   1.077   1.686 -2.3934  3.3797  2.4942
14661TIP3    H243941   3.917   1.179   1.581  0.6044 -1.0239 -3.6301
14662TIP3   OH243942   5.977   7.064   2.423  0.0115 -0.4725 -0.2189
14662TIP3    H143943   6.035   6.992   2.398  0.1174 -1.2069  1.9400
14662TIP3    H243944   5.909   7.064   2.356  0.0138 -2.5977 -0.2837
14663TIP3   OH243945   4.426   4.215   4.937 -0.4168 -0.0447  0.0215
14663TIP3    H143946   4.405   4.307   4.947 -1.0863 -0.3039  1.1571
14663TIP3    H243947   4.511   4.204   4.980 -1.3337 -0.3392  1.8709
14664TIP3   OH243948   8.026   3.341   3.433 -0.1934 -0.9219 -0.7407
14664TIP3    H143949   8.007   3.406   3.366  0.6343 -0.9768 -1.0351
14664TIP3    H243950   7.978   3.372   3.510 -1.6209 -1.1646 -1.4926
14665TIP3   OH243951   6.997   4.657   0.336  0.5317 -0.2506  0.1990
14665TIP3    H143952   7.050   4.671   0.415  0.9636 -0.8404  0.0239
14665TIP3    H243953   7.050   4.598   0.282 -0.6679 -1.5565  0.3858
14666TIP3   OH243954   0.664   6.152   0.653 -0.2143 -0.1119  0.0125
14666TIP3    H143955   0.743   6.181   0.608  0.0872 -2.2971 -1.0184
14666TIP3    H243956   0.610   6.113   0.584 -2.1501  1.1602  0.7211
14667TIP3   OH243957   1.838   0.856   0.521  0.0544  0.5435 -0.2304
14667TIP3    H143958   1.867   0.871   0.610 -0.6722  0.4806  0.0223
14667TIP3    H243959   1.801   0.768   0.522 -0.7909  0.8936 -0.3736
14668TIP3   OH243960   1.309   3.712   1.141 -0.0983  0.0032  0.0685
14668TIP3    H143961   1.238   3.766   1.107 -0.7589 -0.0484  1.3077
14668TIP3    H243962   1.344   3.762   1.215 -0.4474 -1.0538  0.9743
14669TIP3   OH243963   6.035   2.655   3.914  0.4781  0.2779  0.7659
14669TIP3    H143964   6.045   2.567   3.878 -0.7325  0.3902  0.0997
14669TIP3    H243965   6.091   2.656   3.991  1.7487 -0.5555 -0.1057
14670TIP3   OH243966   0.459   7.084   0.512 -0.6056 -0.2955 -0.1226
14670TIP3    H143967   0.523   7.055   0.448 -0.1439  1.3516 -0.4502
14670TIP3    H243968   0.501   7.072   0.597  0.3635  1.2198 -0.3577
14671TIP3   OH243969   3.009   4.994   4.679  0.0127  0.6818  0.8656
14671TIP3    H143970   3.027   4.970   4.770  0.0183 -0.9794  0.4473
14671TIP3    H243971   2.916   5.020   4.679 -0.4707 -0.9339  1.0605
14672TIP3   OH243972   5.231   5.719   1.780  0.3709  0.9837  0.1577
14672TIP3    H143973   5.188   5.641   1.815  1.0458  0.0506 -1.0219
14672TIP3    H243974   5.195   5.792   1.831 -1.0781  0.0196  0.5642
14673TIP3   OH243975   3.219   2.144   3.254  0.4741 -0.3253 -0.4540
14673TIP3    H143976   3.133   2.117   3.223  0.1475  0.0595  0.0963
14673TIP3    H243977   3.272   2.154   3.175 -0.2680  0.3843 -0.8655
14674TIP3   OH243978   1.432   6.716   1.027 -0.4294 -0.2684  0.5434
14674TIP3    H143979   1.376   6.658   0.975  0.9480 -1.9251  0.8144
14674TIP3    H243980   1.521   6.683   1.013  0.3715  1.5497  1.0503
14675TIP3   OH243981   1.306   1.182   1.062  0.3781 -0.3805  0.1905
14675TIP3    H143982   1.289   1.183   1.156  1.2021  1.4178  0.3721
14675TIP3    H243983   1.223   1.209   1.022  0.7964  1.7918  0.6379
14676TIP3   OH243984   3.355   5.351   4.330  0.1794 -0.0944 -0.7867
14676TIP3    H143985   3.314   5.366   4.415  0.8342  0.9841 -0.6436
14676TIP3    H243986   3.375   5.439   4.297 -0.0818 -0.4939 -2.0716
14677TIP3   OH243987   7.479   6.594   3.387 -0.1144  0.4654  0.0804
14677TIP3    H143988   7.547   6.655   3.360  0.0423  0.4482  0.4276
14677TIP3    H243989   7.397   6.636   3.361  0.0894 -0.4193 -2.1647
14678TIP3   OH243990   2.449   3.033   3.568 -0.2879 -0.3724 -0.4561
14678TIP3    H143991   2.363   3.065   3.597 -0.4891  1.0132 -2.3865
14678TIP3    H243992   2.438   3.015   3.475  1.5724  0.0796 -0.8078
14679TIP3   OH243993   3.086   3.983   6.675 -0.1584 -0.6934 -0.4248
14679TIP3    H143994   3.055   4.060   6.627 -0.8581  0.1241  1.2312
14679TIP3    H243995   3.176   3.970   6.645 -0.4262  0.0512 -1.5888
14680TIP3   OH243996   2.372   0.190   6.147  0.0186  0.7854  0.6284
14680TIP3    H143997   2.425   0.114   6.121 -1.1136  0.3003 -0.3127
14680TIP3    H243998   2.413   0.220   6.229  0.8767 -0.4413  0.6786
14681TIP3   OH243999   3.196   2.343   4.584  0.4761 -0.2240  0.3210
14681TIP3    H144000   3.228   2.407   4.521 -2.8184  0.8006 -0.5298
14681TIP3    H244001   3.137   2.287   4.534 -1.2096 -0.2379  2.1614
14682TIP3   OH244002   5.325   6.889   2.556 -0.0059  0.0326 -0.1831
14682TIP3    H144003   5.355   6.976   2.583  1.1965 -0.1389 -0.8683
14682TIP3    H244004   5.340   6.887   2.462  1.4722 -1.4520  0.0460
14683TIP3   OH244005   4.110   4.423   0.484 -0.1437  0.0282  0.0391
14683TIP3    H144006   4.187   4.438   0.429 -0.2200 -0.4636 -0.2096
14683TIP3    H244007   4.119   4.486   0.556  0.0595  0.5492 -0.4288
14684TIP3   OH244008   5.637   5.391   0.801 -0.2024 -0.0334 -0.1347
14684TIP3    H144009   5.609   5.471   0.846 -2.0762 -0.6915 -0.0341
14684TIP3    H244010   5.672   5.336   0.871  2.3409  1.1215 -0.3774
14685TIP3   OH244011   2.894   5.192   1.748  0.6068  0.0552 -0.1262
14685TIP3    H144012   2.839   5.223   1.675  0.6217 -0.8119 -0.5144
14685TIP3    H244013   2.958   5.262   1.761  0.7817  0.1020 -1.1467
14686TIP3   OH244014   2.819   1.848   0.879 -0.3005  0.2519 -0.3086
14686TIP3    H144015   2.805   1.939   0.907  0.1949  0.1059  0.4351
14686TIP3    H244016   2.737   1.803   0.901 -0.1790  0.3007  0.2652
14687TIP3   OH244017   6.545   7.570   1.069 -0.1096  0.7908 -0.4988
14687TIP3    H144018   6.597   7.563   0.989 -0.4352  0.0046 -0.6536
14687TIP3    H244019   6.609   7.570   1.139  0.0964 -1.5901 -0.6072
14688TIP3   OH244020   3.487   7.122   5.849  0.0139  0.0663  0.2876
14688TIP3    H144021   3.576   7.137   5.881 -0.8213  0.1283  2.8110
14688TIP3    H244022   3.456   7.046   5.898 -1.4403  0.2782 -0.2373
14689TIP3   OH244023   2.554   1.013   4.434  0.0136 -0.1695 -0.3757
14689TIP3    H144024   2.592   1.028   4.347  0.9576  2.8252  0.4222
14689TIP3    H244025   2.520   1.099   4.460 -0.8517 -1.1407  1.9593
14690TIP3   OH244026   3.875   2.475   2.719 -0.7793  0.9189 -0.4461
14690TIP3    H144027   3.913   2.472   2.631 -0.1330  0.0793 -0.1502
14690TIP3    H244028   3.910   2.398   2.763 -3.3653 -0.2891 -0.3497
14691TIP3   OH244029   1.391   3.393   1.527 -0.3980 -0.2420  0.1910
14691TIP3    H144030   1.450   3.405   1.452  0.2540  1.7851  0.9532
14691TIP3    H244031   1.318   3.453   1.508  0.0900  0.7887  1.4400
14692TIP3   OH244032   3.701   6.059   3.253  0.3854  0.1307 -0.5210
14692TIP3    H144033   3.771   6.087   3.312  0.2479  0.3859 -0.4769
14692TIP3    H244034   3.669   6.141   3.214  0.4642 -0.0338 -0.9363
14693TIP3   OH244035   4.686   2.482   5.942  0.3846  0.0118 -0.1764
14693TIP3    H144036   4.667   2.536   6.018 -1.9140 -0.5709 -0.2582
14693TIP3    H244037   4.773   2.446   5.959  0.8599  1.6318  1.0871
14694TIP3   OH244038   3.965   1.740   1.496 -0.2043  0.1517  0.4956
14694TIP3    H144039   3.896   1.710   1.437 -0.4619  1.3525  0.1581
14694TIP3    H244040   3.924   1.811   1.546  1.3413  2.3975 -1.2057
14695TIP3   OH244041   3.920   0.860   5.900  0.4035 -0.1380  0.3735
14695TIP3    H144042   4.010   0.888   5.888  0.2999  0.3803  0.7707
14695TIP3    H244043   3.909   0.786   5.840  0.5186  1.0043 -1.1205
14696TIP3   OH244044   7.682   0.783   1.773 -0.0317  0.4132  0.1760
14696TIP3    H144045   7.715   0.872   1.785 -0.5091  0.5974  0.1384
14696TIP3    H244046   7.599   0.781   1.822  0.6867 -0.4459  1.4259
14697TIP3   OH244047   8.111   7.396   6.569  0.3413 -0.3929 -0.0781
14697TIP3    H144048   8.102   7.314   6.617 -0.7099 -1.7969 -2.4915
14697TIP3    H244049   8.167   7.374   6.494 -2.0831  0.3045 -2.2545
14698TIP3   OH244050   0.343   1.809   0.779  0.4354  0.4551  0.0872
14698TIP3    H144051   0.321   1.716   0.786 -1.4371  0.7415 -1.4085
14698TIP3    H244052   0.420   1.811   0.722  0.8531 -0.1959  0.6102
14699TIP3   OH244053   7.474   1.231   2.329 -0.2737  0.2663 -0.1770
14699TIP3    H144054   7.516   1.148   2.354  1.2080  0.9579 -0.2709
14699TIP3    H244055   7.388   1.205   2.296 -0.6370 -1.0608  1.6308
14700TIP3   OH244056   1.107   1.010   5.228 -0.0380  0.1091  0.2222
14700TIP3    H144057   1.168   1.021   5.301  0.0919 -1.7091  0.4272
14700TIP3    H244058   1.073   1.099   5.212  2.6652  1.2036  0.0374
14701TIP3   OH244059   5.483   0.328   6.284  0.5153  0.2408  0.0648
14701TIP3    H144060   5.559   0.278   6.315  0.8807 -0.8052 -2.3285
14701TIP3    H244061   5.427   0.263   6.243  0.1088  1.5209 -1.5043
14702TIP3   OH244062   7.584   6.819   3.220 -0.1228  0.2494  0.9489
14702TIP3    H144063   7.638   6.897   3.210 -0.7642  0.8209  1.8570
14702TIP3    H244064   7.614   6.760   3.150  0.9077  0.9849  0.7544
14703TIP3   OH244065   4.902   1.665   4.692  0.7740  0.1620 -0.3007
14703TIP3    H144066   4.806   1.664   4.689  0.7119  2.5915 -1.0218
14703TIP3    H244067   4.926   1.577   4.719 -1.6913 -0.2546  0.7470
14704TIP3   OH244068   2.424   2.104   3.966 -0.5948 -0.6034 -0.5275
14704TIP3    H144069   2.471   2.086   4.047  0.8035 -0.3622 -1.2553
14704TIP3    H244070   2.333   2.082   3.986 -0.4432  0.2420  1.3556
14705TIP3   OH244071   6.974   3.332   2.863  0.4955 -0.5399  0.0335
14705TIP3    H144072   7.069   3.321   2.868  0.4450 -0.4658  1.4499
14705TIP3    H244073   6.959   3.374   2.778  1.8994  1.1694  0.5813
14706TIP3   OH244074   5.872   4.023   5.880  0.5478  0.1330  0.0488
14706TIP3    H144075   5.876   4.112   5.915 -0.9363  0.9847 -1.7512
14706TIP3    H244076   5.947   4.016   5.821 -0.0387  0.6916 -0.7912
14707TIP3   OH244077   2.210   0.798   5.924 -0.0523  0.5995  0.5645
14707TIP3    H144078   2.132   0.831   5.879 -0.2704 -0.2662  0.2863
14707TIP3    H244079   2.280   0.856   5.894 -0.8118  2.3471  1.9837
14708TIP3   OH244080   0.582   0.488   1.582  0.1776 -0.7243  0.4559
14708TIP3    H144081   0.589   0.526   1.669  0.4052  0.5705 -0.1137
14708TIP3    H244082   0.495   0.511   1.552 -0.6013 -2.7155  1.0126
14709TIP3   OH244083   1.215   5.254   3.473  0.5008  0.2830  0.0957
14709TIP3    H144084   1.307   5.255   3.447  0.6210 -0.0872  0.5097
14709TIP3    H244085   1.213   5.304   3.555  0.4251 -0.2150  0.3960
14710TIP3   OH244086   1.610   0.816   6.088 -0.0148 -0.4086  0.1488
14710TIP3    H144087   1.573   0.761   6.157  0.4110 -1.0216 -0.0987
14710TIP3    H244088   1.675   0.760   6.045 -1.2356 -0.5099 -1.6494
14711TIP3   OH244089   8.298   0.296   3.811  0.1035  0.2204  0.4593
14711TIP3    H144090   8.264   0.209   3.789  2.4875 -0.7951  0.5319
14711TIP3    H244091   8.301   0.342   3.727  0.7389 -0.4886  0.0831
14712TIP3   OH244092   5.667   1.755   2.063 -0.6658  0.6423 -0.2139
14712TIP3    H144093   5.751   1.797   2.082 -0.7441  1.1995 -1.0631
14712TIP3    H244094   5.680   1.714   1.977 -0.9621 -0.0853  0.0832
14713TIP3   OH244095   1.445   4.931   4.614  0.8098  0.2063 -0.2405
14713TIP3    H144096   1.536   4.946   4.638  0.5609 -0.4450  1.2428
14713TIP3    H244097   1.399   5.007   4.648  0.7375  0.2816 -0.5117
14714TIP3   OH244098   3.777   5.817   4.416  0.4241  0.0489  0.1986
14714TIP3    H144099   3.852   5.820   4.475  1.4030  1.0078 -1.0554
14714TIP3    H244100   3.751   5.908   4.405 -0.5450 -0.2247  0.1259
14715TIP3   OH244101   4.502   3.448   3.142 -0.6331  0.1746  0.0492
14715TIP3    H144102   4.526   3.447   3.235 -1.0524  0.1333  0.1587
14715TIP3    H244103   4.461   3.362   3.128  1.3183 -0.6932 -0.6784
14716TIP3   OH244104   0.281   2.580   1.509 -0.0086 -0.4229 -0.4190
14716TIP3    H144105   0.212   2.621   1.456  0.7822  0.1236 -1.0459
14716TIP3    H244106   0.278   2.627   1.593 -1.0408 -1.0677 -0.0726
14717TIP3   OH244107   2.219   7.722   4.012  0.4274 -0.5714 -0.4818
14717TIP3    H144108   2.203   7.701   3.921 -2.0356 -1.1796  0.0355
14717TIP3    H244109   2.211   7.639   4.059 -0.6772  0.0881  0.5499
14718TIP3   OH244110   0.785   7.369   5.801  0.1062  0.0514 -1.0407
14718TIP3    H144111   0.830   7.349   5.883 -0.7478 -0.8436 -0.7600
14718TIP3    H244112   0.766   7.463   5.806 -0.6234 -0.1317  0.1639
14719TIP3   OH244113   3.073   2.666   5.119 -0.0035  0.2016  0.6245
14719TIP3    H144114   3.010   2.671   5.047  1.1177  0.7080 -0.3539
14719TIP3    H244115   3.042   2.731   5.182  1.4837  3.2319 -1.5082
14720TIP3   OH244116   3.412   5.525   3.848  0.4813  0.4138  0.3748
14720TIP3    H144117   3.474   5.481   3.790  0.3288  0.3499  0.2581
14720TIP3    H244118   3.384   5.458   3.910 -1.0638 -0.1575 -0.8558
14721TIP3   OH244119   6.734   5.377   1.080 -0.7137  0.2366  0.0371
14721TIP3    H144120   6.815   5.414   1.044  0.1773  0.2558  1.9381
14721TIP3    H244121   6.691   5.451   1.123 -0.0177 -0.4431  1.9717
14722TIP3   OH244122   4.252   3.608   3.373  0.0964 -0.0096  0.3627
14722TIP3    H144123   4.244   3.661   3.294 -0.9587 -0.3671  0.2167
14722TIP3    H244124   4.289   3.667   3.438 -0.2569  0.6597 -0.0379
14723TIP3   OH244125   1.724   6.656   6.667 -0.1539  0.5664 -0.8144
14723TIP3    H144126   1.711   6.728   6.729  2.2924 -1.8919  2.9505
14723TIP3    H244127   1.815   6.665   6.638  0.0895 -0.8481 -0.5136
14724TIP3   OH244128   2.492   2.377   0.630 -0.5119  0.0983  0.0331
14724TIP3    H144129   2.460   2.427   0.555  0.9872  0.5583 -0.3368
14724TIP3    H244130   2.476   2.285   0.605 -2.6641  0.3251  0.4363
14725TIP3   OH244131   4.803   3.679   6.381  0.1782 -0.0113  0.0423
14725TIP3    H144132   4.763   3.745   6.437 -1.1513 -0.8467  0.1353
14725TIP3    H244133   4.891   3.667   6.416 -0.3804  0.0069  1.5131
14726TIP3   OH244134   1.028   1.492   5.418  0.1692 -0.0647 -0.4697
14726TIP3    H144135   0.978   1.528   5.345  1.7569  2.0901 -0.6069
14726TIP3    H244136   1.094   1.436   5.377  0.2748  0.1605 -0.6133
14727TIP3   OH244137   6.727   1.508   4.771  0.1821  0.2764 -0.4540
14727TIP3    H144138   6.817   1.511   4.803  0.2349  2.1850 -0.6929
14727TIP3    H244139   6.736   1.517   4.676 -0.1969 -1.3770 -0.6838
14728TIP3   OH244140   7.260   3.646   6.127 -0.2166 -0.5273  0.7814
14728TIP3    H144141   7.304   3.604   6.201  1.0818  0.7240  0.7718
14728TIP3    H244142   7.302   3.732   6.120  0.0471 -0.7803 -1.7160
14729TIP3   OH244143   6.389   5.829   1.372 -0.6281  0.1370  0.4553
14729TIP3    H144144   6.351   5.747   1.342 -1.6547  0.3297  1.1663
14729TIP3    H244145   6.453   5.853   1.305 -1.0140 -0.7446 -0.2337
14730TIP3   OH244146   0.853   0.187   4.710  0.5129  0.3868  0.0069
14730TIP3    H144147   0.935   0.145   4.735  1.0179  1.7474  0.7397
14730TIP3    H244148   0.850   0.180   4.615  1.0606 -0.4127  0.0434
14731TIP3   OH244149   7.582   3.608   4.918 -0.3242 -0.3712 -0.5915
14731TIP3    H144150   7.627   3.530   4.885  1.3638  0.2651  0.1118
14731TIP3    H244151   7.635   3.681   4.887 -2.0032  0.5633 -1.4380
14732TIP3   OH244152   6.086   5.727   5.296  0.0561 -0.0959  0.3684
14732TIP3    H144153   6.041   5.751   5.215  0.0257 -0.7911  0.1764
14732TIP3    H244154   6.016   5.710   5.359 -0.0298 -2.2694 -0.2335
14733TIP3   OH244155   2.362   1.844   1.708  0.0656  0.8598  0.3407
14733TIP3    H144156   2.325   1.840   1.796 -2.0650 -2.9368 -0.5587
14733TIP3    H244157   2.297   1.893   1.657 -0.6045 -0.2548  0.1077
14734TIP3   OH244158   3.445   4.699   1.152  0.0167  0.2453  0.1126
14734TIP3    H144159   3.519   4.748   1.187  0.8942 -0.7963 -0.2438
14734TIP3    H244160   3.468   4.682   1.061  0.3228 -1.8676  0.5284
14735TIP3   OH244161   7.841   1.160   4.467 -0.1284  0.0578 -0.0489
14735TIP3    H144162   7.823   1.254   4.461 -1.5164 -0.2664 -3.6620
14735TIP3    H244163   7.922   1.148   4.417  1.2972 -0.5079  2.2595
14736TIP3   OH244164   0.369   5.455   3.035  0.2120  0.1843 -0.3187
14736TIP3    H144165   0.441   5.393   3.048 -0.9271 -1.3184 -0.9228
14736TIP3    H244166   0.380   5.486   2.945 -0.5285 -0.9393 -0.8181
14737TIP3   OH244167   5.345   4.443   2.060 -0.3827  0.2072  0.0146
14737TIP3    H144168   5.291   4.517   2.089 -2.1049 -0.8323 -0.3768
14737TIP3    H244169   5.352   4.387   2.137  1.8968  1.2614  0.6507
14738TIP3   OH244170   5.322   0.781   5.797 -0.5652  0.0325  0.5713
14738TIP3    H144171   5.292   0.834   5.723  0.5909 -0.2755 -0.1303
14738TIP3    H244172   5.244   0.733   5.825 -1.1792  0.6796  0.0140
14739TIP3   OH244173   1.572   1.165   4.654  0.3046 -0.2145  0.6705
14739TIP3    H144174   1.563   1.237   4.590  0.0123  0.0372  0.9932
14739TIP3    H244175   1.569   1.208   4.739  1.0995 -0.5077  0.8552
14740TIP3   OH244176   4.689   7.578   2.494  0.1796  0.2576 -0.4088
14740TIP3    H144177   4.614   7.634   2.512  0.0921  0.7652 -2.1872
14740TIP3    H244178   4.657   7.489   2.509 -1.1036  0.3984 -2.0642
14741TIP3   OH244179   5.247   1.900   5.553  0.1470 -0.2362 -0.0971
14741TIP3    H144180   5.282   1.985   5.526 -1.3726  0.7064  0.6980
14741TIP3    H244181   5.218   1.859   5.472  0.0692  0.4266 -0.4137
14742TIP3   OH244182   3.869   7.508   1.016  0.3561 -0.2363  0.3858
14742TIP3    H144183   3.853   7.422   1.054  0.6627 -0.4293  0.0896
14742TIP3    H244184   3.965   7.515   1.012  0.3370  0.1600  0.5004
14743TIP3   OH244185   7.362   4.868   1.521 -0.3404 -0.2536 -0.5907
14743TIP3    H144186   7.344   4.781   1.485 -0.0957 -1.3326  1.7051
14743TIP3    H244187   7.431   4.852   1.586 -0.7512  1.5406  0.3399
14744TIP3   OH244188   0.873   2.958   6.645 -0.3636  0.1258 -0.1583
14744TIP3    H144189   0.901   2.902   6.572 -1.4892  0.5437 -0.9364
14744TIP3    H244190   0.954   3.000   6.675  0.5057 -1.8827  0.4526
14745TIP3   OH244191   1.082   0.537   3.441  0.0011  0.3589  0.1048
14745TIP3    H144192   1.087   0.598   3.368 -2.3529 -0.2581 -0.6614
14745TIP3    H244193   1.148   0.470   3.421 -0.6110  0.1858 -1.4993
14746TIP3   OH244194   2.258   5.975   1.267  0.6300 -0.0034 -0.4517
14746TIP3    H144195   2.303   5.911   1.211 -1.3545 -2.2936  0.3913
14746TIP3    H244196   2.170   5.941   1.276  0.5388  0.8101  3.2108
14747TIP3   OH244197   5.654   4.917   6.136 -0.2644 -0.8394 -0.2852
14747TIP3    H144198   5.701   4.890   6.057  1.4666 -0.0031  0.3908
14747TIP3    H244199   5.620   4.836   6.173  1.4040 -1.6309 -0.3926
14748TIP3   OH244200   3.412   2.654   0.522  0.2020 -0.0382  0.2962
14748TIP3    H144201   3.414   2.570   0.569  0.1649 -1.0534 -1.4369
14748TIP3    H244202   3.322   2.685   0.534 -0.4572 -1.3735 -0.8803
14749TIP3   OH244203   5.542   2.536   5.661 -0.2029  0.0325 -0.2715
14749TIP3    H144204   5.572   2.447   5.642  0.3451  0.0425  0.4992
14749TIP3    H244205   5.501   2.529   5.748 -0.2440  0.5150 -0.2503
14750TIP3   OH244206   2.834   3.250   4.065 -0.4580  0.3501  0.1176
14750TIP3    H144207   2.746   3.281   4.047 -0.6630 -0.0477  0.4166
14750TIP3    H244208   2.830   3.218   4.155 -0.2625 -0.5681 -0.1899
14751TIP3   OH244209   6.773   7.601   6.290  0.2687 -0.2297  0.7298
14751TIP3    H144210   6.716   7.568   6.221  1.2841 -0.7236  0.0880
14751TIP3    H244211   6.727   7.676   6.326 -0.8675 -0.7326  0.3842
14752TIP3   OH244212   6.481   7.352   1.324  1.0164  0.0623  0.0127
14752TIP3    H144213   6.569   7.375   1.293  0.8412 -0.9635 -1.3623
14752TIP3    H244214   6.486   7.359   1.419  1.9388  2.2156 -0.1365
14753TIP3   OH244215   7.507   1.321   1.232  0.0495 -0.0377  0.3545
14753TIP3    H144216   7.446   1.313   1.306 -2.8019  0.2612 -1.7828
14753TIP3    H244217   7.501   1.412   1.206  1.9789  0.1533  0.4312
14754TIP3   OH244218   5.316   2.876   1.530  0.1339 -0.4635 -0.4924
14754TIP3    H144219   5.338   2.878   1.437 -0.6858  0.8125 -0.6884
14754TIP3    H244220   5.244   2.939   1.539  1.4935  0.9745  1.3194
14755TIP3   OH244221   3.918   5.932   2.806  0.1816 -0.4661  0.0763
14755TIP3    H144222   3.870   5.906   2.885  0.4382  0.5021  0.5649
14755TIP3    H244223   3.861   5.996   2.764 -0.5230 -1.8622 -1.2080
14756TIP3   OH244224   2.884   0.598   4.234  0.0556 -0.3117  0.3419
14756TIP3    H144225   2.792   0.573   4.230 -0.2875  0.8789 -3.6283
14756TIP3    H244226   2.889   0.658   4.308 -2.5859  0.3117  0.1273
14757TIP3   OH244227   0.739   7.260   4.080  0.0464  0.0248 -0.2068
14757TIP3    H144228   0.793   7.299   4.148 -1.4565  0.6348  0.6959
14757TIP3    H244229   0.707   7.178   4.118 -1.4002  0.7211  0.1781
14758TIP3   OH244230   1.088   2.459   1.471 -0.5965 -0.1530 -0.1587
14758TIP3    H144231   1.101   2.470   1.565 -0.1609 -0.5713 -0.1662
14758TIP3    H244232   1.043   2.539   1.443  0.2938  0.4862  0.2097
14759TIP3   OH244233   4.980   4.943   2.794 -0.1443  0.5392  0.1847
14759TIP3    H144234   5.044   4.892   2.843  0.3856  0.4901 -0.5469
14759TIP3    H244235   4.917   4.973   2.860 -1.5624 -2.6026  0.4139
14760TIP3   OH244236   8.159   4.824   6.512  0.0819  0.2748 -0.2410
14760TIP3    H144237   8.125   4.909   6.542  0.4152  0.9849 -1.8044
14760TIP3    H244238   8.227   4.802   6.576 -2.2760 -0.5532  2.2218
14761TIP3   OH244239   7.813   1.056   6.104  0.3116  0.0000  0.1952
14761TIP3    H144240   7.901   1.069   6.141  0.5386 -1.5610  0.2836
14761TIP3    H244241   7.828   1.004   6.025 -0.4885  0.3673 -0.2082
14762TIP3   OH244242   1.368   1.585   1.618 -0.0161  0.9349  0.1540
14762TIP3    H144243   1.418   1.584   1.537 -1.9278  1.3604 -1.0998
14762TIP3    H244244   1.381   1.674   1.652 -1.3707  1.7011 -1.1825
14763TIP3   OH244245   0.743   5.683   4.865 -0.0301  0.2729 -0.1805
14763TIP3    H144246   0.823   5.641   4.897  0.3571  1.6292  0.7294
14763TIP3    H244247   0.710   5.624   4.797  1.8075 -0.2455 -0.6736
14764TIP3   OH244248   4.935   2.186   1.106 -0.5677 -0.3618  0.2585
14764TIP3    H144249   4.879   2.228   1.040 -1.0302 -0.6018  0.4947
14764TIP3    H244250   4.959   2.102   1.067 -0.9671 -0.5700  0.4560
14765TIP3   OH244251   7.794   2.287   2.853 -0.0635  0.3437 -0.6570
14765TIP3    H144252   7.865   2.347   2.874 -0.3130  0.0926  1.0271
14765TIP3    H244253   7.830   2.200   2.870 -0.8366  0.2282  0.5315
14766TIP3   OH244254   7.645   5.532   5.814  0.1425 -0.1386 -0.1368
14766TIP3    H144255   7.655   5.591   5.888  0.8960 -0.5718  0.1148
14766TIP3    H244256   7.636   5.590   5.738 -1.3547  0.3216  0.3562
14767TIP3   OH244257   5.980   4.544   2.675  0.2539 -0.1764 -0.1194
14767TIP3    H144258   5.956   4.523   2.584  0.4989  0.5654 -0.3672
14767TIP3    H244259   5.915   4.499   2.728  0.4849 -1.1587 -0.6310
14768TIP3   OH244260   7.975   6.531   3.835  0.2899 -0.2941 -0.1861
14768TIP3    H144261   7.912   6.462   3.855 -2.0457  1.6836 -0.3110
14768TIP3    H244262   8.060   6.493   3.858 -0.9322 -2.9932  0.2175
14769TIP3   OH244263   6.920   0.970   1.479  0.1983 -0.5211 -0.2622
14769TIP3    H144264   6.994   0.918   1.447  0.8949 -0.0169  0.4784
14769TIP3    H244265   6.961   1.042   1.528 -0.7992 -1.0004  1.3463
14770TIP3   OH244266   2.807   3.325   0.795  0.3004 -0.0121 -0.7555
14770TIP3    H144267   2.734   3.343   0.736  0.5835 -0.9752 -1.4235
14770TIP3    H244268   2.837   3.411   0.824 -0.7703  0.4063 -0.8804
14771TIP3   OH244269   3.197   3.669   0.773 -0.1754 -0.1667 -0.4987
14771TIP3    H144270   3.114   3.717   0.764  0.5788  0.8528 -2.7062
14771TIP3    H244271   3.170   3.579   0.793 -1.7610  0.4091  0.1355
14772TIP3   OH244272   6.761   4.177   1.265  0.1396  0.0905 -0.3643
14772TIP3    H144273   6.838   4.187   1.321  2.0131  0.6392 -2.8427
14772TIP3    H244274   6.771   4.090   1.226 -1.0146 -0.2072 -0.0363
14773TIP3   OH244275   2.602   6.872   4.358 -0.2007  0.6747 -0.4150
14773TIP3    H144276   2.528   6.930   4.340  0.0214  1.9546  2.2538
14773TIP3    H244277   2.679   6.929   4.350  0.0703  0.6685  1.6400
14774TIP3   OH244278   4.970   4.037   3.404 -0.3712  0.3737 -0.3790
14774TIP3    H144279   4.900   3.991   3.357 -0.2784  1.0171 -1.1575
14774TIP3    H244280   4.924   4.103   3.456 -0.3753  0.4994 -0.5425
14775TIP3   OH244281   8.004   6.360   2.605 -0.2904 -0.3423 -0.8449
14775TIP3    H144282   8.021   6.421   2.676  1.1199 -0.9162 -0.6579
14775TIP3    H244283   8.090   6.327   2.580 -0.9832 -2.1242 -1.0527
14776TIP3   OH244284   0.348   0.379   5.066 -0.0075  0.2406 -0.3324
14776TIP3    H144285   0.253   0.374   5.061  0.0222 -1.1514  0.1214
14776TIP3    H244286   0.377   0.392   4.976 -0.5930 -0.1092 -0.5722
14777TIP3   OH244287   4.593   0.842   4.527  0.2589 -0.1988  0.2635
14777TIP3    H144288   4.592   0.897   4.605 -0.3162 -0.6444  0.5833
14777TIP3    H244289   4.587   0.752   4.561 -1.9633 -0.3429 -0.3080
14778TIP3   OH244290   6.445   5.494   1.826  0.6301 -0.2862  0.2241
14778TIP3    H144291   6.456   5.471   1.734 -0.3944  1.1036 -0.2651
14778TIP3    H244292   6.523   5.457   1.869  1.5497 -0.2150 -1.3173
14779TIP3   OH244293   5.971   1.645   4.969  0.1362  0.4425 -0.3822
14779TIP3    H144294   5.992   1.664   5.060 -2.0118 -2.0002  0.7810
14779TIP3    H244295   5.895   1.700   4.950 -1.4126 -1.2801  0.4753
14780TIP3   OH244296   1.867   4.133   6.038 -0.1994  0.0449 -0.6935
14780TIP3    H144297   1.816   4.063   5.998  0.5807  0.2682 -2.1335
14780TIP3    H244298   1.942   4.089   6.079 -0.3672 -0.0713 -0.5109
14781TIP3   OH244299   2.736   6.731   5.077  0.0107  0.3893  0.2977
14781TIP3    H144300   2.693   6.817   5.073 -0.4383  0.3373  2.4022
14781TIP3    H244301   2.684   6.683   5.142  1.4276 -0.7667  0.6118
14782TIP3   OH244302   5.769   6.636   1.309 -0.8236 -0.0288 -0.1622
14782TIP3    H144303   5.716   6.557   1.311  0.6463 -1.0966  3.0452
14782TIP3    H244304   5.749   6.680   1.392  1.2661  0.8918 -0.1001
14783TIP3   OH244305   7.862   5.811   3.474  0.3847 -0.0067  0.1562
14783TIP3    H144306   7.945   5.844   3.439  1.3176 -0.0744  2.1624
14783TIP3    H244307   7.822   5.887   3.514 -0.9309  0.1913 -1.4492
14784TIP3   OH244308   4.669   5.261   5.046  0.8505 -0.3678 -0.0988
14784TIP3    H144309   4.692   5.295   5.133 -1.2706  1.3069 -0.1243
14784TIP3    H244310   4.640   5.337   4.997 -1.4241 -1.7495 -1.0824
14785TIP3   OH244311   4.019   6.899   1.008  0.2810  0.0063 -0.4863
14785TIP3    H144312   4.097   6.932   1.052 -0.4352 -0.0609  0.8702
14785TIP3    H244313   3.946   6.939   1.055 -0.5186 -0.4837 -1.2852
14786TIP3   OH244314   8.146   7.534   4.643  0.6423 -0.0494 -0.3019
14786TIP3    H144315   8.063   7.575   4.667  0.4526 -1.1862  1.0779
14786TIP3    H244316   8.177   7.491   4.723  1.9135 -0.7517 -1.1238
14787TIP3   OH244317   7.166   6.152   3.299 -0.7279  0.1159  0.1503
14787TIP3    H144318   7.112   6.222   3.263 -0.3473  0.5596  0.4315
14787TIP3    H244319   7.104   6.092   3.341 -1.2033 -0.5004 -1.3659
14788TIP3   OH244320   7.623   3.770   0.383  0.8401  0.4581 -0.5011
14788TIP3    H144321   7.571   3.701   0.424  1.0585  1.1699  1.0198
14788TIP3    H244322   7.563   3.813   0.322  0.1335  0.1988  0.0021
14789TIP3   OH244323   0.823   3.464   0.832 -0.3687  0.5230 -0.4750
14789TIP3    H144324   0.762   3.495   0.765 -1.9380 -0.7323  0.3387
14789TIP3    H244325   0.770   3.415   0.894  1.3496  0.0218  0.6902
14790TIP3   OH244326   3.920   4.129   4.840 -0.2477  0.4958  0.3006
14790TIP3    H144327   4.012   4.103   4.848  0.0748  1.0295 -1.2043
14790TIP3    H244328   3.894   4.154   4.929  0.9057 -0.1472  0.8434
14791TIP3   OH244329   2.390   5.757   1.155 -0.2794 -0.4096 -0.4978
14791TIP3    H144330   2.484   5.744   1.150 -0.2517 -0.5821  0.2729
14791TIP3    H244331   2.358   5.744   1.065  0.2466 -1.8639 -0.4941
14792TIP3   OH244332   0.010   4.599   5.170 -0.2389 -0.0932 -0.1108
14792TIP3    H144333   0.083   4.645   5.129  0.4459 -0.4716  0.6658
14792TIP3    H244334   0.050   4.525   5.216 -1.1149 -0.3403  0.2792
14793TIP3   OH244335   1.556   2.275   3.249 -0.1513  0.0814  0.4016
14793TIP3    H144336   1.560   2.368   3.228 -1.5185  0.2714  0.8884
14793TIP3    H244337   1.476   2.244   3.208  0.8669 -1.1656 -0.7420
14794TIP3   OH244338   6.026   4.460   4.177  0.5919 -0.1185  0.2561
14794TIP3    H144339   6.021   4.443   4.083 -1.7271 -1.3178  0.5308
14794TIP3    H244340   5.951   4.517   4.195  0.2494 -0.9416  1.5542
14795TIP3   OH244341   1.377   0.871   3.621  0.0494 -0.4871  0.1502
14795TIP3    H144342   1.370   0.859   3.527 -0.2935 -0.9655  0.2331
14795TIP3    H244343   1.335   0.794   3.659 -0.5716  0.1088  0.7011
14796TIP3   OH244344   0.861   6.234   3.842 -0.1766  0.1944  0.2069
14796TIP3    H144345   0.955   6.255   3.843 -0.2121  0.3735 -0.0349
14796TIP3    H244346   0.818   6.319   3.829 -0.4310  0.2754  1.5199
14797TIP3   OH244347   2.454   0.344   4.331  0.3945 -0.4343  0.0237
14797TIP3    H144348   2.478   0.268   4.278 -1.9203 -1.9062  0.9178
14797TIP3    H244349   2.523   0.407   4.315  0.0131 -0.8295 -4.5643
14798TIP3   OH244350   1.159   1.636   0.903  0.5239  0.0823 -0.4757
14798TIP3    H144351   1.179   1.710   0.845 -1.7461 -0.1926 -1.7421
14798TIP3    H244352   1.110   1.675   0.975 -0.5591 -0.1323 -1.0763
14799TIP3   OH244353   5.460   2.509   1.106 -0.4147 -0.4463  0.0999
14799TIP3    H144354   5.523   2.475   1.042  0.6367  1.9359 -0.2384
14799TIP3    H244355   5.514   2.556   1.170 -1.6017 -1.2958  1.8103
14800TIP3   OH244356   1.556   4.595   2.090  0.0562  0.2267 -0.3632
14800TIP3    H144357   1.525   4.564   2.005 -0.0175  2.3847 -1.1847
14800TIP3    H244358   1.635   4.645   2.070 -0.3877  1.4111  0.7117
14801TIP3   OH244359   1.179   1.280   2.651  0.4202  0.0170 -0.2994
14801TIP3    H144360   1.211   1.370   2.647 -0.8202  0.5384  0.7935
14801TIP3    H244361   1.119   1.273   2.576  1.3467 -0.2694 -1.0360
14802TIP3   OH244362   7.950   4.180   1.417 -0.1217 -0.7614 -0.5597
14802TIP3    H144363   7.939   4.235   1.494 -0.4234 -1.0285 -0.4105
14802TIP3    H244364   7.866   4.134   1.408 -0.7925  0.6593 -2.1369
14803TIP3   OH244365   3.274   6.536   4.316  0.2019 -0.2309 -0.3290
14803TIP3    H144366   3.336   6.570   4.381  0.8055 -2.3767  0.2986
14803TIP3    H244367   3.251   6.449   4.348 -2.0940 -0.0417 -1.2891
14804TIP3   OH244368   5.230   0.745   1.168 -0.1423  0.1479  0.4100
14804TIP3    H144369   5.272   0.668   1.132  0.4871  0.6451  0.0652
14804TIP3    H244370   5.136   0.726   1.164  0.0184 -0.6892  0.5507
14805TIP3   OH244371   5.352   2.332   5.674  0.2280 -0.2269 -0.1062
14805TIP3    H144372   5.349   2.390   5.598 -0.1042 -0.1045 -0.0024
14805TIP3    H244373   5.289   2.370   5.735  0.2211 -0.5361  0.0784
14806TIP3   OH244374   4.104   4.483   3.198 -0.1565 -0.5865  0.0579
14806TIP3    H144375   4.169   4.551   3.179 -1.5596  0.4606 -1.1801
14806TIP3    H244376   4.156   4.405   3.218  1.4742  0.3708 -0.2838
14807TIP3   OH244377   1.012   0.722   5.778  0.3941 -0.3361  0.6665
14807TIP3    H144378   0.919   0.697   5.780  0.8826 -2.3520  0.3808
14807TIP3    H244379   1.028   0.760   5.864 -1.0257  1.4635  0.2027
14808TIP3   OH244380   3.734   3.627   0.081 -0.3123  0.3059 -0.8015
14808TIP3    H144381   3.802   3.669   0.135  1.4943 -1.9998 -1.1245
14808TIP3    H244382   3.659   3.619   0.139 -0.2042  2.4895 -0.2741
14809TIP3   OH244383   6.791   2.204   5.466 -0.1286 -0.2600 -0.0846
14809TIP3    H144384   6.763   2.197   5.375  0.2195 -1.0471 -0.1408
14809TIP3    H244385   6.816   2.296   5.477 -1.1974  0.0907 -0.4724
14810TIP3   OH244386   8.264   3.676   4.362 -0.3167 -0.0516  0.5116
14810TIP3    H144387   8.246   3.699   4.453  1.7070  0.5017  0.8390
14810TIP3    H244388   8.308   3.753   4.326  0.1809 -0.7860 -0.5032
14811TIP3   OH244389   4.960   1.492   4.453  0.1267 -0.6453 -0.2337
14811TIP3    H144390   5.002   1.562   4.403  0.9604 -0.5663  0.5397
14811TIP3    H244391   4.921   1.537   4.529  1.3768 -1.0819  0.7098
14812TIP3   OH244392   1.255   3.485   6.231 -0.1138  0.6556  0.0219
14812TIP3    H144393   1.260   3.463   6.138  1.0922  1.3751 -0.1160
14812TIP3    H244394   1.234   3.403   6.274  1.8886 -0.2881 -0.6711
14813TIP3   OH244395   8.081   4.358   4.479  0.1647  0.0381 -0.8684
14813TIP3    H144396   7.988   4.350   4.461 -1.6007  3.7965  4.2247
14813TIP3    H244397   8.106   4.442   4.440  0.9980 -0.1638 -0.7924
14814TIP3   OH244398   7.282   2.782   2.221 -0.4329 -0.4405  0.2663
14814TIP3    H144399   7.195   2.742   2.223 -1.2083  1.1497  1.5216
14814TIP3    H244400   7.278   2.850   2.288  1.5110  0.2746 -0.2714
14815TIP3   OH244401   4.994   1.450   5.521  0.2836 -0.2003 -0.6598
14815TIP3    H144402   5.080   1.482   5.496 -0.2313  1.9818  0.0578
14815TIP3    H244403   4.933   1.510   5.478 -0.8090 -0.5735  0.2964
14816TIP3   OH244404   1.876   7.249   3.356 -0.2670 -0.0656 -0.4004
14816TIP3    H144405   1.850   7.273   3.267  1.5794 -2.8760 -1.8674
14816TIP3    H244406   1.940   7.315   3.382 -2.1574  1.8480 -0.2886
14817TIP3   OH244407   2.590   1.489   1.293  0.1652 -0.2224 -0.1308
14817TIP3    H144408   2.595   1.397   1.265  1.3085 -0.4519  0.7500
14817TIP3    H244409   2.681   1.512   1.313 -0.1093  1.1185 -0.3648
14818TIP3   OH244410   6.259   1.080   5.357  0.1927 -0.2182 -0.2114
14818TIP3    H144411   6.197   1.078   5.431  0.8713 -0.5530  0.3585
14818TIP3    H244412   6.249   0.994   5.316 -1.1192  0.4279 -1.3145
14819TIP3   OH244413   7.747   6.910   6.321  0.4213 -0.3392  0.0148
14819TIP3    H144414   7.739   6.869   6.408 -0.9858 -1.5793 -0.6542
14819TIP3    H244415   7.829   6.958   6.325  0.2496 -0.1117  2.1473
14820TIP3   OH244416   2.563   2.055   1.628 -0.3148 -0.0302 -0.1389
14820TIP3    H144417   2.633   1.990   1.625 -2.4215 -2.4512 -0.4294
14820TIP3    H244418   2.483   2.003   1.634 -2.1816  2.5626 -0.9928
14821TIP3   OH244419   7.002   3.680   2.739  0.0481 -0.9950 -0.9248
14821TIP3    H144420   6.973   3.766   2.710 -0.6261 -0.1837  1.8624
14821TIP3    H244421   6.922   3.634   2.762  0.5017 -1.7386 -0.7913
14822TIP3   OH244422   4.849   0.226   4.482  0.0726  0.2681 -0.2936
14822TIP3    H144423   4.839   0.167   4.557 -0.6830  0.6344 -0.1066
14822TIP3    H244424   4.944   0.231   4.470  0.1795 -0.3915  0.1594
14823TIP3   OH244425   8.217   6.778   3.877 -0.1943  0.1643 -0.2399
14823TIP3    H144426   8.278   6.801   3.947 -1.0800 -1.1899  1.0281
14823TIP3    H244427   8.271   6.735   3.811  0.7750  2.0994 -0.7886
14824TIP3   OH244428   0.936   1.639   4.293 -0.0928  0.1131 -0.0667
14824TIP3    H144429   1.028   1.662   4.282  0.0482  0.1211  1.0488
14824TIP3    H244430   0.936   1.575   4.364 -1.0165  0.6131  0.3906
14825TIP3   OH244431   2.507   2.282   0.174  0.5788 -0.3913  0.1127
14825TIP3    H144432   2.536   2.371   0.194  0.1132 -0.6478  2.2235
14825TIP3    H244433   2.411   2.288   0.173  0.5527 -0.8123  0.0449
14826TIP3   OH244434   2.257   0.853   0.164 -0.2970 -1.1033  0.0010
14826TIP3    H144435   2.255   0.942   0.129 -0.2289 -0.7969  0.7577
14826TIP3    H244436   2.180   0.848   0.222 -0.2299 -1.4924  0.0596
14827TIP3   OH244437   5.559   3.590   0.714 -0.0662 -0.7190  0.7115
14827TIP3    H144438   5.622   3.557   0.778  0.1439 -0.6103  0.5614
14827TIP3    H244439   5.569   3.685   0.717  0.5121 -0.7473 -0.0572
14828TIP3   OH244440   7.071   0.839   4.600  0.1905 -0.8123  0.3426
14828TIP3    H144441   6.986   0.880   4.616 -0.2744 -1.6304  0.0143
14828TIP3    H244442   7.067   0.810   4.509  0.5759 -1.4360  0.5201
14829TIP3   OH244443   0.202   4.955   3.473  0.3436  0.0003 -0.3664
14829TIP3    H144444   0.109   4.931   3.477 -0.2236  2.0663 -0.1500
14829TIP3    H244445   0.202   5.048   3.451  2.4499 -0.3905 -2.3730
14830TIP3   OH244446   5.736   1.095   2.015  0.7587 -0.2082 -0.4286
14830TIP3    H144447   5.685   1.117   1.937  1.3883 -0.7465 -1.0015
14830TIP3    H244448   5.676   1.042   2.068  0.1007  0.7189 -0.2166
14831TIP3   OH244449   6.460   4.571   5.066  0.3289 -0.8431 -0.1660
14831TIP3    H144450   6.393   4.506   5.048 -1.9161  1.4270 -0.6259
14831TIP3    H244451   6.482   4.608   4.981  1.0263 -0.4924  0.1534
14832TIP3   OH244452   6.042   2.375   2.153 -0.3412  0.4297  0.1737
14832TIP3    H144453   6.021   2.467   2.140  0.5473  0.5375 -0.6384
14832TIP3    H244454   6.052   2.339   2.065 -0.8509 -0.4903  0.4742
14833TIP3   OH244455   4.884   3.926   2.672 -0.0700 -0.3217  0.1663
14833TIP3    H144456   4.832   3.917   2.752  0.6080 -0.6357  0.5794
14833TIP3    H244457   4.820   3.947   2.604 -0.7554 -0.8446  0.6361
14834TIP3   OH244458   0.129   4.634   3.631  0.6122 -0.3449 -0.4222
14834TIP3    H144459   0.144   4.617   3.538  1.8403 -1.3012 -0.0783
14834TIP3    H244460   0.208   4.681   3.660  0.6769 -0.8988  0.3372
14835TIP3   OH244461   6.144   7.093   1.967  0.0209 -0.1747 -0.2921
14835TIP3    H144462   6.064   7.040   1.967 -0.3299  0.3374 -0.7735
14835TIP3    H244463   6.213   7.033   1.993 -0.3890 -0.8503 -0.7333
14836TIP3   OH244464   1.429   4.972   5.617  0.0082 -0.3224  0.3462
14836TIP3    H144465   1.423   4.878   5.630  0.2777 -1.0483 -3.5659
14836TIP3    H244466   1.339   5.003   5.619 -0.1465 -0.7942  0.8748
14837TIP3   OH244467   4.839   1.673   1.687 -0.1191 -0.6310  0.1402
14837TIP3    H144468   4.882   1.733   1.748 -0.1600 -1.1188  0.6573
14837TIP3    H244469   4.788   1.730   1.629 -0.5328 -0.1930  0.9218
   8.29393   7.81958   6.77196   0.00000   0.00000  -2.76464   0.00000  -2.76464  -3.90980
