Title t= 307.00000 step= 153500
46055
    1GLY      N    1   3.175   3.343   0.966
    1GLY    HT1    2   3.273   3.330   0.935
    1GLY    HT2    3   3.105   3.366   0.893
    1GLY    HT3    4   3.149   3.246   0.991
    1GLY     CA    5   3.165   3.452   1.066
    1GLY    HA1    6   3.059   3.463   1.080
    1GLY    HA2    7   3.217   3.529   1.011
    1GLY      C    8   3.232   3.439   1.197
    1GLY      O    9   3.316   3.351   1.206
    2PRO      N   10   3.223   3.531   1.287
    2PRO     CD   11   3.147   3.662   1.273
    2PRO    HD1   12   3.039   3.640   1.263
    2PRO    HD2   13   3.195   3.723   1.194
    2PRO     CA   14   3.272   3.515   1.425
    2PRO     HA   15   3.376   3.544   1.422
    2PRO     CB   16   3.184   3.613   1.506
    2PRO    HB1   17   3.235   3.645   1.599
    2PRO    HB2   18   3.085   3.572   1.536
    2PRO     CG   19   3.160   3.730   1.407
    2PRO    HG1   20   3.073   3.791   1.440
    2PRO    HG2   21   3.250   3.796   1.407
    2PRO      C   22   3.270   3.373   1.492
    2PRO      O   23   3.175   3.291   1.475
    3GLY      N   24   3.370   3.341   1.574
    3GLY     HN   25   3.450   3.400   1.576
    3GLY     CA   26   3.373   3.219   1.653
    3GLY    HA1   27   3.473   3.212   1.695
    3GLY    HA2   28   3.334   3.134   1.600
    3GLY      C   29   3.290   3.233   1.778
    3GLY      O   30   3.192   3.304   1.790
    4ALA      N   31   3.335   3.153   1.878
    4ALA     HN   32   3.413   3.091   1.871
    4ALA     CA   33   3.264   3.151   2.003
    4ALA     HA   34   3.183   3.223   2.001
    4ALA     CB   35   3.222   3.002   2.021
    4ALA    HB1   36   3.311   2.942   2.050
    4ALA    HB2   37   3.197   2.952   1.925
    4ALA    HB3   38   3.137   2.996   2.092
    4ALA      C   39   3.357   3.196   2.118
    4ALA      O   40   3.462   3.137   2.135
    5PRO      N   41   3.310   3.293   2.199
    5PRO     CD   42   3.205   3.390   2.172
    5PRO    HD1   43   3.109   3.338   2.191
    5PRO    HD2   44   3.218   3.435   2.072
    5PRO     CA   45   3.388   3.325   2.313
    5PRO     HA   46   3.488   3.350   2.283
    5PRO     CB   47   3.310   3.438   2.380
    5PRO    HB1   48   3.377   3.517   2.419
    5PRO    HB2   49   3.237   3.406   2.457
    5PRO     CG   50   3.228   3.508   2.273
    5PRO    HG1   51   3.140   3.560   2.316
    5PRO    HG2   52   3.293   3.582   2.222
    5PRO      C   53   3.403   3.205   2.409
    5PRO      O   54   3.332   3.105   2.393
    6GLY      N   55   3.495   3.220   2.510
    6GLY     HN   56   3.559   3.295   2.494
    6GLY     CA   57   3.513   3.127   2.617
    6GLY    HA1   58   3.588   3.175   2.678
    6GLY    HA2   59   3.539   3.032   2.573
    6GLY      C   60   3.396   3.109   2.711
    6GLY      O   61   3.298   3.184   2.698
    7PRO      N   62   3.400   3.017   2.802
    7PRO     CD   63   3.514   2.929   2.820
    7PRO    HD1   64   3.598   2.990   2.860
    7PRO    HD2   65   3.545   2.879   2.726
    7PRO     CA   66   3.307   3.008   2.910
    7PRO     HA   67   3.221   2.959   2.867
    7PRO     CB   68   3.370   2.919   3.014
    7PRO    HB1   69   3.291   2.850   3.052
    7PRO    HB2   70   3.423   2.970   3.096
    7PRO     CG   71   3.469   2.829   2.930
    7PRO    HG1   72   3.553   2.796   2.995
    7PRO    HG2   73   3.423   2.743   2.878
    7PRO      C   74   3.246   3.142   2.970
    7PRO      O   75   3.318   3.232   3.007
    8GLY      N   76   3.110   3.148   2.977
    8GLY     HN   77   3.059   3.066   2.951
    8GLY     CA   78   3.031   3.260   3.018
    8GLY    HA1   79   2.929   3.224   3.011
    8GLY    HA2   80   3.061   3.327   2.938
    8GLY      C   81   3.052   3.327   3.150
    8GLY      O   82   3.080   3.263   3.251
    9ALA      N   83   3.036   3.457   3.144
    9ALA     HN   84   2.987   3.499   3.067
    9ALA     CA   85   3.051   3.545   3.260
    9ALA     HA   86   3.140   3.519   3.315
    9ALA     CB   87   3.082   3.689   3.215
    9ALA    HB1   88   3.175   3.689   3.154
    9ALA    HB2   89   3.112   3.752   3.301
    9ALA    HB3   90   3.003   3.738   3.155
    9ALA      C   91   2.921   3.535   3.339
    9ALA      O   92   2.816   3.543   3.278
   10PRO      N   93   2.919   3.529   3.470
   10PRO     CD   94   3.039   3.496   3.545
   10PRO    HD1   95   3.107   3.583   3.536
   10PRO    HD2   96   3.084   3.400   3.511
   10PRO     CA   97   2.806   3.540   3.560
   10PRO     HA   98   2.759   3.446   3.539
   10PRO     CB   99   2.866   3.560   3.702
   10PRO    HB1  100   2.799   3.515   3.778
   10PRO    HB2  101   2.875   3.667   3.731
   10PRO     CG  102   2.997   3.485   3.694
   10PRO    HG1  103   3.070   3.531   3.764
   10PRO    HG2  104   2.984   3.376   3.713
   10PRO      C  105   2.698   3.644   3.532
   10PRO      O  106   2.719   3.742   3.459
   11GLY      N  107   2.583   3.624   3.596
   11GLY     HN  108   2.570   3.533   3.634
   11GLY     CA  109   2.480   3.720   3.602
   11GLY    HA1  110   2.405   3.671   3.663
   11GLY    HA2  111   2.438   3.741   3.505
   11GLY      C  112   2.517   3.855   3.676
   11GLY      O  113   2.625   3.862   3.731
   12PRO      N  114   2.443   3.963   3.657
   12PRO     CD  115   2.340   3.971   3.553
   12PRO    HD1  116   2.260   3.896   3.568
   12PRO    HD2  117   2.382   3.951   3.452
   12PRO     CA  118   2.446   4.087   3.741
   12PRO     HA  119   2.525   4.148   3.700
   12PRO     CB  120   2.308   4.146   3.705
   12PRO    HB1  121   2.303   4.256   3.717
   12PRO    HB2  122   2.234   4.092   3.768
   12PRO     CG  123   2.292   4.114   3.562
   12PRO    HG1  124   2.188   4.138   3.531
   12PRO    HG2  125   2.365   4.164   3.495
   12PRO      C  126   2.471   4.068   3.885
   12PRO      O  127   2.407   3.975   3.934
   13GLY      N  128   2.549   4.164   3.953
   13GLY     HN  129   2.612   4.218   3.897
   13GLY     CA  130   2.570   4.179   4.100
   13GLY    HA1  131   2.620   4.272   4.122
   13GLY    HA2  132   2.605   4.085   4.139
   13GLY      C  133   2.437   4.195   4.169
   13GLY      O  134   2.331   4.200   4.107
   14ALA      N  135   2.437   4.206   4.299
   14ALA     HN  136   2.524   4.217   4.347
   14ALA     CA  137   2.309   4.230   4.373
   14ALA     HA  138   2.233   4.168   4.330
   14ALA     CB  139   2.339   4.197   4.514
   14ALA    HB1  140   2.253   4.210   4.583
   14ALA    HB2  141   2.414   4.266   4.559
   14ALA    HB3  142   2.379   4.094   4.519
   14ALA      C  143   2.281   4.384   4.356
   14ALA      O  144   2.376   4.464   4.360
   15PRO      N  145   2.153   4.423   4.334
   15PRO     CD  146   2.037   4.331   4.366
   15PRO    HD1  147   2.061   4.274   4.458
   15PRO    HD2  148   2.028   4.271   4.273
   15PRO     CA  149   2.115   4.554   4.302
   15PRO     HA  150   2.158   4.596   4.212
   15PRO     CB  151   1.962   4.539   4.293
   15PRO    HB1  152   1.920   4.529   4.191
   15PRO    HB2  153   1.910   4.629   4.335
   15PRO     CG  154   1.922   4.425   4.383
   15PRO    HG1  155   1.926   4.465   4.487
   15PRO    HG2  156   1.820   4.385   4.371
   15PRO      C  157   2.151   4.658   4.404
   15PRO    OT1  158   2.120   4.651   4.523
   15PRO    OT2  159   2.219   4.758   4.372
   16LIT    LIT  160   5.322   4.281   2.169
   17LIT    LIT  161   1.878   5.769   3.855
   18LIT    LIT  162   3.078   1.763   1.923
   19LIT    LIT  163   5.072   5.345   2.155
   20LIT    LIT  164   2.533   5.432   3.453
   21LIT    LIT  165   1.803   5.396   1.844
   22LIT    LIT  166   2.294   1.552   6.339
   23LIT    LIT  167   6.787   4.769   2.135
   24LIT    LIT  168   3.804   4.678   3.770
   25LIT    LIT  169   5.100   0.908   5.803
   26LIT    LIT  170   6.532   2.839   4.907
   27LIT    LIT  171   0.496   4.645   3.965
   28LIT    LIT  172   0.928   6.699   5.662
   29LIT    LIT  173   4.362   1.487   1.813
   30LIT    LIT  174   3.978   5.967   3.313
   31LIT    LIT  175   8.244   2.428   5.074
   32LIT    LIT  176   6.126   0.147   0.142
   33LIT    LIT  177   5.780   7.461   1.297
   34LIT    LIT  178   6.994   6.987   1.005
   35LIT    LIT  179   5.162   6.771   3.236
   36LIT    LIT  180   6.642   7.112   2.897
   37LIT    LIT  181   3.581   6.368   2.394
   38LIT    LIT  182   0.509   3.528   0.213
   39LIT    LIT  183   2.673   2.204   4.718
   40LIT    LIT  184   7.682   6.822   5.635
   41LIT    LIT  185   2.145   2.081   6.793
   42LIT    LIT  186   6.992   5.049   0.871
   43LIT    LIT  187   4.234   0.311   0.134
   44LIT    LIT  188   7.566   0.146   1.769
   45LIT    LIT  189   0.962   7.226   1.471
   46LIT    LIT  190   1.916   3.924   4.477
   47LIT    LIT  191   0.730   0.637   1.031
   48LIT    LIT  192   1.239   7.736   2.306
   49LIT    LIT  193   3.565   7.782   5.208
   50LIT    LIT  194   4.786   4.941   1.691
   51LIT    LIT  195   3.923   7.178   1.400
   52LIT    LIT  196   6.869   0.717   5.535
   53LIT    LIT  197   3.524   7.557   5.774
   54LIT    LIT  198   5.994   1.900   6.738
   55LIT    LIT  199   1.741   2.161   3.799
   56LIT    LIT  200   7.096   5.639   4.015
   57LIT    LIT  201   3.706   4.745   0.556
   58LIT    LIT  202   2.169   4.823   4.545
   59CLA    CLA  203   3.557   5.781   3.248
   60CLA    CLA  204   4.144   6.057   3.450
   61CLA    CLA  205   3.219   2.479   6.548
   62CLA    CLA  206   0.802   7.743   3.609
   63CLA    CLA  207   0.865   6.774   2.703
   64CLA    CLA  208   2.559   6.437   4.722
   65CLA    CLA  209   1.987   2.679   5.991
   66CLA    CLA  210   0.458   5.957   0.370
   67CLA    CLA  211   0.237   3.390   2.686
   68CLA    CLA  212   8.055   6.418   2.955
   69CLA    CLA  213   6.206   6.848   3.399
   70CLA    CLA  214   5.721   0.367   0.708
   71CLA    CLA  215   2.158   2.545   1.909
   72CLA    CLA  216   7.303   5.723   4.025
   73CLA    CLA  217   1.162   6.645   5.683
   74CLA    CLA  218   0.306   0.236   1.942
   75CLA    CLA  219   6.509   7.718   5.915
   76CLA    CLA  220   2.195   2.871   0.436
   77CLA    CLA  221   3.864   0.784   5.420
   78CLA    CLA  222   7.579   0.650   5.990
   79CLA    CLA  223   6.291   4.050   2.357
   80CLA    CLA  224   6.493   7.232   0.427
   81CLA    CLA  225   2.677   2.266   0.420
   82CLA    CLA  226   3.981   4.459   2.307
   83CLA    CLA  227   7.088   5.617   5.373
   84CLA    CLA  228   0.382   6.420   1.345
   85CLA    CLA  229   0.995   5.355   1.530
   86CLA    CLA  230   7.980   2.657   5.693
   87CLA    CLA  231   2.566   4.067   0.618
   88CLA    CLA  232   7.157   4.092   2.547
   89CLA    CLA  233   3.519   3.036   1.059
   90CLA    CLA  234   0.955   3.048   6.351
   91CLA    CLA  235   2.953   3.304   6.827
   92CLA    CLA  236   6.176   4.157   1.617
   93CLA    CLA  237   2.330   0.795   6.591
   94CLA    CLA  238   5.357   6.654   3.170
   95CLA    CLA  239   4.023   1.135   0.887
   96CLA    CLA  240   5.445   2.013   4.465
   97CLA    CLA  241   2.561   1.730   4.781
   98CLA    CLA  242   7.646   2.287   5.970
   99CLA    CLA  243   1.910   5.234   2.625
  100CLA    CLA  244   5.222   0.821   5.401
  101CLA    CLA  245   0.791   0.652   2.854
  102TIP3   OH2  246   2.737   3.939   1.367
  102TIP3    H1  247   2.755   3.919   1.459
  102TIP3    H2  248   2.689   3.863   1.335
  103TIP3   OH2  249   1.397   4.458   3.592
  103TIP3    H1  250   1.308   4.439   3.621
  103TIP3    H2  251   1.452   4.397   3.642
  104TIP3   OH2  252   2.922   0.587   3.261
  104TIP3    H1  253   2.897   0.574   3.169
  104TIP3    H2  254   2.919   0.682   3.274
  105TIP3   OH2  255   1.869   3.653   5.601
  105TIP3    H1  256   1.889   3.689   5.514
  105TIP3    H2  257   1.954   3.626   5.635
  106TIP3   OH2  258   2.520   7.177   1.883
  106TIP3    H1  259   2.508   7.229   1.803
  106TIP3    H2  260   2.578   7.231   1.937
  107TIP3   OH2  261   5.726   6.482   5.180
  107TIP3    H1  262   5.771   6.398   5.173
  107TIP3    H2  263   5.662   6.481   5.109
  108TIP3   OH2  264   1.719   2.318   6.077
  108TIP3    H1  265   1.678   2.387   6.129
  108TIP3    H2  266   1.648   2.287   6.020
  109TIP3   OH2  267   8.414   6.833   3.833
  109TIP3    H1  268   8.349   6.766   3.814
  109TIP3    H2  269   8.496   6.785   3.843
  110TIP3   OH2  270   2.851   2.562   2.410
  110TIP3    H1  271   2.798   2.628   2.454
  110TIP3    H2  272   2.809   2.551   2.324
  111TIP3   OH2  273   4.970   4.961   0.438
  111TIP3    H1  274   5.013   5.043   0.416
  111TIP3    H2  275   5.041   4.901   0.462
  112TIP3   OH2  276   3.331   7.755   2.077
  112TIP3    H1  277   3.277   7.833   2.063
  112TIP3    H2  278   3.292   7.712   2.153
  113TIP3   OH2  279   0.663   7.345   0.949
  113TIP3    H1  280   0.664   7.265   1.003
  113TIP3    H2  281   0.630   7.413   1.008
  114TIP3   OH2  282   3.060   2.687   2.962
  114TIP3    H1  283   3.094   2.724   2.880
  114TIP3    H2  284   3.065   2.592   2.949
  115TIP3   OH2  285   3.147   6.311   1.180
  115TIP3    H1  286   3.160   6.345   1.269
  115TIP3    H2  287   3.056   6.282   1.179
  116TIP3   OH2  288   3.288   5.725   0.408
  116TIP3    H1  289   3.232   5.780   0.354
  116TIP3    H2  290   3.297   5.773   0.490
  117TIP3   OH2  291   2.425   1.070   2.599
  117TIP3    H1  292   2.469   0.988   2.618
  117TIP3    H2  293   2.462   1.098   2.515
  118TIP3   OH2  294   5.490   5.034   0.977
  118TIP3    H1  295   5.477   5.108   1.036
  118TIP3    H2  296   5.563   4.985   1.015
  119TIP3   OH2  297   6.874   3.631   6.171
  119TIP3    H1  298   6.947   3.571   6.159
  119TIP3    H2  299   6.912   3.718   6.157
  120TIP3   OH2  300   6.733   2.315   3.506
  120TIP3    H1  301   6.709   2.326   3.414
  120TIP3    H2  302   6.666   2.364   3.554
  121TIP3   OH2  303   1.006   7.255   3.727
  121TIP3    H1  304   1.014   7.349   3.708
  121TIP3    H2  305   1.021   7.213   3.643
  122TIP3   OH2  306   2.547   3.343   3.227
  122TIP3    H1  307   2.603   3.321   3.152
  122TIP3    H2  308   2.555   3.267   3.285
  123TIP3   OH2  309   4.422   6.295   0.960
  123TIP3    H1  310   4.511   6.311   0.991
  123TIP3    H2  311   4.386   6.383   0.945
  124TIP3   OH2  312   5.463   6.383   1.082
  124TIP3    H1  313   5.480   6.346   0.996
  124TIP3    H2  314   5.446   6.475   1.066
  125TIP3   OH2  315   1.119   5.643   6.201
  125TIP3    H1  316   1.031   5.666   6.174
  125TIP3    H2  317   1.153   5.590   6.129
  126TIP3   OH2  318   4.338   7.327   6.531
  126TIP3    H1  319   4.264   7.310   6.589
  126TIP3    H2  320   4.399   7.255   6.547
  127TIP3   OH2  321   6.477   6.058   3.225
  127TIP3    H1  322   6.491   6.022   3.138
  127TIP3    H2  323   6.544   6.126   3.234
  128TIP3   OH2  324   7.621   2.699   1.893
  128TIP3    H1  325   7.584   2.615   1.921
  128TIP3    H2  326   7.556   2.733   1.831
  129TIP3   OH2  327   0.038   0.363   1.508
  129TIP3    H1  328   0.119   0.362   1.559
  129TIP3    H2  329   0.027   0.454   1.481
  130TIP3   OH2  330   7.882   7.006   0.555
  130TIP3    H1  331   7.863   7.053   0.636
  130TIP3    H2  332   7.886   7.074   0.488
  131TIP3   OH2  333   7.241   2.593   5.430
  131TIP3    H1  334   7.228   2.552   5.344
  131TIP3    H2  335   7.157   2.634   5.450
  132TIP3   OH2  336   1.271   0.536   5.438
  132TIP3    H1  337   1.341   0.523   5.502
  132TIP3    H2  338   1.242   0.626   5.453
  133TIP3   OH2  339   2.739   7.890   3.578
  133TIP3    H1  340   2.742   7.947   3.654
  133TIP3    H2  341   2.820   7.840   3.582
  134TIP3   OH2  342   6.910   6.302   1.721
  134TIP3    H1  343   6.950   6.334   1.640
  134TIP3    H2  344   6.983   6.274   1.775
  135TIP3   OH2  345   7.926   6.481   5.393
  135TIP3    H1  346   7.919   6.577   5.389
  135TIP3    H2  347   7.841   6.449   5.365
  136TIP3   OH2  348   6.761   0.339   1.935
  136TIP3    H1  349   6.824   0.337   2.007
  136TIP3    H2  350   6.676   0.325   1.978
  137TIP3   OH2  351   7.223   2.571   2.867
  137TIP3    H1  352   7.142   2.570   2.816
  137TIP3    H2  353   7.254   2.661   2.861
  138TIP3   OH2  354   1.464   5.352   0.260
  138TIP3    H1  355   1.415   5.434   0.260
  138TIP3    H2  356   1.524   5.361   0.334
  139TIP3   OH2  357   2.398   3.731   1.399
  139TIP3    H1  358   2.471   3.673   1.419
  139TIP3    H2  359   2.416   3.764   1.311
  140TIP3   OH2  360   4.310   1.093   5.159
  140TIP3    H1  361   4.401   1.094   5.189
  140TIP3    H2  362   4.286   1.185   5.154
  141TIP3   OH2  363   6.472   7.586   0.177
  141TIP3    H1  364   6.491   7.498   0.145
  141TIP3    H2  365   6.554   7.634   0.166
  142TIP3   OH2  366   0.969   7.763   4.121
  142TIP3    H1  367   0.981   7.682   4.171
  142TIP3    H2  368   0.890   7.802   4.159
  143TIP3   OH2  369   4.978   2.937   5.791
  143TIP3    H1  370   4.938   2.878   5.728
  143TIP3    H2  371   4.956   2.900   5.876
  144TIP3   OH2  372   5.323   3.721   1.061
  144TIP3    H1  373   5.261   3.749   1.128
  144TIP3    H2  374   5.404   3.768   1.081
  145TIP3   OH2  375   2.109   5.735   4.902
  145TIP3    H1  376   2.070   5.818   4.927
  145TIP3    H2  377   2.039   5.671   4.911
  146TIP3   OH2  378   0.139   5.487   2.171
  146TIP3    H1  379   0.067   5.550   2.174
  146TIP3    H2  380   0.152   5.461   2.262
  147TIP3   OH2  381   4.198   3.465   1.937
  147TIP3    H1  382   4.292   3.450   1.949
  147TIP3    H2  383   4.185   3.460   1.843
  148TIP3   OH2  384   7.067   5.171   4.852
  148TIP3    H1  385   7.102   5.259   4.861
  148TIP3    H2  386   6.988   5.181   4.799
  149TIP3   OH2  387   3.901   3.342   3.878
  149TIP3    H1  388   3.989   3.328   3.842
  149TIP3    H2  389   3.845   3.283   3.828
  150TIP3   OH2  390   6.720   4.336   4.451
  150TIP3    H1  391   6.705   4.430   4.448
  150TIP3    H2  392   6.815   4.326   4.441
  151TIP3   OH2  393   2.192   4.738   1.035
  151TIP3    H1  394   2.219   4.803   0.970
  151TIP3    H2  395   2.263   4.737   1.099
  152TIP3   OH2  396   8.168   4.244   1.902
  152TIP3    H1  397   8.114   4.317   1.932
  152TIP3    H2  398   8.129   4.167   1.942
  153TIP3   OH2  399   6.536   4.300   1.084
  153TIP3    H1  400   6.561   4.302   0.992
  153TIP3    H2  401   6.442   4.282   1.083
  154TIP3   OH2  402   5.284   2.244   5.970
  154TIP3    H1  403   5.266   2.207   5.883
  154TIP3    H2  404   5.293   2.338   5.954
  155TIP3   OH2  405   1.376   1.614   4.556
  155TIP3    H1  406   1.292   1.589   4.518
  155TIP3    H2  407   1.383   1.562   4.637
  156TIP3   OH2  408   7.328   5.869   3.526
  156TIP3    H1  409   7.345   5.885   3.619
  156TIP3    H2  410   7.262   5.800   3.525
  157TIP3   OH2  411   8.137   0.778   0.709
  157TIP3    H1  412   8.131   0.697   0.760
  157TIP3    H2  413   8.117   0.847   0.772
  158TIP3   OH2  414   0.410   3.176   3.272
  158TIP3    H1  415   0.417   3.083   3.249
  158TIP3    H2  416   0.352   3.178   3.348
  159TIP3   OH2  417   4.015   6.615   3.374
  159TIP3    H1  418   3.944   6.586   3.431
  159TIP3    H2  419   4.000   6.570   3.291
  160TIP3   OH2  420   0.596   0.241   4.226
  160TIP3    H1  421   0.640   0.325   4.218
  160TIP3    H2  422   0.587   0.228   4.320
  161TIP3   OH2  423   3.562   4.136   0.897
  161TIP3    H1  424   3.606   4.075   0.955
  161TIP3    H2  425   3.609   4.128   0.814
  162TIP3   OH2  426   2.324   1.080   3.807
  162TIP3    H1  427   2.239   1.123   3.810
  162TIP3    H2  428   2.306   0.989   3.832
  163TIP3   OH2  429   2.175   1.427   6.725
  163TIP3    H1  430   2.081   1.421   6.709
  163TIP3    H2  431   2.196   1.350   6.778
  164TIP3   OH2  432   5.841   1.767   6.716
  164TIP3    H1  433   5.853   1.673   6.702
  164TIP3    H2  434   5.754   1.774   6.756
  165TIP3   OH2  435   7.432   2.125   2.731
  165TIP3    H1  436   7.438   2.043   2.682
  165TIP3    H2  437   7.523   2.153   2.743
  166TIP3   OH2  438   6.758   4.553   6.007
  166TIP3    H1  439   6.664   4.556   5.988
  166TIP3    H2  440   6.768   4.605   6.086
  167TIP3   OH2  441   5.793   3.338   2.234
  167TIP3    H1  442   5.865   3.276   2.244
  167TIP3    H2  443   5.822   3.398   2.165
  168TIP3   OH2  444   4.066   4.458   0.825
  168TIP3    H1  445   3.996   4.475   0.762
  168TIP3    H2  446   4.020   4.437   0.907
  169TIP3   OH2  447   0.584   4.975   3.146
  169TIP3    H1  448   0.639   4.897   3.143
  169TIP3    H2  449   0.568   4.989   3.240
  170TIP3   OH2  450   4.363   3.114   4.779
  170TIP3    H1  451   4.363   3.191   4.837
  170TIP3    H2  452   4.456   3.097   4.763
  171TIP3   OH2  453   6.965   5.289   4.446
  171TIP3    H1  454   6.874   5.302   4.418
  171TIP3    H2  455   6.966   5.200   4.482
  172TIP3   OH2  456   6.926   3.120   0.041
  172TIP3    H1  457   7.003   3.082   0.084
  172TIP3    H2  458   6.897   3.189   0.100
  173TIP3   OH2  459   0.553   6.489   3.604
  173TIP3    H1  460   0.578   6.431   3.532
  173TIP3    H2  461   0.573   6.577   3.571
  174TIP3   OH2  462   4.037   7.754   0.305
  174TIP3    H1  463   4.033   7.767   0.210
  174TIP3    H2  464   4.063   7.840   0.339
  175TIP3   OH2  465   7.565   0.940   0.344
  175TIP3    H1  466   7.556   1.036   0.342
  175TIP3    H2  467   7.549   0.912   0.254
  176TIP3   OH2  468   8.359   2.162   0.509
  176TIP3    H1  469   8.266   2.158   0.489
  176TIP3    H2  470   8.367   2.122   0.595
  177TIP3   OH2  471   3.265   0.758   3.295
  177TIP3    H1  472   3.244   0.665   3.288
  177TIP3    H2  473   3.344   0.769   3.242
  178TIP3   OH2  474   2.581   7.180   5.462
  178TIP3    H1  475   2.608   7.099   5.418
  178TIP3    H2  476   2.500   7.157   5.508
  179TIP3   OH2  477   6.358   1.626   1.549
  179TIP3    H1  478   6.314   1.674   1.619
  179TIP3    H2  479   6.450   1.622   1.578
  180TIP3   OH2  480   4.218   3.356   0.090
  180TIP3    H1  481   4.129   3.391   0.091
  180TIP3    H2  482   4.264   3.408   0.023
  181TIP3   OH2  483   6.597   3.311   6.180
  181TIP3    H1  484   6.631   3.268   6.102
  181TIP3    H2  485   6.596   3.243   6.247
  182TIP3   OH2  486   0.461   4.440   4.787
  182TIP3    H1  487   0.428   4.374   4.726
  182TIP3    H2  488   0.386   4.460   4.843
  183TIP3   OH2  489   2.355   6.421   2.177
  183TIP3    H1  490   2.275   6.447   2.221
  183TIP3    H2  491   2.326   6.379   2.096
  184TIP3   OH2  492   3.714   5.745   6.704
  184TIP3    H1  493   3.714   5.805   6.630
  184TIP3    H2  494   3.658   5.673   6.676
  185TIP3   OH2  495   0.362   7.350   4.383
  185TIP3    H1  496   0.351   7.257   4.402
  185TIP3    H2  497   0.384   7.390   4.467
  186TIP3   OH2  498   1.970   2.459   1.653
  186TIP3    H1  499   2.023   2.467   1.732
  186TIP3    H2  500   1.889   2.507   1.672
  187TIP3   OH2  501   6.842   4.151   2.597
  187TIP3    H1  502   6.799   4.067   2.582
  187TIP3    H2  503   6.932   4.137   2.567
  188TIP3   OH2  504   0.380   7.607   0.875
  188TIP3    H1  505   0.418   7.563   0.951
  188TIP3    H2  506   0.438   7.682   0.860
  189TIP3   OH2  507   3.251   3.048   4.114
  189TIP3    H1  508   3.254   3.046   4.209
  189TIP3    H2  509   3.170   3.094   4.093
  190TIP3   OH2  510   0.681   1.322   3.442
  190TIP3    H1  511   0.720   1.386   3.501
  190TIP3    H2  512   0.736   1.244   3.451
  191TIP3   OH2  513   1.031   3.945   3.876
  191TIP3    H1  514   1.029   3.862   3.924
  191TIP3    H2  515   1.078   3.924   3.795
  192TIP3   OH2  516   3.934   3.963   4.670
  192TIP3    H1  517   4.005   3.923   4.720
  192TIP3    H2  518   3.973   3.981   4.584
  193TIP3   OH2  519   5.515   1.921   5.796
  193TIP3    H1  520   5.526   1.908   5.702
  193TIP3    H2  521   5.562   2.002   5.815
  194TIP3   OH2  522   1.250   2.148   2.785
  194TIP3    H1  523   1.159   2.170   2.803
  194TIP3    H2  524   1.293   2.150   2.871
  195TIP3   OH2  525   2.097   7.121   3.972
  195TIP3    H1  526   2.121   7.202   3.926
  195TIP3    H2  527   2.053   7.068   3.906
  196TIP3   OH2  528   1.671   2.796   6.630
  196TIP3    H1  529   1.592   2.762   6.587
  196TIP3    H2  530   1.705   2.862   6.569
  197TIP3   OH2  531   3.000   1.332   2.552
  197TIP3    H1  532   2.978   1.414   2.596
  197TIP3    H2  533   2.942   1.329   2.476
  198TIP3   OH2  534   4.299   2.390   0.154
  198TIP3    H1  535   4.311   2.380   0.059
  198TIP3    H2  536   4.305   2.300   0.188
  199TIP3   OH2  537   1.216   4.756   4.367
  199TIP3    H1  538   1.300   4.797   4.387
  199TIP3    H2  539   1.151   4.813   4.408
  200TIP3   OH2  540   0.351   7.460   3.725
  200TIP3    H1  541   0.316   7.391   3.782
  200TIP3    H2  542   0.370   7.533   3.783
  201TIP3   OH2  543   6.237   0.518   3.393
  201TIP3    H1  544   6.212   0.441   3.444
  201TIP3    H2  545   6.316   0.550   3.436
  202TIP3   OH2  546   1.306   0.066   4.687
  202TIP3    H1  547   1.292   0.158   4.710
  202TIP3    H2  548   1.394   0.064   4.649
  203TIP3   OH2  549   6.952   0.082   3.244
  203TIP3    H1  550   7.044   0.108   3.238
  203TIP3    H2  551   6.922   0.079   3.153
  204TIP3   OH2  552   4.042   2.212   4.078
  204TIP3    H1  553   3.952   2.242   4.062
  204TIP3    H2  554   4.075   2.271   4.145
  205TIP3   OH2  555   7.929   4.190   6.174
  205TIP3    H1  556   7.870   4.138   6.120
  205TIP3    H2  557   8.005   4.206   6.118
  206TIP3   OH2  558   0.002   1.871   2.994
  206TIP3    H1  559   0.015   1.852   2.901
  206TIP3    H2  560  -0.017   1.786   3.033
  207TIP3   OH2  561   2.393   1.832   3.551
  207TIP3    H1  562   2.365   1.771   3.483
  207TIP3    H2  563   2.428   1.775   3.620
  208TIP3   OH2  564   0.330   0.641   0.855
  208TIP3    H1  565   0.357   0.683   0.937
  208TIP3    H2  566   0.265   0.701   0.817
  209TIP3   OH2  567   4.032   2.750   1.272
  209TIP3    H1  568   3.950   2.789   1.243
  209TIP3    H2  569   4.095   2.774   1.204
  210TIP3   OH2  570   1.993   6.646   6.114
  210TIP3    H1  571   2.010   6.740   6.119
  210TIP3    H2  572   1.900   6.637   6.135
  211TIP3   OH2  573   5.383   6.606   3.587
  211TIP3    H1  574   5.337   6.525   3.567
  211TIP3    H2  575   5.467   6.598   3.540
  212TIP3   OH2  576   2.576   7.350   0.849
  212TIP3    H1  577   2.560   7.406   0.773
  212TIP3    H2  578   2.612   7.408   0.915
  213TIP3   OH2  579   4.792   2.369   0.867
  213TIP3    H1  580   4.727   2.436   0.845
  213TIP3    H2  581   4.849   2.411   0.931
  214TIP3   OH2  582   2.607   5.941   3.439
  214TIP3    H1  583   2.568   6.026   3.421
  214TIP3    H2  584   2.538   5.878   3.418
  215TIP3   OH2  585   1.600   5.555   2.974
  215TIP3    H1  586   1.585   5.614   3.048
  215TIP3    H2  587   1.528   5.492   2.979
  216TIP3   OH2  588   3.564   6.814   4.478
  216TIP3    H1  589   3.615   6.892   4.501
  216TIP3    H2  590   3.479   6.848   4.450
  217TIP3   OH2  591   3.762   4.663   1.866
  217TIP3    H1  592   3.697   4.726   1.838
  217TIP3    H2  593   3.763   4.596   1.798
  218TIP3   OH2  594   6.840   3.446   5.862
  218TIP3    H1  595   6.929   3.458   5.828
  218TIP3    H2  596   6.824   3.525   5.914
  219TIP3   OH2  597   4.601   2.605   4.697
  219TIP3    H1  598   4.596   2.522   4.744
  219TIP3    H2  599   4.538   2.596   4.626
  220TIP3   OH2  600   0.140   0.515   6.177
  220TIP3    H1  601   0.054   0.482   6.202
  220TIP3    H2  602   0.131   0.538   6.085
  221TIP3   OH2  603   1.442   7.768   6.579
  221TIP3    H1  604   1.458   7.674   6.569
  221TIP3    H2  605   1.525   7.809   6.555
  222TIP3   OH2  606   7.391   1.739   2.953
  222TIP3    H1  607   7.356   1.669   2.899
  222TIP3    H2  608   7.436   1.798   2.892
  223TIP3   OH2  609   4.386   4.492   6.131
  223TIP3    H1  610   4.439   4.475   6.209
  223TIP3    H2  611   4.296   4.493   6.163
  224TIP3   OH2  612   0.293   4.513   1.868
  224TIP3    H1  613   0.223   4.517   1.804
  224TIP3    H2  614   0.268   4.575   1.936
  225TIP3   OH2  615   3.234   1.383   5.867
  225TIP3    H1  616   3.303   1.415   5.809
  225TIP3    H2  617   3.280   1.330   5.932
  226TIP3   OH2  618   0.854   6.565   2.473
  226TIP3    H1  619   0.860   6.612   2.556
  226TIP3    H2  620   0.914   6.491   2.484
  227TIP3   OH2  621   5.262   6.119   0.380
  227TIP3    H1  622   5.239   6.069   0.458
  227TIP3    H2  623   5.348   6.085   0.354
  228TIP3   OH2  624   0.878   6.944   1.087
  228TIP3    H1  625   0.918   6.875   1.034
  228TIP3    H2  626   0.951   6.981   1.138
  229TIP3   OH2  627   3.241   7.676   0.288
  229TIP3    H1  628   3.188   7.672   0.209
  229TIP3    H2  629   3.299   7.600   0.281
  230TIP3   OH2  630   6.125   4.012   1.078
  230TIP3    H1  631   6.149   3.921   1.061
  230TIP3    H2  632   6.050   4.005   1.138
  231TIP3   OH2  633   7.673   3.237   5.674
  231TIP3    H1  634   7.747   3.199   5.628
  231TIP3    H2  635   7.712   3.283   5.748
  232TIP3   OH2  636   0.450   7.685   5.635
  232TIP3    H1  637   0.420   7.652   5.551
  232TIP3    H2  638   0.464   7.779   5.620
  233TIP3   OH2  639   6.524   6.771   0.418
  233TIP3    H1  640   6.599   6.829   0.421
  233TIP3    H2  641   6.450   6.825   0.444
  234TIP3   OH2  642   0.142   6.027   1.671
  234TIP3    H1  643   0.087   6.002   1.598
  234TIP3    H2  644   0.220   6.064   1.631
  235TIP3   OH2  645   3.272   7.322   2.465
  235TIP3    H1  646   3.193   7.342   2.415
  235TIP3    H2  647   3.249   7.339   2.556
  236TIP3   OH2  648   5.504   2.654   3.415
  236TIP3    H1  649   5.575   2.644   3.352
  236TIP3    H2  650   5.432   2.602   3.379
  237TIP3   OH2  651   3.954   2.701   3.656
  237TIP3    H1  652   3.948   2.665   3.744
  237TIP3    H2  653   4.043   2.682   3.628
  238TIP3   OH2  654   5.038   0.997   0.558
  238TIP3    H1  655   4.951   1.035   0.571
  238TIP3    H2  656   5.021   0.905   0.539
  239TIP3   OH2  657   1.338   7.847   2.198
  239TIP3    H1  658   1.369   7.822   2.111
  239TIP3    H2  659   1.407   7.903   2.234
  240TIP3   OH2  660   6.779   7.268   0.631
  240TIP3    H1  661   6.752   7.216   0.707
  240TIP3    H2  662   6.701   7.270   0.575
  241TIP3   OH2  663   1.065   7.804   0.794
  241TIP3    H1  664   1.121   7.728   0.808
  241TIP3    H2  665   1.031   7.825   0.881
  242TIP3   OH2  666   6.008   5.688   0.963
  242TIP3    H1  667   6.031   5.617   1.023
  242TIP3    H2  668   5.970   5.756   1.019
  243TIP3   OH2  669   8.285   2.941   6.215
  243TIP3    H1  670   8.331   2.895   6.285
  243TIP3    H2  671   8.305   2.891   6.136
  244TIP3   OH2  672   4.826   5.238   0.165
  244TIP3    H1  673   4.783   5.284   0.093
  244TIP3    H2  674   4.879   5.171   0.122
  245TIP3   OH2  675   1.195   3.159   5.280
  245TIP3    H1  676   1.169   3.100   5.350
  245TIP3    H2  677   1.123   3.155   5.217
  246TIP3   OH2  678   7.448   1.595   0.319
  246TIP3    H1  679   7.500   1.670   0.348
  246TIP3    H2  680   7.439   1.607   0.225
  247TIP3   OH2  681   3.920   3.432   1.979
  247TIP3    H1  682   3.877   3.468   2.056
  247TIP3    H2  683   4.014   3.434   2.001
  248TIP3   OH2  684   2.603   5.293   3.576
  248TIP3    H1  685   2.554   5.231   3.630
  248TIP3    H2  686   2.695   5.271   3.591
  249TIP3   OH2  687   4.895   2.016   5.476
  249TIP3    H1  688   4.902   1.967   5.558
  249TIP3    H2  689   4.978   2.003   5.432
  250TIP3   OH2  690   7.193   4.832   5.468
  250TIP3    H1  691   7.133   4.870   5.533
  250TIP3    H2  692   7.262   4.897   5.458
  251TIP3   OH2  693   4.485   6.590   3.748
  251TIP3    H1  694   4.485   6.503   3.709
  251TIP3    H2  695   4.430   6.582   3.826
  252TIP3   OH2  696   3.582   4.795   4.392
  252TIP3    H1  697   3.566   4.800   4.297
  252TIP3    H2  698   3.644   4.723   4.401
  253TIP3   OH2  699   3.264   1.372   0.260
  253TIP3    H1  700   3.218   1.456   0.255
  253TIP3    H2  701   3.355   1.394   0.243
  254TIP3   OH2  702   4.955   3.310   5.308
  254TIP3    H1  703   5.021   3.267   5.253
  254TIP3    H2  704   4.883   3.248   5.312
  255TIP3   OH2  705   5.548   1.779   3.513
  255TIP3    H1  706   5.487   1.798   3.584
  255TIP3    H2  707   5.635   1.782   3.553
  256TIP3   OH2  708   6.674   1.901   0.304
  256TIP3    H1  709   6.737   1.958   0.260
  256TIP3    H2  710   6.723   1.821   0.323
  257TIP3   OH2  711   8.362   1.699   6.295
  257TIP3    H1  712   8.421   1.684   6.369
  257TIP3    H2  713   8.407   1.765   6.241
  258TIP3   OH2  714   6.040   3.418   2.455
  258TIP3    H1  715   5.956   3.465   2.454
  258TIP3    H2  716   6.032   3.355   2.383
  259TIP3   OH2  717   5.328   5.165   2.805
  259TIP3    H1  718   5.353   5.094   2.745
  259TIP3    H2  719   5.276   5.123   2.873
  260TIP3   OH2  720   4.022   6.399   1.394
  260TIP3    H1  721   4.093   6.460   1.374
  260TIP3    H2  722   4.041   6.368   1.483
  261TIP3   OH2  723   3.514   1.863   4.847
  261TIP3    H1  724   3.428   1.826   4.825
  261TIP3    H2  725   3.549   1.804   4.913
  262TIP3   OH2  726   6.473   1.220   5.127
  262TIP3    H1  727   6.393   1.167   5.119
  262TIP3    H2  728   6.466   1.285   5.057
  263TIP3   OH2  729   4.373   7.309   4.534
  263TIP3    H1  730   4.414   7.233   4.574
  263TIP3    H2  731   4.444   7.355   4.490
  264TIP3   OH2  732   3.048   2.910   1.106
  264TIP3    H1  733   3.131   2.903   1.060
  264TIP3    H2  734   3.008   2.824   1.096
  265TIP3   OH2  735   3.856   4.950   2.892
  265TIP3    H1  736   3.779   5.003   2.909
  265TIP3    H2  737   3.895   4.935   2.979
  266TIP3   OH2  738   8.294   2.537   1.135
  266TIP3    H1  739   8.371   2.587   1.161
  266TIP3    H2  740   8.222   2.600   1.140
  267TIP3   OH2  741   3.375   2.196   3.429
  267TIP3    H1  742   3.280   2.204   3.423
  267TIP3    H2  743   3.389   2.110   3.469
  268TIP3   OH2  744   3.745   0.429   4.927
  268TIP3    H1  745   3.674   0.392   4.874
  268TIP3    H2  746   3.705   0.504   4.970
  269TIP3   OH2  747   4.315   7.201   0.241
  269TIP3    H1  748   4.375   7.261   0.197
  269TIP3    H2  749   4.229   7.221   0.204
  270TIP3   OH2  750   6.881   7.152   5.604
  270TIP3    H1  751   6.925   7.100   5.672
  270TIP3    H2  752   6.792   7.116   5.600
  271TIP3   OH2  753   2.368   0.548   2.122
  271TIP3    H1  754   2.274   0.534   2.107
  271TIP3    H2  755   2.373   0.569   2.215
  272TIP3   OH2  756   1.748   3.169   6.202
  272TIP3    H1  757   1.766   3.261   6.223
  272TIP3    H2  758   1.659   3.169   6.166
  273TIP3   OH2  759   4.224   7.195   2.709
  273TIP3    H1  760   4.294   7.252   2.742
  273TIP3    H2  761   4.230   7.116   2.763
  274TIP3   OH2  762   4.412   3.018   6.314
  274TIP3    H1  763   4.419   3.079   6.241
  274TIP3    H2  764   4.318   3.003   6.324
  275TIP3   OH2  765   8.064   7.684   2.474
  275TIP3    H1  766   7.986   7.711   2.523
  275TIP3    H2  767   8.069   7.589   2.485
  276TIP3   OH2  768   1.957   6.825   3.545
  276TIP3    H1  769   2.033   6.801   3.492
  276TIP3    H2  770   1.886   6.835   3.482
  277TIP3   OH2  771   1.018   5.099   3.021
  277TIP3    H1  772   0.973   5.182   3.041
  277TIP3    H2  773   1.107   5.126   2.998
  278TIP3   OH2  774   7.394   3.779   4.913
  278TIP3    H1  775   7.452   3.724   4.964
  278TIP3    H2  776   7.324   3.803   4.973
  279TIP3   OH2  777   1.841   7.576   6.564
  279TIP3    H1  778   1.898   7.523   6.619
  279TIP3    H2  779   1.753   7.563   6.601
  280TIP3   OH2  780   0.234   4.073   2.828
  280TIP3    H1  781   0.157   4.064   2.771
  280TIP3    H2  782   0.303   4.023   2.784
  281TIP3   OH2  783   0.654   3.999   2.942
  281TIP3    H1  784   0.648   4.089   2.910
  281TIP3    H2  785   0.743   3.993   2.977
  282TIP3   OH2  786   7.029   1.092   6.207
  282TIP3    H1  787   7.074   1.089   6.122
  282TIP3    H2  788   7.001   1.184   6.216
  283TIP3   OH2  789   7.790   5.682   3.632
  283TIP3    H1  790   7.838   5.605   3.662
  283TIP3    H2  791   7.856   5.751   3.624
  284TIP3   OH2  792   6.581   6.314   3.274
  284TIP3    H1  793   6.504   6.317   3.330
  284TIP3    H2  794   6.560   6.369   3.199
  285TIP3   OH2  795   0.986   4.940   4.487
  285TIP3    H1  796   0.920   4.952   4.555
  285TIP3    H2  797   0.936   4.944   4.405
  286TIP3   OH2  798   0.863   4.501   5.973
  286TIP3    H1  799   0.857   4.489   5.878
  286TIP3    H2  800   0.829   4.419   6.009
  287TIP3   OH2  801   3.571   3.445   1.210
  287TIP3    H1  802   3.492   3.391   1.207
  287TIP3    H2  803   3.550   3.515   1.272
  288TIP3   OH2  804   8.164   3.506   2.679
  288TIP3    H1  805   8.115   3.447   2.737
  288TIP3    H2  806   8.232   3.452   2.641
  289TIP3   OH2  807   3.847   0.960   4.959
  289TIP3    H1  808   3.900   1.025   4.913
  289TIP3    H2  809   3.902   0.881   4.961
  290TIP3   OH2  810   4.038   4.722   1.893
  290TIP3    H1  811   3.946   4.710   1.868
  290TIP3    H2  812   4.060   4.644   1.944
  291TIP3   OH2  813   7.158   5.987   2.351
  291TIP3    H1  814   7.162   6.064   2.408
  291TIP3    H2  815   7.080   5.939   2.380
  292TIP3   OH2  816   1.368   7.222   6.300
  292TIP3    H1  817   1.325   7.306   6.284
  292TIP3    H2  818   1.364   7.176   6.216
  293TIP3   OH2  819   5.192   1.069   1.348
  293TIP3    H1  820   5.284   1.061   1.375
  293TIP3    H2  821   5.193   1.140   1.284
  294TIP3   OH2  822   2.785   6.427   3.992
  294TIP3    H1  823   2.718   6.437   3.925
  294TIP3    H2  824   2.765   6.495   4.056
  295TIP3   OH2  825   2.547   7.405   1.334
  295TIP3    H1  826   2.553   7.496   1.304
  295TIP3    H2  827   2.632   7.367   1.312
  296TIP3   OH2  828   2.297   4.064   0.854
  296TIP3    H1  829   2.303   4.114   0.772
  296TIP3    H2  830   2.387   4.048   0.879
  297TIP3   OH2  831   0.770   0.674   4.750
  297TIP3    H1  832   0.832   0.664   4.677
  297TIP3    H2  833   0.686   0.691   4.708
  298TIP3   OH2  834   4.390   0.251   0.238
  298TIP3    H1  835   4.483   0.246   0.215
  298TIP3    H2  836   4.384   0.205   0.322
  299TIP3   OH2  837   5.629   0.412   5.489
  299TIP3    H1  838   5.623   0.365   5.572
  299TIP3    H2  839   5.544   0.454   5.479
  300TIP3   OH2  840   2.817   6.135   0.104
  300TIP3    H1  841   2.748   6.128   0.038
  300TIP3    H2  842   2.889   6.082   0.069
  301TIP3   OH2  843   6.066   5.651   4.627
  301TIP3    H1  844   6.020   5.723   4.584
  301TIP3    H2  845   5.998   5.607   4.678
  302TIP3   OH2  846   0.237   4.184   0.180
  302TIP3    H1  847   0.185   4.253   0.138
  302TIP3    H2  848   0.243   4.115   0.113
  303TIP3   OH2  849   5.048   1.455   5.297
  303TIP3    H1  850   5.136   1.418   5.305
  303TIP3    H2  851   5.058   1.531   5.240
  304TIP3   OH2  852   2.296   7.689   4.244
  304TIP3    H1  853   2.260   7.776   4.266
  304TIP3    H2  854   2.221   7.641   4.209
  305TIP3   OH2  855   8.293   0.887   6.522
  305TIP3    H1  856   8.258   0.921   6.604
  305TIP3    H2  857   8.362   0.826   6.550
  306TIP3   OH2  858   5.895   2.321   6.083
  306TIP3    H1  859   5.912   2.396   6.026
  306TIP3    H2  860   5.816   2.346   6.132
  307TIP3   OH2  861   1.068   6.939   3.004
  307TIP3    H1  862   1.009   6.985   2.944
  307TIP3    H2  863   1.066   6.848   2.974
  308TIP3   OH2  864   4.717   6.036   5.231
  308TIP3    H1  865   4.642   6.086   5.200
  308TIP3    H2  866   4.696   5.945   5.210
  309TIP3   OH2  867   5.470   1.977   2.718
  309TIP3    H1  868   5.412   2.046   2.750
  309TIP3    H2  869   5.516   2.016   2.644
  310TIP3   OH2  870   5.275   6.909   2.526
  310TIP3    H1  871   5.342   6.890   2.592
  310TIP3    H2  872   5.211   6.965   2.572
  311TIP3   OH2  873   0.028   4.962   6.101
  311TIP3    H1  874  -0.048   4.998   6.055
  311TIP3    H2  875   0.100   5.020   6.077
  312TIP3   OH2  876   6.187   1.059   3.058
  312TIP3    H1  877   6.124   1.004   3.012
  312TIP3    H2  878   6.166   1.148   3.030
  313TIP3   OH2  879   5.852   3.246   3.230
  313TIP3    H1  880   5.914   3.282   3.293
  313TIP3    H2  881   5.888   3.160   3.207
  314TIP3   OH2  882   5.476   0.383   4.532
  314TIP3    H1  883   5.508   0.473   4.523
  314TIP3    H2  884   5.383   0.389   4.510
  315TIP3   OH2  885   5.541   6.217   5.218
  315TIP3    H1  886   5.476   6.203   5.150
  315TIP3    H2  887   5.622   6.181   5.181
  316TIP3   OH2  888   2.793   7.173   1.743
  316TIP3    H1  889   2.821   7.165   1.652
  316TIP3    H2  890   2.705   7.210   1.738
  317TIP3   OH2  891   5.763   6.951   5.776
  317TIP3    H1  892   5.764   6.874   5.833
  317TIP3    H2  893   5.826   7.011   5.817
  318TIP3   OH2  894   6.636   7.603   4.828
  318TIP3    H1  895   6.568   7.655   4.784
  318TIP3    H2  896   6.611   7.513   4.811
  319TIP3   OH2  897   2.293   6.665   0.856
  319TIP3    H1  898   2.269   6.676   0.764
  319TIP3    H2  899   2.275   6.573   0.875
  320TIP3   OH2  900   1.498   2.668   6.461
  320TIP3    H1  901   1.434   2.675   6.391
  320TIP3    H2  902   1.455   2.616   6.529
  321TIP3   OH2  903   4.973   6.078   5.732
  321TIP3    H1  904   5.064   6.060   5.756
  321TIP3    H2  905   4.921   6.034   5.800
  322TIP3   OH2  906   5.040   6.111   1.192
  322TIP3    H1  907   5.081   6.092   1.276
  322TIP3    H2  908   5.097   6.176   1.151
  323TIP3   OH2  909   6.954   5.282   1.260
  323TIP3    H1  910   6.870   5.312   1.293
  323TIP3    H2  911   7.000   5.250   1.338
  324TIP3   OH2  912   3.461   4.017   3.761
  324TIP3    H1  913   3.471   3.983   3.850
  324TIP3    H2  914   3.446   3.939   3.707
  325TIP3   OH2  915   0.367   4.178   0.429
  325TIP3    H1  916   0.415   4.095   0.432
  325TIP3    H2  917   0.310   4.170   0.352
  326TIP3   OH2  918   8.284  -0.009   6.639
  326TIP3    H1  919   8.371  -0.043   6.620
  326TIP3    H2  920   8.300   0.074   6.684
  327TIP3   OH2  921   6.925   3.880   6.811
  327TIP3    H1  922   6.893   3.792   6.791
  327TIP3    H2  923   6.963   3.871   6.899
  328TIP3   OH2  924   6.903   7.344   0.225
  328TIP3    H1  925   6.908   7.287   0.302
  328TIP3    H2  926   6.914   7.433   0.260
  329TIP3   OH2  927   3.402   5.530   4.134
  329TIP3    H1  928   3.411   5.520   4.229
  329TIP3    H2  929   3.320   5.579   4.123
  330TIP3   OH2  930   3.809   2.430   1.394
  330TIP3    H1  931   3.811   2.334   1.395
  330TIP3    H2  932   3.723   2.452   1.428
  331TIP3   OH2  933   1.095   6.381   1.018
  331TIP3    H1  934   1.173   6.361   1.070
  331TIP3    H2  935   1.060   6.295   0.994
  332TIP3   OH2  936   8.210   5.872   1.143
  332TIP3    H1  937   8.294   5.917   1.136
  332TIP3    H2  938   8.229   5.782   1.115
  333TIP3   OH2  939   3.513   6.037   3.048
  333TIP3    H1  940   3.539   5.970   3.110
  333TIP3    H2  941   3.454   6.094   3.097
  334TIP3   OH2  942   8.323   4.448   0.653
  334TIP3    H1  943   8.370   4.529   0.634
  334TIP3    H2  944   8.299   4.455   0.746
  335TIP3   OH2  945   3.146   6.190   0.218
  335TIP3    H1  946   3.073   6.203   0.279
  335TIP3    H2  947   3.222   6.175   0.274
  336TIP3   OH2  948   6.313   5.413   3.295
  336TIP3    H1  949   6.376   5.344   3.318
  336TIP3    H2  950   6.366   5.482   3.255
  337TIP3   OH2  951   8.037   3.296   4.454
  337TIP3    H1  952   8.088   3.352   4.513
  337TIP3    H2  953   7.946   3.309   4.481
  338TIP3   OH2  954   5.962   1.780   0.863
  338TIP3    H1  955   5.960   1.827   0.779
  338TIP3    H2  956   6.052   1.790   0.894
  339TIP3   OH2  957   5.153   4.367   3.222
  339TIP3    H1  958   5.166   4.462   3.224
  339TIP3    H2  959   5.237   4.330   3.251
  340TIP3   OH2  960   6.295   4.235   4.626
  340TIP3    H1  961   6.220   4.269   4.577
  340TIP3    H2  962   6.320   4.308   4.684
  341TIP3   OH2  963   1.973   3.850   6.254
  341TIP3    H1  964   1.886   3.857   6.293
  341TIP3    H2  965   1.956   3.830   6.162
  342TIP3   OH2  966   5.925   7.079   0.733
  342TIP3    H1  967   5.896   6.999   0.689
  342TIP3    H2  968   5.924   7.146   0.664
  343TIP3   OH2  969   6.173   4.166   0.770
  343TIP3    H1  970   6.085   4.203   0.773
  343TIP3    H2  971   6.160   4.073   0.750
  344TIP3   OH2  972   1.267   6.400   1.358
  344TIP3    H1  973   1.319   6.437   1.429
  344TIP3    H2  974   1.326   6.398   1.283
  345TIP3   OH2  975   0.100   6.246   4.381
  345TIP3    H1  976   0.188   6.277   4.406
  345TIP3    H2  977   0.094   6.265   4.287
  346TIP3   OH2  978   6.608   3.577   6.160
  346TIP3    H1  979   6.586   3.484   6.166
  346TIP3    H2  980   6.703   3.579   6.159
  347TIP3   OH2  981   5.540   4.157   1.641
  347TIP3    H1  982   5.478   4.134   1.710
  347TIP3    H2  983   5.606   4.088   1.644
  348TIP3   OH2  984   5.870   3.329   0.371
  348TIP3    H1  985   5.928   3.255   0.350
  348TIP3    H2  986   5.927   3.406   0.362
  349TIP3   OH2  987   2.817   6.876   1.571
  349TIP3    H1  988   2.881   6.944   1.554
  349TIP3    H2  989   2.814   6.825   1.489
  350TIP3   OH2  990   1.779   4.353   2.398
  350TIP3    H1  991   1.810   4.264   2.385
  350TIP3    H2  992   1.737   4.376   2.315
  351TIP3   OH2  993   8.177   5.971   1.699
  351TIP3    H1  994   8.090   5.998   1.728
  351TIP3    H2  995   8.237   6.033   1.741
  352TIP3   OH2  996   4.759   7.529   3.230
  352TIP3    H1  997   4.688   7.500   3.287
  352TIP3    H2  998   4.791   7.609   3.270
  353TIP3   OH2  999   1.717   0.805   3.609
  353TIP3    H1 1000   1.664   0.765   3.540
  353TIP3    H2 1001   1.680   0.892   3.621
  354TIP3   OH2 1002   5.606   2.287   4.833
  354TIP3    H1 1003   5.666   2.300   4.906
  354TIP3    H2 1004   5.520   2.312   4.867
  355TIP3   OH2 1005   3.250   0.545   4.978
  355TIP3    H1 1006   3.284   0.630   4.950
  355TIP3    H2 1007   3.181   0.566   5.041
  356TIP3   OH2 1008   5.549   3.869   5.748
  356TIP3    H1 1009   5.592   3.802   5.800
  356TIP3    H2 1010   5.613   3.891   5.679
  357TIP3   OH2 1011   4.814   4.812   1.556
  357TIP3    H1 1012   4.787   4.810   1.464
  357TIP3    H2 1013   4.845   4.724   1.575
  358TIP3   OH2 1014   1.226   7.899   1.797
  358TIP3    H1 1015   1.168   7.826   1.775
  358TIP3    H2 1016   1.280   7.911   1.718
  359TIP3   OH2 1017   0.186   7.787   6.012
  359TIP3    H1 1018   0.172   7.693   6.000
  359TIP3    H2 1019   0.280   7.796   6.025
  360TIP3   OH2 1020   2.644   0.553   3.814
  360TIP3    H1 1021   2.699   0.476   3.802
  360TIP3    H2 1022   2.593   0.533   3.893
  361TIP3   OH2 1023   3.001   2.953   3.886
  361TIP3    H1 1024   2.955   2.958   3.970
  361TIP3    H2 1025   2.934   2.922   3.825
  362TIP3   OH2 1026   3.123   5.951   1.377
  362TIP3    H1 1027   3.122   5.868   1.424
  362TIP3    H2 1028   3.191   5.940   1.310
  363TIP3   OH2 1029   0.529   1.733   3.186
  363TIP3    H1 1030   0.564   1.732   3.096
  363TIP3    H2 1031   0.542   1.823   3.215
  364TIP3   OH2 1032   3.276   4.239   5.691
  364TIP3    H1 1033   3.209   4.266   5.628
  364TIP3    H2 1034   3.298   4.320   5.739
  365TIP3   OH2 1035   3.018   1.412   5.268
  365TIP3    H1 1036   3.057   1.335   5.227
  365TIP3    H2 1037   3.055   1.414   5.356
  366TIP3   OH2 1038   2.376   7.752   0.791
  366TIP3    H1 1039   2.318   7.828   0.804
  366TIP3    H2 1040   2.464   7.789   0.787
  367TIP3   OH2 1041   1.829   5.887   1.070
  367TIP3    H1 1042   1.860   5.866   0.982
  367TIP3    H2 1043   1.843   5.807   1.121
  368TIP3   OH2 1044   1.272   7.391   2.985
  368TIP3    H1 1045   1.274   7.394   3.080
  368TIP3    H2 1046   1.179   7.396   2.962
  369TIP3   OH2 1047   0.463   0.665   1.414
  369TIP3    H1 1048   0.410   0.623   1.346
  369TIP3    H2 1049   0.544   0.614   1.416
  370TIP3   OH2 1050   3.448   5.770   2.288
  370TIP3    H1 1051   3.379   5.771   2.354
  370TIP3    H2 1052   3.417   5.829   2.220
  371TIP3   OH2 1053   0.464   7.627   2.388
  371TIP3    H1 1054   0.474   7.643   2.482
  371TIP3    H2 1055   0.498   7.538   2.375
  372TIP3   OH2 1056   0.832   4.350   3.743
  372TIP3    H1 1057   0.841   4.263   3.782
  372TIP3    H2 1058   0.809   4.333   3.652
  373TIP3   OH2 1059   0.787   0.547   6.541
  373TIP3    H1 1060   0.809   0.476   6.481
  373TIP3    H2 1061   0.715   0.512   6.593
  374TIP3   OH2 1062   3.671   0.198   1.099
  374TIP3    H1 1063   3.647   0.155   1.016
  374TIP3    H2 1064   3.707   0.282   1.073
  375TIP3   OH2 1065   8.269   6.642   1.854
  375TIP3    H1 1066   8.333   6.677   1.793
  375TIP3    H2 1067   8.196   6.614   1.799
  376TIP3   OH2 1068   3.849   6.729   1.966
  376TIP3    H1 1069   3.807   6.666   2.025
  376TIP3    H2 1070   3.942   6.721   1.985
  377TIP3   OH2 1071   7.321   3.636   5.326
  377TIP3    H1 1072   7.316   3.552   5.371
  377TIP3    H2 1073   7.230   3.668   5.326
  378TIP3   OH2 1074   3.764   2.497   2.847
  378TIP3    H1 1075   3.735   2.411   2.879
  378TIP3    H2 1076   3.689   2.531   2.799
  379TIP3   OH2 1077   1.780   7.910   2.211
  379TIP3    H1 1078   1.759   7.818   2.227
  379TIP3    H2 1079   1.696   7.951   2.193
  380TIP3   OH2 1080   0.666   1.411   6.231
  380TIP3    H1 1081   0.673   1.439   6.322
  380TIP3    H2 1082   0.690   1.488   6.180
  381TIP3   OH2 1083   5.308   6.335   0.218
  381TIP3    H1 1084   5.239   6.395   0.191
  381TIP3    H2 1085   5.269   6.282   0.288
  382TIP3   OH2 1086   2.053   3.650   0.749
  382TIP3    H1 1087   2.106   3.649   0.828
  382TIP3    H2 1088   2.035   3.558   0.730
  383TIP3   OH2 1089   0.146   4.727   4.656
  383TIP3    H1 1090   0.146   4.816   4.621
  383TIP3    H2 1091   0.069   4.723   4.713
  384TIP3   OH2 1092   4.658   3.346   5.863
  384TIP3    H1 1093   4.617   3.350   5.949
  384TIP3    H2 1094   4.752   3.356   5.880
  385TIP3   OH2 1095   6.044   3.391   3.049
  385TIP3    H1 1096   6.045   3.395   3.145
  385TIP3    H2 1097   5.961   3.349   3.028
  386TIP3   OH2 1098   0.319   3.316   4.399
  386TIP3    H1 1099   0.270   3.235   4.386
  386TIP3    H2 1100   0.274   3.380   4.344
  387TIP3   OH2 1101   4.170   2.752   1.823
  387TIP3    H1 1102   4.237   2.812   1.791
  387TIP3    H2 1103   4.128   2.720   1.743
  388TIP3   OH2 1104   5.129   1.320   6.839
  388TIP3    H1 1105   5.169   1.321   6.752
  388TIP3    H2 1106   5.084   1.404   6.847
  389TIP3   OH2 1107   3.093   6.669   4.020
  389TIP3    H1 1108   3.173   6.643   3.972
  389TIP3    H2 1109   3.064   6.749   3.977
  390TIP3   OH2 1110   0.791   3.100   2.380
  390TIP3    H1 1111   0.811   3.157   2.454
  390TIP3    H2 1112   0.876   3.081   2.341
  391TIP3   OH2 1113   8.308   1.486   0.274
  391TIP3    H1 1114   8.239   1.550   0.291
  391TIP3    H2 1115   8.295   1.418   0.339
  392TIP3   OH2 1116   3.704   7.265   6.097
  392TIP3    H1 1117   3.724   7.265   6.190
  392TIP3    H2 1118   3.787   7.283   6.054
  393TIP3   OH2 1119   0.847   4.711   4.908
  393TIP3    H1 1120   0.860   4.796   4.950
  393TIP3    H2 1121   0.808   4.656   4.976
  394TIP3   OH2 1122   1.818   5.840   3.681
  394TIP3    H1 1123   1.829   5.935   3.672
  394TIP3    H2 1124   1.734   5.822   3.639
  395TIP3   OH2 1125   5.908   1.515   1.301
  395TIP3    H1 1126   5.867   1.440   1.259
  395TIP3    H2 1127   5.879   1.590   1.250
  396TIP3   OH2 1128   6.803   4.696   6.469
  396TIP3    H1 1129   6.832   4.606   6.480
  396TIP3    H2 1130   6.881   4.743   6.440
  397TIP3   OH2 1131   0.489   4.087   1.888
  397TIP3    H1 1132   0.455   4.144   1.958
  397TIP3    H2 1133   0.583   4.079   1.908
  398TIP3   OH2 1134   2.188   0.994   0.700
  398TIP3    H1 1135   2.272   1.038   0.686
  398TIP3    H2 1136   2.162   1.020   0.788
  399TIP3   OH2 1137   3.803   2.067   3.095
  399TIP3    H1 1138   3.781   2.086   3.003
  399TIP3    H2 1139   3.898   2.079   3.100
  400TIP3   OH2 1140   0.322   5.101   2.294
  400TIP3    H1 1141   0.287   5.057   2.372
  400TIP3    H2 1142   0.375   5.172   2.328
  401TIP3   OH2 1143   7.611   5.787   4.141
  401TIP3    H1 1144   7.518   5.785   4.117
  401TIP3    H2 1145   7.656   5.757   4.061
  402TIP3   OH2 1146   5.256   3.752   1.723
  402TIP3    H1 1147   5.289   3.833   1.761
  402TIP3    H2 1148   5.281   3.684   1.786
  403TIP3   OH2 1149   3.978   7.066   6.339
  403TIP3    H1 1150   4.015   6.988   6.297
  403TIP3    H2 1151   3.981   7.046   6.433
  404TIP3   OH2 1152   8.174   1.020   0.922
  404TIP3    H1 1153   8.217   1.075   0.856
  404TIP3    H2 1154   8.117   1.081   0.969
  405TIP3   OH2 1155   0.897   6.726   0.354
  405TIP3    H1 1156   0.976   6.746   0.304
  405TIP3    H2 1157   0.908   6.636   0.382
  406TIP3   OH2 1158   3.842   4.144   3.772
  406TIP3    H1 1159   3.907   4.210   3.747
  406TIP3    H2 1160   3.892   4.063   3.779
  407TIP3   OH2 1161   3.529   2.443   1.268
  407TIP3    H1 1162   3.442   2.404   1.278
  407TIP3    H2 1163   3.589   2.368   1.271
  408TIP3   OH2 1164   6.077   1.788   6.142
  408TIP3    H1 1165   6.128   1.720   6.098
  408TIP3    H2 1166   6.069   1.858   6.077
  409TIP3   OH2 1167   3.416   4.774   6.449
  409TIP3    H1 1168   3.486   4.822   6.492
  409TIP3    H2 1169   3.336   4.813   6.483
  410TIP3   OH2 1170   2.175   6.636   6.763
  410TIP3    H1 1171   2.165   6.727   6.738
  410TIP3    H2 1172   2.139   6.587   6.689
  411TIP3   OH2 1173   7.520   7.909   2.287
  411TIP3    H1 1174   7.580   7.926   2.214
  411TIP3    H2 1175   7.574   7.866   2.353
  412TIP3   OH2 1176   3.752   3.582   6.022
  412TIP3    H1 1177   3.778   3.516   6.086
  412TIP3    H2 1178   3.792   3.663   6.052
  413TIP3   OH2 1179   6.325   0.881   3.239
  413TIP3    H1 1180   6.277   0.951   3.195
  413TIP3    H2 1181   6.417   0.897   3.217
  414TIP3   OH2 1182   5.615   0.587   3.173
  414TIP3    H1 1183   5.626   0.494   3.191
  414TIP3    H2 1184   5.703   0.618   3.152
  415TIP3   OH2 1185   5.084   4.196   6.624
  415TIP3    H1 1186   5.168   4.182   6.668
  415TIP3    H2 1187   5.018   4.178   6.691
  416TIP3   OH2 1188   2.347   3.712   4.495
  416TIP3    H1 1189   2.258   3.683   4.475
  416TIP3    H2 1190   2.357   3.697   4.589
  417TIP3   OH2 1191   2.323   3.070   6.033
  417TIP3    H1 1192   2.397   3.093   6.090
  417TIP3    H2 1193   2.322   2.974   6.032
  418TIP3   OH2 1194   6.075   6.029   6.764
  418TIP3    H1 1195   6.164   6.039   6.731
  418TIP3    H2 1196   6.056   6.111   6.809
  419TIP3   OH2 1197   5.661   2.018   4.023
  419TIP3    H1 1198   5.607   1.946   3.990
  419TIP3    H2 1199   5.685   1.991   4.112
  420TIP3   OH2 1200   0.842   6.976   2.146
  420TIP3    H1 1201   0.852   6.930   2.229
  420TIP3    H2 1202   0.879   7.063   2.162
  421TIP3   OH2 1203   5.886   6.811   1.268
  421TIP3    H1 1204   5.866   6.749   1.198
  421TIP3    H2 1205   5.917   6.889   1.222
  422TIP3   OH2 1206   8.358   6.200   1.786
  422TIP3    H1 1207   8.395   6.237   1.867
  422TIP3    H2 1208   8.427   6.142   1.753
  423TIP3   OH2 1209   2.004   5.264   5.646
  423TIP3    H1 1210   1.930   5.321   5.667
  423TIP3    H2 1211   1.980   5.179   5.683
  424TIP3   OH2 1212   4.788   0.272   0.813
  424TIP3    H1 1213   4.695   0.267   0.788
  424TIP3    H2 1214   4.787   0.292   0.907
  425TIP3   OH2 1215   8.151   4.222   6.394
  425TIP3    H1 1216   8.156   4.248   6.486
  425TIP3    H2 1217   8.088   4.282   6.355
  426TIP3   OH2 1218   4.956   0.811   0.968
  426TIP3    H1 1219   4.878   0.865   0.954
  426TIP3    H2 1220   4.981   0.827   1.059
  427TIP3   OH2 1221   1.882   5.670   5.921
  427TIP3    H1 1222   1.878   5.600   5.856
  427TIP3    H2 1223   1.793   5.705   5.925
  428TIP3   OH2 1224   0.389   3.363   0.927
  428TIP3    H1 1225   0.372   3.453   0.897
  428TIP3    H2 1226   0.415   3.373   1.018
  429TIP3   OH2 1227   0.383   4.328   5.933
  429TIP3    H1 1228   0.304   4.280   5.907
  429TIP3    H2 1229   0.405   4.293   6.019
  430TIP3   OH2 1230   4.307   7.660   0.623
  430TIP3    H1 1231   4.391   7.700   0.601
  430TIP3    H2 1232   4.275   7.625   0.540
  431TIP3   OH2 1233   6.539   6.647   1.857
  431TIP3    H1 1234   6.511   6.600   1.779
  431TIP3    H2 1235   6.556   6.736   1.827
  432TIP3   OH2 1236   0.254   2.703   3.414
  432TIP3    H1 1237   0.286   2.643   3.482
  432TIP3    H2 1238   0.326   2.765   3.401
  433TIP3   OH2 1239   5.390   7.721   6.273
  433TIP3    H1 1240   5.361   7.804   6.310
  433TIP3    H2 1241   5.396   7.662   6.348
  434TIP3   OH2 1242   2.673   5.006   1.821
  434TIP3    H1 1243   2.755   5.044   1.854
  434TIP3    H2 1244   2.695   4.915   1.803
  435TIP3   OH2 1245   5.029   6.432   4.085
  435TIP3    H1 1246   5.004   6.485   4.160
  435TIP3    H2 1247   5.056   6.495   4.018
  436TIP3   OH2 1248   8.014   0.042   1.645
  436TIP3    H1 1249   8.097   0.077   1.612
  436TIP3    H2 1250   8.006   0.078   1.733
  437TIP3   OH2 1251   2.266   1.935   2.694
  437TIP3    H1 1252   2.289   1.986   2.771
  437TIP3    H2 1253   2.219   1.996   2.637
  438TIP3   OH2 1254   3.267   4.264   0.639
  438TIP3    H1 1255   3.265   4.193   0.575
  438TIP3    H2 1256   3.312   4.227   0.715
  439TIP3   OH2 1257   4.767   0.549   1.202
  439TIP3    H1 1258   4.776   0.612   1.273
  439TIP3    H2 1259   4.838   0.486   1.217
  440TIP3   OH2 1260   0.138   7.614   2.695
  440TIP3    H1 1261   0.090   7.533   2.675
  440TIP3    H2 1262   0.133   7.665   2.614
  441TIP3   OH2 1263   4.371   6.501   4.002
  441TIP3    H1 1264   4.367   6.546   4.086
  441TIP3    H2 1265   4.280   6.499   3.971
  442TIP3   OH2 1266   3.683   4.305   3.537
  442TIP3    H1 1267   3.593   4.290   3.566
  442TIP3    H2 1268   3.736   4.254   3.597
  443TIP3   OH2 1269   2.685   7.850   5.973
  443TIP3    H1 1270   2.713   7.774   5.922
  443TIP3    H2 1271   2.636   7.904   5.910
  444TIP3   OH2 1272   6.695   1.132   4.185
  444TIP3    H1 1273   6.616   1.157   4.138
  444TIP3    H2 1274   6.718   1.210   4.236
  445TIP3   OH2 1275   2.973   2.953   2.783
  445TIP3    H1 1276   2.928   2.988   2.706
  445TIP3    H2 1277   3.017   2.874   2.752
  446TIP3   OH2 1278   5.593   1.010   2.225
  446TIP3    H1 1279   5.503   0.997   2.195
  446TIP3    H2 1280   5.609   0.936   2.283
  447TIP3   OH2 1281   4.018   3.542   4.082
  447TIP3    H1 1282   4.028   3.521   3.989
  447TIP3    H2 1283   4.000   3.636   4.083
  448TIP3   OH2 1284   3.297   3.549   1.869
  448TIP3    H1 1285   3.257   3.636   1.877
  448TIP3    H2 1286   3.227   3.494   1.833
  449TIP3   OH2 1287   5.162   0.689   1.428
  449TIP3    H1 1288   5.235   0.632   1.404
  449TIP3    H2 1289   5.163   0.692   1.523
  450TIP3   OH2 1290   1.746   0.553   3.995
  450TIP3    H1 1291   1.687   0.577   3.923
  450TIP3    H2 1292   1.772   0.463   3.974
  451TIP3   OH2 1293   2.900   3.696   4.568
  451TIP3    H1 1294   2.896   3.631   4.498
  451TIP3    H2 1295   2.810   3.726   4.579
  452TIP3   OH2 1296   0.762   5.642   2.526
  452TIP3    H1 1297   0.707   5.598   2.460
  452TIP3    H2 1298   0.852   5.624   2.498
  453TIP3   OH2 1299   0.608   6.587   5.883
  453TIP3    H1 1300   0.605   6.576   5.978
  453TIP3    H2 1301   0.623   6.681   5.871
  454TIP3   OH2 1302   8.353   0.813   4.106
  454TIP3    H1 1303   8.326   0.848   4.192
  454TIP3    H2 1304   8.429   0.758   4.125
  455TIP3   OH2 1305   7.289   0.910   3.991
  455TIP3    H1 1306   7.356   0.969   4.026
  455TIP3    H2 1307   7.228   0.898   4.063
  456TIP3   OH2 1308   2.420   7.233   0.329
  456TIP3    H1 1309   2.405   7.285   0.250
  456TIP3    H2 1310   2.367   7.276   0.396
  457TIP3   OH2 1311   0.107   3.068   4.454
  457TIP3    H1 1312   0.016   3.049   4.474
  457TIP3    H2 1313   0.121   3.032   4.367
  458TIP3   OH2 1314   8.024   0.490   1.095
  458TIP3    H1 1315   7.990   0.431   1.162
  458TIP3    H2 1316   7.957   0.558   1.087
  459TIP3   OH2 1317   7.134   4.650   3.168
  459TIP3    H1 1318   7.194   4.610   3.231
  459TIP3    H2 1319   7.191   4.703   3.111
  460TIP3   OH2 1320  -0.020   0.514   3.882
  460TIP3    H1 1321   0.072   0.502   3.855
  460TIP3    H2 1322  -0.054   0.579   3.820
  461TIP3   OH2 1323   1.556   7.773   2.682
  461TIP3    H1 1324   1.512   7.756   2.766
  461TIP3    H2 1325   1.527   7.701   2.626
  462TIP3   OH2 1326   7.246   6.990   0.706
  462TIP3    H1 1327   7.284   6.909   0.739
  462TIP3    H2 1328   7.172   6.961   0.652
  463TIP3   OH2 1329   1.497   1.699   2.115
  463TIP3    H1 1330   1.501   1.794   2.100
  463TIP3    H2 1331   1.578   1.666   2.075
  464TIP3   OH2 1332   1.270   1.960   5.565
  464TIP3    H1 1333   1.219   2.021   5.512
  464TIP3    H2 1334   1.256   1.989   5.655
  465TIP3   OH2 1335   7.111   7.834   1.201
  465TIP3    H1 1336   7.110   7.807   1.292
  465TIP3    H2 1337   7.183   7.784   1.162
  466TIP3   OH2 1338   5.815   1.644   4.340
  466TIP3    H1 1339   5.899   1.672   4.303
  466TIP3    H2 1340   5.823   1.662   4.434
  467TIP3   OH2 1341   3.768   4.432   6.017
  467TIP3    H1 1342   3.738   4.523   6.018
  467TIP3    H2 1343   3.699   4.385   5.970
  468TIP3   OH2 1344   7.803   4.523   1.631
  468TIP3    H1 1345   7.851   4.473   1.564
  468TIP3    H2 1346   7.825   4.479   1.713
  469TIP3   OH2 1347   4.798   3.176   3.418
  469TIP3    H1 1348   4.802   3.238   3.345
  469TIP3    H2 1349   4.711   3.189   3.455
  470TIP3   OH2 1350   7.199   4.950   0.130
  470TIP3    H1 1351   7.214   4.926   0.039
  470TIP3    H2 1352   7.253   4.890   0.180
  471TIP3   OH2 1353   0.852   3.937   1.159
  471TIP3    H1 1354   0.783   3.872   1.172
  471TIP3    H2 1355   0.894   3.946   1.245
  472TIP3   OH2 1356   2.336   0.560   3.363
  472TIP3    H1 1357   2.356   0.482   3.416
  472TIP3    H2 1358   2.326   0.630   3.427
  473TIP3   OH2 1359   5.740   6.298   0.777
  473TIP3    H1 1360   5.721   6.308   0.684
  473TIP3    H2 1361   5.768   6.207   0.786
  474TIP3   OH2 1362   7.430   3.470   6.297
  474TIP3    H1 1363   7.498   3.434   6.355
  474TIP3    H2 1364   7.383   3.393   6.265
  475TIP3   OH2 1365   5.490   2.002   5.130
  475TIP3    H1 1366   5.457   1.923   5.173
  475TIP3    H2 1367   5.424   2.068   5.148
  476TIP3   OH2 1368   5.700   3.529   3.991
  476TIP3    H1 1369   5.626   3.469   4.003
  476TIP3    H2 1370   5.678   3.577   3.911
  477TIP3   OH2 1371   7.577   6.831   4.856
  477TIP3    H1 1372   7.607   6.885   4.783
  477TIP3    H2 1373   7.531   6.891   4.913
  478TIP3   OH2 1374   7.859   1.301   3.969
  478TIP3    H1 1375   7.918   1.344   4.032
  478TIP3    H2 1376   7.900   1.217   3.952
  479TIP3   OH2 1377   5.947   0.700   1.558
  479TIP3    H1 1378   5.929   0.611   1.588
  479TIP3    H2 1379   5.932   0.697   1.463
  480TIP3   OH2 1380   7.648   5.164   3.967
  480TIP3    H1 1381   7.730   5.132   4.005
  480TIP3    H2 1382   7.590   5.176   4.042
  481TIP3   OH2 1383   1.874   7.233   5.768
  481TIP3    H1 1384   1.945   7.170   5.753
  481TIP3    H2 1385   1.850   7.220   5.860
  482TIP3   OH2 1386   2.157   2.070   0.317
  482TIP3    H1 1387   2.066   2.068   0.346
  482TIP3    H2 1388   2.152   2.109   0.229
  483TIP3   OH2 1389   3.630   6.907   6.176
  483TIP3    H1 1390   3.723   6.905   6.157
  483TIP3    H2 1391   3.588   6.885   6.093
  484TIP3   OH2 1392   1.989   6.298   4.114
  484TIP3    H1 1393   1.943   6.289   4.198
  484TIP3    H2 1394   1.920   6.286   4.049
  485TIP3   OH2 1395   6.994   6.919   1.476
  485TIP3    H1 1396   6.937   6.940   1.550
  485TIP3    H2 1397   7.059   6.990   1.475
  486TIP3   OH2 1398   2.337   6.325   1.037
  486TIP3    H1 1399   2.363   6.272   1.112
  486TIP3    H2 1400   2.278   6.391   1.073
  487TIP3   OH2 1401   7.124   7.849   0.897
  487TIP3    H1 1402   7.089   7.767   0.863
  487TIP3    H2 1403   7.203   7.823   0.945
  488TIP3   OH2 1404   6.817   7.366   2.139
  488TIP3    H1 1405   6.848   7.278   2.159
  488TIP3    H2 1406   6.892   7.423   2.158
  489TIP3   OH2 1407   4.855   2.219   1.449
  489TIP3    H1 1408   4.808   2.284   1.500
  489TIP3    H2 1409   4.788   2.156   1.421
  490TIP3   OH2 1410   3.005   5.868   0.385
  490TIP3    H1 1411   2.935   5.933   0.391
  490TIP3    H2 1412   3.068   5.894   0.452
  491TIP3   OH2 1413   1.255   5.341   6.102
  491TIP3    H1 1414   1.233   5.319   6.193
  491TIP3    H2 1415   1.326   5.280   6.079
  492TIP3   OH2 1416   4.003   2.466   1.662
  492TIP3    H1 1417   3.957   2.433   1.585
  492TIP3    H2 1418   4.010   2.560   1.648
  493TIP3   OH2 1419   2.538   6.144   0.876
  493TIP3    H1 1420   2.576   6.086   0.942
  493TIP3    H2 1421   2.450   6.109   0.861
  494TIP3   OH2 1422   1.377   1.652   5.462
  494TIP3    H1 1423   1.458   1.603   5.478
  494TIP3    H2 1424   1.368   1.709   5.538
  495TIP3   OH2 1425   7.475   0.273   4.396
  495TIP3    H1 1426   7.475   0.259   4.301
  495TIP3    H2 1427   7.384   0.260   4.421
  496TIP3   OH2 1428   3.344   1.284   3.895
  496TIP3    H1 1429   3.391   1.266   3.976
  496TIP3    H2 1430   3.370   1.213   3.836
  497TIP3   OH2 1431   1.547   7.336   6.029
  497TIP3    H1 1432   1.491   7.263   6.055
  497TIP3    H2 1433   1.521   7.408   6.086
  498TIP3   OH2 1434   2.101   0.705   2.614
  498TIP3    H1 1435   2.186   0.714   2.658
  498TIP3    H2 1436   2.089   0.788   2.568
  499TIP3   OH2 1437   3.506   3.712   1.764
  499TIP3    H1 1438   3.447   3.685   1.834
  499TIP3    H2 1439   3.551   3.789   1.799
  500TIP3   OH2 1440   7.444   2.161   5.753
  500TIP3    H1 1441   7.509   2.191   5.817
  500TIP3    H2 1442   7.400   2.241   5.724
  501TIP3   OH2 1443   2.415   4.800   4.183
  501TIP3    H1 1444   2.477   4.872   4.196
  501TIP3    H2 1445   2.360   4.802   4.261
  502TIP3   OH2 1446   5.023   3.259   1.383
  502TIP3    H1 1447   4.979   3.194   1.437
  502TIP3    H2 1448   5.006   3.232   1.293
  503TIP3   OH2 1449   3.213   5.900   4.470
  503TIP3    H1 1450   3.300   5.917   4.506
  503TIP3    H2 1451   3.156   5.962   4.515
  504TIP3   OH2 1452   3.607   0.580   2.881
  504TIP3    H1 1453   3.597   0.486   2.867
  504TIP3    H2 1454   3.664   0.609   2.810
  505TIP3   OH2 1455   3.704   7.614   4.019
  505TIP3    H1 1456   3.661   7.698   4.034
  505TIP3    H2 1457   3.637   7.549   4.038
  506TIP3   OH2 1458   3.087   0.107   4.463
  506TIP3    H1 1459   3.103   0.084   4.555
  506TIP3    H2 1460   3.172   0.139   4.431
  507TIP3   OH2 1461   3.248   3.678   5.954
  507TIP3    H1 1462   3.157   3.650   5.942
  507TIP3    H2 1463   3.247   3.772   5.935
  508TIP3   OH2 1464   7.989   7.639   5.125
  508TIP3    H1 1465   7.989   7.635   5.029
  508TIP3    H2 1466   8.010   7.730   5.146
  509TIP3   OH2 1467   3.028   4.266   2.001
  509TIP3    H1 1468   2.959   4.217   1.956
  509TIP3    H2 1469   3.108   4.245   1.953
  510TIP3   OH2 1470   4.097   0.786   2.293
  510TIP3    H1 1471   4.056   0.860   2.249
  510TIP3    H2 1472   4.165   0.756   2.233
  511TIP3   OH2 1473   4.303   6.735   0.460
  511TIP3    H1 1474   4.330   6.754   0.370
  511TIP3    H2 1475   4.338   6.808   0.511
  512TIP3   OH2 1476   3.739   1.879   1.795
  512TIP3    H1 1477   3.705   1.790   1.782
  512TIP3    H2 1478   3.729   1.895   1.888
  513TIP3   OH2 1479   6.228   6.247   1.074
  513TIP3    H1 1480   6.256   6.156   1.064
  513TIP3    H2 1481   6.283   6.281   1.145
  514TIP3   OH2 1482   1.034   2.704   1.847
  514TIP3    H1 1483   0.974   2.633   1.824
  514TIP3    H2 1484   1.031   2.708   1.943
  515TIP3   OH2 1485   1.832   2.837   0.502
  515TIP3    H1 1486   1.927   2.833   0.488
  515TIP3    H2 1487   1.801   2.750   0.479
  516TIP3   OH2 1488   6.878   7.665   3.749
  516TIP3    H1 1489   6.833   7.596   3.699
  516TIP3    H2 1490   6.842   7.657   3.838
  517TIP3   OH2 1491   8.228   5.069   6.527
  517TIP3    H1 1492   8.292   5.139   6.540
  517TIP3    H2 1493   8.143   5.113   6.525
  518TIP3   OH2 1494   2.205   5.362   1.842
  518TIP3    H1 1495   2.239   5.360   1.932
  518TIP3    H2 1496   2.227   5.276   1.807
  519TIP3   OH2 1497   4.519   3.570   3.712
  519TIP3    H1 1498   4.581   3.552   3.641
  519TIP3    H2 1499   4.551   3.518   3.786
  520TIP3   OH2 1500   4.282   6.066   1.368
  520TIP3    H1 1501   4.224   5.989   1.366
  520TIP3    H2 1502   4.240   6.129   1.309
  521TIP3   OH2 1503   5.311   5.437   6.801
  521TIP3    H1 1504   5.224   5.477   6.806
  521TIP3    H2 1505   5.295   5.343   6.811
  522TIP3   OH2 1506   0.818   3.844   1.427
  522TIP3    H1 1507   0.737   3.811   1.387
  522TIP3    H2 1508   0.871   3.766   1.442
  523TIP3   OH2 1509   6.758   5.156   1.528
  523TIP3    H1 1510   6.666   5.151   1.556
  523TIP3    H2 1511   6.774   5.250   1.518
  524TIP3   OH2 1512   5.413   1.295   3.236
  524TIP3    H1 1513   5.447   1.225   3.180
  524TIP3    H2 1514   5.489   1.327   3.284
  525TIP3   OH2 1515   1.412   7.583   0.428
  525TIP3    H1 1516   1.410   7.665   0.379
  525TIP3    H2 1517   1.481   7.595   0.493
  526TIP3   OH2 1518   7.364   5.532   3.141
  526TIP3    H1 1519   7.394   5.469   3.207
  526TIP3    H2 1520   7.425   5.605   3.148
  527TIP3   OH2 1521   0.807   2.653   2.267
  527TIP3    H1 1522   0.733   2.592   2.267
  527TIP3    H2 1523   0.766   2.740   2.263
  528TIP3   OH2 1524   7.590   4.985   2.001
  528TIP3    H1 1525   7.508   4.936   2.013
  528TIP3    H2 1526   7.631   4.944   1.924
  529TIP3   OH2 1527   0.596   1.312   2.521
  529TIP3    H1 1528   0.568   1.221   2.528
  529TIP3    H2 1529   0.689   1.311   2.547
  530TIP3   OH2 1530   0.636   2.797   1.873
  530TIP3    H1 1531   0.694   2.835   1.940
  530TIP3    H2 1532   0.667   2.835   1.791
  531TIP3   OH2 1533   6.387   2.519   1.044
  531TIP3    H1 1534   6.295   2.519   1.016
  531TIP3    H2 1535   6.395   2.440   1.098
  532TIP3   OH2 1536   7.041   6.384   4.069
  532TIP3    H1 1537   7.061   6.455   4.008
  532TIP3    H2 1538   7.047   6.305   4.016
  533TIP3   OH2 1539   6.467   0.967   5.286
  533TIP3    H1 1540   6.474   1.032   5.216
  533TIP3    H2 1541   6.404   0.903   5.253
  534TIP3   OH2 1542   8.039   3.188   1.985
  534TIP3    H1 1543   8.081   3.217   2.066
  534TIP3    H2 1544   7.995   3.267   1.952
  535TIP3   OH2 1545   4.030   2.646   5.010
  535TIP3    H1 1546   4.088   2.661   5.085
  535TIP3    H2 1547   4.033   2.729   4.962
  536TIP3   OH2 1548   5.649   2.127   5.608
  536TIP3    H1 1549   5.721   2.088   5.657
  536TIP3    H2 1550   5.608   2.188   5.670
  537TIP3   OH2 1551   5.295   7.646   4.591
  537TIP3    H1 1552   5.313   7.710   4.522
  537TIP3    H2 1553   5.349   7.570   4.567
  538TIP3   OH2 1554   8.051   0.217   0.601
  538TIP3    H1 1555   8.030   0.153   0.533
  538TIP3    H2 1556   8.137   0.251   0.576
  539TIP3   OH2 1557   7.914   3.438   1.324
  539TIP3    H1 1558   7.884   3.447   1.414
  539TIP3    H2 1559   7.838   3.458   1.270
  540TIP3   OH2 1560   7.767   5.731   2.805
  540TIP3    H1 1561   7.752   5.660   2.868
  540TIP3    H2 1562   7.681   5.772   2.796
  541TIP3   OH2 1563   5.431   4.599   4.785
  541TIP3    H1 1564   5.471   4.530   4.837
  541TIP3    H2 1565   5.499   4.667   4.779
  542TIP3   OH2 1566   0.097   5.832   1.456
  542TIP3    H1 1567   0.118   5.790   1.372
  542TIP3    H2 1568   0.019   5.884   1.437
  543TIP3   OH2 1569   6.104   6.436   2.874
  543TIP3    H1 1570   6.146   6.350   2.875
  543TIP3    H2 1571   6.059   6.441   2.958
  544TIP3   OH2 1572   8.249   4.048   6.211
  544TIP3    H1 1573   8.183   4.064   6.144
  544TIP3    H2 1574   8.228   4.110   6.281
  545TIP3   OH2 1575   2.610   7.168   0.585
  545TIP3    H1 1576   2.602   7.179   0.680
  545TIP3    H2 1577   2.556   7.091   0.566
  546TIP3   OH2 1578   1.645   7.230   6.345
  546TIP3    H1 1579   1.554   7.247   6.319
  546TIP3    H2 1580   1.675   7.165   6.282
  547TIP3   OH2 1581   2.132   4.046   2.258
  547TIP3    H1 1582   2.216   4.083   2.285
  547TIP3    H2 1583   2.107   4.096   2.180
  548TIP3   OH2 1584   5.495   1.253   6.291
  548TIP3    H1 1585   5.511   1.159   6.291
  548TIP3    H2 1586   5.572   1.290   6.335
  549TIP3   OH2 1587   0.337   3.478   5.616
  549TIP3    H1 1588   0.295   3.426   5.685
  549TIP3    H2 1589   0.412   3.519   5.659
  550TIP3   OH2 1590   1.986   7.372   3.072
  550TIP3    H1 1591   1.972   7.283   3.107
  550TIP3    H2 1592   2.024   7.358   2.986
  551TIP3   OH2 1593   1.484   3.970   5.189
  551TIP3    H1 1594   1.451   3.921   5.264
  551TIP3    H2 1595   1.579   3.964   5.195
  552TIP3   OH2 1596   0.652   4.187   4.989
  552TIP3    H1 1597   0.727   4.232   5.027
  552TIP3    H2 1598   0.688   4.103   4.958
  553TIP3   OH2 1599   3.373   6.691   2.019
  553TIP3    H1 1600   3.282   6.703   2.047
  553TIP3    H2 1601   3.403   6.616   2.070
  554TIP3   OH2 1602   1.860   4.417   4.965
  554TIP3    H1 1603   1.831   4.443   4.878
  554TIP3    H2 1604   1.780   4.393   5.011
  555TIP3   OH2 1605   7.505   0.338   4.931
  555TIP3    H1 1606   7.535   0.280   4.860
  555TIP3    H2 1607   7.473   0.416   4.885
  556TIP3   OH2 1608   6.898   1.040   2.494
  556TIP3    H1 1609   6.944   1.083   2.566
  556TIP3    H2 1610   6.850   0.969   2.535
  557TIP3   OH2 1611   2.415   0.089   4.226
  557TIP3    H1 1612   2.400   0.028   4.298
  557TIP3    H2 1613   2.480   0.150   4.260
  558TIP3   OH2 1614   6.410   7.406   2.062
  558TIP3    H1 1615   6.479   7.375   2.004
  558TIP3    H2 1616   6.361   7.328   2.086
  559TIP3   OH2 1617   2.731   1.874   5.854
  559TIP3    H1 1618   2.796   1.854   5.786
  559TIP3    H2 1619   2.666   1.804   5.847
  560TIP3   OH2 1620   1.899   7.332   1.697
  560TIP3    H1 1621   1.934   7.287   1.620
  560TIP3    H2 1622   1.878   7.261   1.758
  561TIP3   OH2 1623   1.355   1.186   3.668
  561TIP3    H1 1624   1.307   1.105   3.655
  561TIP3    H2 1625   1.368   1.191   3.763
  562TIP3   OH2 1626   4.472   1.636   5.462
  562TIP3    H1 1627   4.398   1.674   5.510
  562TIP3    H2 1628   4.434   1.560   5.418
  563TIP3   OH2 1629   5.171   7.510   5.512
  563TIP3    H1 1630   5.266   7.512   5.524
  563TIP3    H2 1631   5.147   7.602   5.499
  564TIP3   OH2 1632   5.649   0.959   3.431
  564TIP3    H1 1633   5.704   1.001   3.496
  564TIP3    H2 1634   5.676   0.867   3.432
  565TIP3   OH2 1635   2.835   6.419   2.669
  565TIP3    H1 1636   2.804   6.422   2.759
  565TIP3    H2 1637   2.884   6.501   2.657
  566TIP3   OH2 1638   7.469   0.948   6.491
  566TIP3    H1 1639   7.497   0.935   6.400
  566TIP3    H2 1640   7.387   0.997   6.484
  567TIP3   OH2 1641   6.906   2.882   0.725
  567TIP3    H1 1642   6.861   2.966   0.729
  567TIP3    H2 1643   6.898   2.846   0.813
  568TIP3   OH2 1644   2.362   0.379   0.598
  568TIP3    H1 1645   2.416   0.360   0.521
  568TIP3    H2 1646   2.418   0.432   0.655
  569TIP3   OH2 1647   7.656   5.202   6.233
  569TIP3    H1 1648   7.585   5.212   6.170
  569TIP3    H2 1649   7.695   5.290   6.239
  570TIP3   OH2 1650   2.374   0.240   3.013
  570TIP3    H1 1651   2.466   0.239   2.986
  570TIP3    H2 1652   2.361   0.328   3.049
  571TIP3   OH2 1653   0.689   2.007   6.031
  571TIP3    H1 1654   0.651   2.013   5.943
  571TIP3    H2 1655   0.634   2.064   6.085
  572TIP3   OH2 1656   5.671   4.143   0.084
  572TIP3    H1 1657   5.621   4.111   0.160
  572TIP3    H2 1658   5.638   4.232   0.070
  573TIP3   OH2 1659   6.559   2.521   2.871
  573TIP3    H1 1660   6.532   2.483   2.787
  573TIP3    H2 1661   6.652   2.501   2.877
  574TIP3   OH2 1662   6.978   7.837   0.266
  574TIP3    H1 1663   7.060   7.866   0.306
  574TIP3    H2 1664   6.951   7.911   0.212
  575TIP3   OH2 1665   5.197   2.185   6.347
  575TIP3    H1 1666   5.143   2.143   6.280
  575TIP3    H2 1667   5.285   2.150   6.332
  576TIP3   OH2 1668   5.404   3.339   4.976
  576TIP3    H1 1669   5.480   3.396   4.987
  576TIP3    H2 1670   5.402   3.320   4.883
  577TIP3   OH2 1671   6.256   3.856   1.582
  577TIP3    H1 1672   6.259   3.844   1.676
  577TIP3    H2 1673   6.251   3.951   1.570
  578TIP3   OH2 1674   0.808   3.107   3.836
  578TIP3    H1 1675   0.715   3.125   3.845
  578TIP3    H2 1676   0.823   3.103   3.742
  579TIP3   OH2 1677   7.264   5.230   0.114
  579TIP3    H1 1678   7.272   5.260   0.023
  579TIP3    H2 1679   7.277   5.135   0.109
  580TIP3   OH2 1680   4.494   2.924   2.972
  580TIP3    H1 1681   4.457   2.901   3.057
  580TIP3    H2 1682   4.580   2.960   2.992
  581TIP3   OH2 1683   5.058   2.405   3.796
  581TIP3    H1 1684   4.970   2.392   3.832
  581TIP3    H2 1685   5.082   2.493   3.824
  582TIP3   OH2 1686   2.513   5.227   4.086
  582TIP3    H1 1687   2.598   5.216   4.044
  582TIP3    H2 1688   2.506   5.322   4.101
  583TIP3   OH2 1689   8.350   4.308   1.179
  583TIP3    H1 1690   8.309   4.377   1.127
  583TIP3    H2 1691   8.432   4.346   1.209
  584TIP3   OH2 1692   0.424   5.804   6.827
  584TIP3    H1 1693   0.361   5.734   6.816
  584TIP3    H2 1694   0.479   5.800   6.748
  585TIP3   OH2 1695   6.953   5.831   3.105
  585TIP3    H1 1696   6.879   5.771   3.112
  585TIP3    H2 1697   7.029   5.773   3.094
  586TIP3   OH2 1698   2.578   5.091   0.179
  586TIP3    H1 1699   2.613   5.176   0.207
  586TIP3    H2 1700   2.512   5.069   0.244
  587TIP3   OH2 1701   1.105   6.477   5.945
  587TIP3    H1 1702   1.132   6.516   5.862
  587TIP3    H2 1703   1.023   6.520   5.966
  588TIP3   OH2 1704   3.567   7.043   5.659
  588TIP3    H1 1705   3.561   6.951   5.633
  588TIP3    H2 1706   3.637   7.044   5.724
  589TIP3   OH2 1707   0.745   0.606   1.919
  589TIP3    H1 1708   0.766   0.662   1.993
  589TIP3    H2 1709   0.727   0.520   1.958
  590TIP3   OH2 1710   7.802   2.969   3.244
  590TIP3    H1 1711   7.890   2.984   3.210
  590TIP3    H2 1712   7.816   2.928   3.329
  591TIP3   OH2 1713   4.077   3.451   4.383
  591TIP3    H1 1714   4.072   3.455   4.287
  591TIP3    H2 1715   4.006   3.508   4.413
  592TIP3   OH2 1716   0.441   5.199   2.712
  592TIP3    H1 1717   0.470   5.155   2.792
  592TIP3    H2 1718   0.362   5.246   2.738
  593TIP3   OH2 1719   1.729   5.023   2.484
  593TIP3    H1 1720   1.744   4.946   2.539
  593TIP3    H2 1721   1.764   5.096   2.535
  594TIP3   OH2 1722   4.473   4.272   0.062
  594TIP3    H1 1723   4.501   4.206  -0.001
  594TIP3    H2 1724   4.553   4.318   0.087
  595TIP3   OH2 1725   2.252   6.057   0.451
  595TIP3    H1 1726   2.324   6.070   0.512
  595TIP3    H2 1727   2.293   6.030   0.370
  596TIP3   OH2 1728   6.793   1.469   6.775
  596TIP3    H1 1729   6.699   1.490   6.776
  596TIP3    H2 1730   6.820   1.484   6.684
  597TIP3   OH2 1731   3.886   4.311   0.266
  597TIP3    H1 1732   3.926   4.266   0.191
  597TIP3    H2 1733   3.898   4.251   0.339
  598TIP3   OH2 1734   2.844   0.258   4.451
  598TIP3    H1 1735   2.828   0.282   4.542
  598TIP3    H2 1736   2.939   0.247   4.446
  599TIP3   OH2 1737   5.894   6.020   5.394
  599TIP3    H1 1738   5.959   6.062   5.451
  599TIP3    H2 1739   5.934   5.938   5.367
  600TIP3   OH2 1740   0.849   3.273   1.358
  600TIP3    H1 1741   0.880   3.309   1.441
  600TIP3    H2 1742   0.777   3.215   1.382
  601TIP3   OH2 1743   0.099   5.289   6.840
  601TIP3    H1 1744   0.189   5.279   6.811
  601TIP3    H2 1745   0.095   5.379   6.875
  602TIP3   OH2 1746   7.445   4.507   5.842
  602TIP3    H1 1747   7.516   4.450   5.870
  602TIP3    H2 1748   7.458   4.518   5.748
  603TIP3   OH2 1749   2.530   4.069   6.842
  603TIP3    H1 1750   2.455   4.116   6.806
  603TIP3    H2 1751   2.504   4.049   6.932
  604TIP3   OH2 1752   5.299   7.843   4.414
  604TIP3    H1 1753   5.214   7.887   4.413
  604TIP3    H2 1754   5.355   7.895   4.357
  605TIP3   OH2 1755   7.460   2.883   4.039
  605TIP3    H1 1756   7.547   2.849   4.059
  605TIP3    H2 1757   7.473   2.976   4.023
  606TIP3   OH2 1758   0.128   6.890   6.885
  606TIP3    H1 1759   0.129   6.964   6.945
  606TIP3    H2 1760   0.080   6.922   6.808
  607TIP3   OH2 1761   6.383   1.400   4.949
  607TIP3    H1 1762   6.453   1.446   4.904
  607TIP3    H2 1763   6.312   1.395   4.885
  608TIP3   OH2 1764   0.225   3.260   6.174
  608TIP3    H1 1765   0.201   3.173   6.142
  608TIP3    H2 1766   0.151   3.286   6.229
  609TIP3   OH2 1767   4.015   0.516   4.888
  609TIP3    H1 1768   4.017   0.543   4.796
  609TIP3    H2 1769   3.930   0.474   4.899
  610TIP3   OH2 1770   5.856   3.706   5.418
  610TIP3    H1 1771   5.859   3.723   5.324
  610TIP3    H2 1772   5.820   3.786   5.456
  611TIP3   OH2 1773   1.836   6.106   3.607
  611TIP3    H1 1774   1.783   6.108   3.527
  611TIP3    H2 1775   1.909   6.166   3.588
  612TIP3   OH2 1776   7.343   5.441   0.272
  612TIP3    H1 1777   7.270   5.438   0.334
  612TIP3    H2 1778   7.323   5.373   0.208
  613TIP3   OH2 1779   7.559   4.686   4.724
  613TIP3    H1 1780   7.470   4.653   4.735
  613TIP3    H2 1781   7.605   4.657   4.803
  614TIP3   OH2 1782   2.951   7.009   6.888
  614TIP3    H1 1783   2.985   7.017   6.799
  614TIP3    H2 1784   3.009   6.946   6.930
  615TIP3   OH2 1785   6.109   7.556   2.763
  615TIP3    H1 1786   6.117   7.634   2.819
  615TIP3    H2 1787   6.199   7.535   2.739
  616TIP3   OH2 1788   4.327   2.286   3.614
  616TIP3    H1 1789   4.384   2.270   3.689
  616TIP3    H2 1790   4.239   2.264   3.645
  617TIP3   OH2 1791   0.356   5.321   3.246
  617TIP3    H1 1792   0.311   5.405   3.247
  617TIP3    H2 1793   0.298   5.262   3.295
  618TIP3   OH2 1794   1.745   5.943   4.860
  618TIP3    H1 1795   1.825   5.947   4.912
  618TIP3    H2 1796   1.751   6.020   4.803
  619TIP3   OH2 1797   0.937   5.179   6.658
  619TIP3    H1 1798   1.017   5.165   6.709
  619TIP3    H2 1799   0.866   5.160   6.719
  620TIP3   OH2 1800   6.256   4.881   3.697
  620TIP3    H1 1801   6.262   4.848   3.787
  620TIP3    H2 1802   6.231   4.973   3.707
  621TIP3   OH2 1803   4.316   4.753   2.862
  621TIP3    H1 1804   4.330   4.670   2.908
  621TIP3    H2 1805   4.222   4.757   2.849
  622TIP3   OH2 1806   5.822   5.115   4.071
  622TIP3    H1 1807   5.784   5.192   4.112
  622TIP3    H2 1808   5.916   5.132   4.069
  623TIP3   OH2 1809   4.397   3.804   3.763
  623TIP3    H1 1810   4.450   3.734   3.724
  623TIP3    H2 1811   4.422   3.805   3.855
  624TIP3   OH2 1812   6.009   3.722   4.853
  624TIP3    H1 1813   6.007   3.703   4.759
  624TIP3    H2 1814   6.004   3.637   4.896
  625TIP3   OH2 1815   1.507   6.526   5.989
  625TIP3    H1 1816   1.459   6.450   5.957
  625TIP3    H2 1817   1.463   6.601   5.950
  626TIP3   OH2 1818   6.284   5.675   3.925
  626TIP3    H1 1819   6.341   5.630   3.987
  626TIP3    H2 1820   6.219   5.610   3.900
  627TIP3   OH2 1821   7.853   4.498   4.907
  627TIP3    H1 1822   7.917   4.442   4.951
  627TIP3    H2 1823   7.800   4.438   4.855
  628TIP3   OH2 1824   2.864   1.984   1.563
  628TIP3    H1 1825   2.868   1.971   1.468
  628TIP3    H2 1826   2.842   1.898   1.598
  629TIP3   OH2 1827   6.124   1.829   0.542
  629TIP3    H1 1828   6.034   1.862   0.542
  629TIP3    H2 1829   6.142   1.810   0.449
  630TIP3   OH2 1830   4.524   2.128   1.496
  630TIP3    H1 1831   4.436   2.115   1.461
  630TIP3    H2 1832   4.581   2.083   1.434
  631TIP3   OH2 1833   1.077   7.766   0.531
  631TIP3    H1 1834   1.044   7.839   0.478
  631TIP3    H2 1835   1.075   7.799   0.621
  632TIP3   OH2 1836   2.477   1.809   4.235
  632TIP3    H1 1837   2.459   1.730   4.184
  632TIP3    H2 1838   2.420   1.801   4.312
  633TIP3   OH2 1839   3.657   5.254   1.705
  633TIP3    H1 1840   3.688   5.344   1.707
  633TIP3    H2 1841   3.734   5.201   1.726
  634TIP3   OH2 1842   7.150   0.893   3.085
  634TIP3    H1 1843   7.079   0.957   3.080
  634TIP3    H2 1844   7.229   0.947   3.090
  635TIP3   OH2 1845   8.224   1.011   2.161
  635TIP3    H1 1846   8.271   1.094   2.148
  635TIP3    H2 1847   8.285   0.944   2.131
  636TIP3   OH2 1848   5.268   3.677   3.421
  636TIP3    H1 1849   5.333   3.675   3.351
  636TIP3    H2 1850   5.210   3.603   3.402
  637TIP3   OH2 1851   1.079   7.739   4.921
  637TIP3    H1 1852   1.128   7.816   4.894
  637TIP3    H2 1853   1.028   7.715   4.843
  638TIP3   OH2 1854   1.730   7.515   1.134
  638TIP3    H1 1855   1.811   7.481   1.098
  638TIP3    H2 1856   1.757   7.569   1.209
  639TIP3   OH2 1857   6.451   1.622   6.156
  639TIP3    H1 1858   6.393   1.552   6.187
  639TIP3    H2 1859   6.440   1.622   6.061
  640TIP3   OH2 1860   8.201   3.184   3.953
  640TIP3    H1 1861   8.229   3.117   3.890
  640TIP3    H2 1862   8.107   3.191   3.939
  641TIP3   OH2 1863   4.022   1.871   6.568
  641TIP3    H1 1864   3.940   1.892   6.612
  641TIP3    H2 1865   4.038   1.947   6.511
  642TIP3   OH2 1866   5.462   6.892   2.747
  642TIP3    H1 1867   5.497   6.812   2.786
  642TIP3    H2 1868   5.540   6.941   2.719
  643TIP3   OH2 1869   6.370   4.385   4.867
  643TIP3    H1 1870   6.448   4.439   4.881
  643TIP3    H2 1871   6.371   4.322   4.940
  644TIP3   OH2 1872   1.206   0.964   5.207
  644TIP3    H1 1873   1.111   0.977   5.220
  644TIP3    H2 1874   1.214   0.874   5.176
  645TIP3   OH2 1875   3.951   5.205   4.812
  645TIP3    H1 1876   3.969   5.111   4.812
  645TIP3    H2 1877   3.905   5.221   4.730
  646TIP3   OH2 1878   8.223   4.514   3.400
  646TIP3    H1 1879   8.283   4.468   3.459
  646TIP3    H2 1880   8.137   4.478   3.421
  647TIP3   OH2 1881   0.846   5.674   4.324
  647TIP3    H1 1882   0.809   5.615   4.389
  647TIP3    H2 1883   0.926   5.630   4.293
  648TIP3   OH2 1884   1.947   2.015   6.790
  648TIP3    H1 1885   1.864   2.016   6.742
  648TIP3    H2 1886   1.931   1.960   6.867
  649TIP3   OH2 1887   4.154   6.532   5.334
  649TIP3    H1 1888   4.077   6.475   5.338
  649TIP3    H2 1889   4.153   6.577   5.419
  650TIP3   OH2 1890   3.088   3.037   1.526
  650TIP3    H1 1891   3.055   2.997   1.446
  650TIP3    H2 1892   3.136   3.115   1.497
  651TIP3   OH2 1893   4.897   1.167   6.084
  651TIP3    H1 1894   4.856   1.202   6.163
  651TIP3    H2 1895   4.864   1.077   6.078
  652TIP3   OH2 1896   3.425   2.635   4.481
  652TIP3    H1 1897   3.517   2.606   4.473
  652TIP3    H2 1898   3.420   2.674   4.568
  653TIP3   OH2 1899   0.950   1.756   3.858
  653TIP3    H1 1900   0.988   1.776   3.772
  653TIP3    H2 1901   0.978   1.666   3.876
  654TIP3   OH2 1902   5.512   0.864   2.557
  654TIP3    H1 1903   5.576   0.915   2.608
  654TIP3    H2 1904   5.524   0.774   2.588
  655TIP3   OH2 1905   8.083   4.255   3.245
  655TIP3    H1 1906   8.049   4.239   3.333
  655TIP3    H2 1907   8.035   4.332   3.215
  656TIP3   OH2 1908   3.342   7.101   0.904
  656TIP3    H1 1909   3.426   7.135   0.872
  656TIP3    H2 1910   3.341   7.010   0.873
  657TIP3   OH2 1911   2.362   2.945   1.868
  657TIP3    H1 1912   2.449   2.919   1.837
  657TIP3    H2 1913   2.302   2.891   1.817
  658TIP3   OH2 1914   5.057   0.703   4.064
  658TIP3    H1 1915   5.126   0.714   3.999
  658TIP3    H2 1916   5.009   0.625   4.036
  659TIP3   OH2 1917   0.574   0.386   6.632
  659TIP3    H1 1918   0.532   0.360   6.550
  659TIP3    H2 1919   0.504   0.379   6.698
  660TIP3   OH2 1920   3.571   2.204   2.702
  660TIP3    H1 1921   3.526   2.123   2.726
  660TIP3    H2 1922   3.520   2.240   2.630
  661TIP3   OH2 1923   2.894   2.399   6.073
  661TIP3    H1 1924   2.837   2.470   6.043
  661TIP3    H2 1925   2.983   2.435   6.063
  662TIP3   OH2 1926   5.124   1.018   1.824
  662TIP3    H1 1927   5.198   0.962   1.802
  662TIP3    H2 1928   5.146   1.103   1.785
  663TIP3   OH2 1929   1.681   6.687   4.866
  663TIP3    H1 1930   1.694   6.746   4.940
  663TIP3    H2 1931   1.763   6.691   4.817
  664TIP3   OH2 1932   4.377   3.427   3.162
  664TIP3    H1 1933   4.291   3.410   3.124
  664TIP3    H2 1934   4.427   3.347   3.143
  665TIP3   OH2 1935   7.221   3.140   4.036
  665TIP3    H1 1936   7.240   3.118   3.945
  665TIP3    H2 1937   7.178   3.226   4.032
  666TIP3   OH2 1938   0.988   5.494   0.691
  666TIP3    H1 1939   0.935   5.419   0.721
  666TIP3    H2 1940   0.924   5.553   0.651
  667TIP3   OH2 1941   5.448   5.370   4.384
  667TIP3    H1 1942   5.491   5.334   4.462
  667TIP3    H2 1943   5.507   5.438   4.354
  668TIP3   OH2 1944   5.849   0.861   0.719
  668TIP3    H1 1945   5.901   0.928   0.674
  668TIP3    H2 1946   5.847   0.787   0.658
  669TIP3   OH2 1947   2.042   7.848   5.969
  669TIP3    H1 1948   2.035   7.840   6.064
  669TIP3    H2 1949   1.964   7.805   5.935
  670TIP3   OH2 1950   2.969   5.634   2.263
  670TIP3    H1 1951   2.893   5.592   2.222
  670TIP3    H2 1952   2.972   5.597   2.351
  671TIP3   OH2 1953   7.232   7.275   1.211
  671TIP3    H1 1954   7.204   7.327   1.136
  671TIP3    H2 1955   7.322   7.249   1.191
  672TIP3   OH2 1956   7.876   4.667   5.982
  672TIP3    H1 1957   7.871   4.615   5.902
  672TIP3    H2 1958   7.819   4.742   5.966
  673TIP3   OH2 1959   5.359   4.362   1.753
  673TIP3    H1 1960   5.335   4.363   1.660
  673TIP3    H2 1961   5.440   4.414   1.757
  674TIP3   OH2 1962   5.409   7.267   1.584
  674TIP3    H1 1963   5.395   7.193   1.645
  674TIP3    H2 1964   5.466   7.327   1.632
  675TIP3   OH2 1965   3.857   2.278   1.001
  675TIP3    H1 1966   3.913   2.301   0.927
  675TIP3    H2 1967   3.860   2.355   1.058
  676TIP3   OH2 1968   5.532   7.583   2.388
  676TIP3    H1 1969   5.608   7.617   2.340
  676TIP3    H2 1970   5.570   7.539   2.464
  677TIP3   OH2 1971   3.156   1.051   6.031
  677TIP3    H1 1972   3.086   1.004   5.983
  677TIP3    H2 1973   3.132   1.143   6.022
  678TIP3   OH2 1974   3.604   0.020   6.290
  678TIP3    H1 1975   3.642  -0.038   6.224
  678TIP3    H2 1976   3.588   0.102   6.244
  679TIP3   OH2 1977   1.229   3.658   5.047
  679TIP3    H1 1978   1.185   3.647   4.963
  679TIP3    H2 1979   1.208   3.747   5.074
  680TIP3   OH2 1980   7.731   7.576   4.499
  680TIP3    H1 1981   7.733   7.651   4.439
  680TIP3    H2 1982   7.804   7.521   4.471
  681TIP3   OH2 1983   1.185   7.716   6.574
  681TIP3    H1 1984   1.272   7.746   6.548
  681TIP3    H2 1985   1.171   7.754   6.660
  682TIP3   OH2 1986   3.560   7.266   3.903
  682TIP3    H1 1987   3.576   7.305   3.988
  682TIP3    H2 1988   3.569   7.338   3.841
  683TIP3   OH2 1989   0.173   0.034   6.628
  683TIP3    H1 1990   0.259   0.006   6.597
  683TIP3    H2 1991   0.171   0.128   6.614
  684TIP3   OH2 1992   0.248   0.893   1.310
  684TIP3    H1 1993   0.182   0.829   1.339
  684TIP3    H2 1994   0.315   0.891   1.379
  685TIP3   OH2 1995   5.012   3.754   4.733
  685TIP3    H1 1996   4.921   3.725   4.734
  685TIP3    H2 1997   5.012   3.832   4.677
  686TIP3   OH2 1998   0.564   2.273   3.263
  686TIP3    H1 1999   0.492   2.258   3.325
  686TIP3    H2 2000   0.642   2.278   3.318
  687TIP3   OH2 2001   7.665   7.658   1.722
  687TIP3    H1 2002   7.736   7.714   1.754
  687TIP3    H2 2003   7.710   7.582   1.686
  688TIP3   OH2 2004   3.967   0.261   0.804
  688TIP3    H1 2005   3.956   0.178   0.850
  688TIP3    H2 2006   4.057   0.288   0.825
  689TIP3   OH2 2007   6.428   7.059   1.654
  689TIP3    H1 2008   6.437   7.148   1.688
  689TIP3    H2 2009   6.476   7.060   1.572
  690TIP3   OH2 2010   2.169   1.174   5.594
  690TIP3    H1 2011   2.140   1.186   5.684
  690TIP3    H2 2012   2.103   1.218   5.541
  691TIP3   OH2 2013   1.073   2.289   6.176
  691TIP3    H1 2014   1.113   2.221   6.121
  691TIP3    H2 2015   1.130   2.365   6.167
  692TIP3   OH2 2016   0.171   1.034   3.686
  692TIP3    H1 2017   0.079   1.058   3.677
  692TIP3    H2 2018   0.200   1.078   3.767
  693TIP3   OH2 2019   0.385   2.045   2.239
  693TIP3    H1 2020   0.472   2.022   2.207
  693TIP3    H2 2021   0.381   2.008   2.327
  694TIP3   OH2 2022   5.100   4.647   5.995
  694TIP3    H1 2023   5.133   4.726   6.039
  694TIP3    H2 2024   5.106   4.578   6.061
  695TIP3   OH2 2025   5.390   0.157   3.457
  695TIP3    H1 2026   5.454   0.093   3.486
  695TIP3    H2 2027   5.420   0.184   3.370
  696TIP3   OH2 2028   4.677   2.407   6.549
  696TIP3    H1 2029   4.739   2.337   6.530
  696TIP3    H2 2030   4.636   2.381   6.632
  697TIP3   OH2 2031   0.527   6.137   2.242
  697TIP3    H1 2032   0.556   6.184   2.164
  697TIP3    H2 2033   0.456   6.190   2.277
  698TIP3   OH2 2034   1.964   0.619   2.851
  698TIP3    H1 2035   2.017   0.696   2.870
  698TIP3    H2 2036   1.972   0.606   2.756
  699TIP3   OH2 2037   7.851   3.779   0.831
  699TIP3    H1 2038   7.770   3.779   0.881
  699TIP3    H2 2039   7.884   3.690   0.838
  700TIP3   OH2 2040   6.092   2.532   2.100
  700TIP3    H1 2041   5.998   2.536   2.118
  700TIP3    H2 2042   6.133   2.565   2.181
  701TIP3   OH2 2043   2.430   3.905   6.548
  701TIP3    H1 2044   2.467   3.924   6.634
  701TIP3    H2 2045   2.437   3.988   6.500
  702TIP3   OH2 2046   5.989   4.547   2.203
  702TIP3    H1 2047   6.002   4.641   2.220
  702TIP3    H2 2048   5.900   4.530   2.233
  703TIP3   OH2 2049   0.248   7.517   2.233
  703TIP3    H1 2050   0.307   7.468   2.176
  703TIP3    H2 2051   0.303   7.584   2.273
  704TIP3   OH2 2052   8.025   4.346   5.033
  704TIP3    H1 2053   8.047   4.328   5.124
  704TIP3    H2 2054   8.042   4.264   4.987
  705TIP3   OH2 2055   7.845   2.535   1.701
  705TIP3    H1 2056   7.896   2.593   1.645
  705TIP3    H2 2057   7.902   2.515   1.775
  706TIP3   OH2 2058   8.291   0.616   5.319
  706TIP3    H1 2059   8.200   0.644   5.316
  706TIP3    H2 2060   8.289   0.524   5.295
  707TIP3   OH2 2061   7.239   1.733   3.675
  707TIP3    H1 2062   7.240   1.728   3.770
  707TIP3    H2 2063   7.331   1.729   3.650
  708TIP3   OH2 2064   3.808   6.293   1.287
  708TIP3    H1 2065   3.807   6.310   1.193
  708TIP3    H2 2066   3.894   6.323   1.316
  709TIP3   OH2 2067   6.163   0.657   0.174
  709TIP3    H1 2068   6.103   0.692   0.239
  709TIP3    H2 2069   6.114   0.659   0.092
  710TIP3   OH2 2070   2.305   6.888   0.150
  710TIP3    H1 2071   2.215   6.859   0.166
  710TIP3    H2 2072   2.331   6.840   0.071
  711TIP3   OH2 2073   1.229   0.199   3.903
  711TIP3    H1 2074   1.228   0.136   3.831
  711TIP3    H2 2075   1.322   0.215   3.920
  712TIP3   OH2 2076   5.269   3.614   6.358
  712TIP3    H1 2077   5.307   3.694   6.322
  712TIP3    H2 2078   5.234   3.568   6.282
  713TIP3   OH2 2079   5.452   5.822   0.794
  713TIP3    H1 2080   5.464   5.730   0.768
  713TIP3    H2 2081   5.429   5.818   0.886
  714TIP3   OH2 2082   0.112   1.013   5.180
  714TIP3    H1 2083   0.108   0.972   5.093
  714TIP3    H2 2084   0.040   0.972   5.229
  715TIP3   OH2 2085   0.787   3.689   3.163
  715TIP3    H1 2086   0.719   3.653   3.221
  715TIP3    H2 2087   0.824   3.762   3.213
  716TIP3   OH2 2088   3.285   4.723   1.084
  716TIP3    H1 2089   3.246   4.679   1.009
  716TIP3    H2 2090   3.285   4.816   1.061
  717TIP3   OH2 2091   5.634   6.460   3.710
  717TIP3    H1 2092   5.718   6.414   3.706
  717TIP3    H2 2093   5.644   6.534   3.650
  718TIP3   OH2 2094   5.227   3.178   5.906
  718TIP3    H1 2095   5.177   3.258   5.922
  718TIP3    H2 2096   5.165   3.108   5.923
  719TIP3   OH2 2097   7.090   5.127   2.721
  719TIP3    H1 2098   7.006   5.149   2.682
  719TIP3    H2 2099   7.105   5.035   2.697
  720TIP3   OH2 2100   1.747   3.417   3.590
  720TIP3    H1 2101   1.785   3.478   3.526
  720TIP3    H2 2102   1.665   3.459   3.616
  721TIP3   OH2 2103   0.821   2.584   6.655
  721TIP3    H1 2104   0.879   2.655   6.627
  721TIP3    H2 2105   0.790   2.610   6.741
  722TIP3   OH2 2106   6.869   2.593   1.967
  722TIP3    H1 2107   6.951   2.546   1.985
  722TIP3    H2 2108   6.810   2.565   2.037
  723TIP3   OH2 2109   1.089   0.174   5.074
  723TIP3    H1 2110   1.165   0.212   5.118
  723TIP3    H2 2111   1.019   0.177   5.139
  724TIP3   OH2 2112   0.499   2.376   0.081
  724TIP3    H1 2113   0.490   2.403  -0.011
  724TIP3    H2 2114   0.593   2.360   0.092
  725TIP3   OH2 2115   1.620   4.293   3.705
  725TIP3    H1 2116   1.714   4.291   3.689
  725TIP3    H2 2117   1.590   4.205   3.686
  726TIP3   OH2 2118   4.921   3.593   5.431
  726TIP3    H1 2119   4.836   3.616   5.469
  726TIP3    H2 2120   4.910   3.502   5.402
  727TIP3   OH2 2121   4.011   1.039   6.118
  727TIP3    H1 2122   4.003   0.981   6.042
  727TIP3    H2 2123   4.104   1.061   6.122
  728TIP3   OH2 2124   2.368   0.712   2.730
  728TIP3    H1 2125   2.391   0.624   2.701
  728TIP3    H2 2126   2.452   0.753   2.751
  729TIP3   OH2 2127   0.402   3.411   1.211
  729TIP3    H1 2128   0.435   3.384   1.296
  729TIP3    H2 2129   0.331   3.472   1.230
  730TIP3   OH2 2130   5.923   5.792   4.365
  730TIP3    H1 2131   5.974   5.855   4.417
  730TIP3    H2 2132   5.971   5.785   4.283
  731TIP3   OH2 2133   0.614   3.500   1.076
  731TIP3    H1 2134   0.536   3.465   1.119
  731TIP3    H2 2135   0.628   3.442   1.001
  732TIP3   OH2 2136   7.764   1.785   3.570
  732TIP3    H1 2137   7.811   1.729   3.509
  732TIP3    H2 2138   7.826   1.855   3.591
  733TIP3   OH2 2139   1.721   4.716   6.563
  733TIP3    H1 2140   1.755   4.763   6.639
  733TIP3    H2 2141   1.797   4.670   6.527
  734TIP3   OH2 2142   3.606   6.561   2.414
  734TIP3    H1 2143   3.529   6.617   2.400
  734TIP3    H2 2144   3.667   6.616   2.463
  735TIP3   OH2 2145   3.395   4.726   1.629
  735TIP3    H1 2146   3.338   4.731   1.705
  735TIP3    H2 2147   3.482   4.707   1.665
  736TIP3   OH2 2148   5.211   3.613   5.009
  736TIP3    H1 2149   5.304   3.634   5.011
  736TIP3    H2 2150   5.183   3.621   5.100
  737TIP3   OH2 2151   4.061   4.070   4.452
  737TIP3    H1 2152   4.014   4.038   4.375
  737TIP3    H2 2153   4.078   4.162   4.432
  738TIP3   OH2 2154   1.782   7.256   3.505
  738TIP3    H1 2155   1.841   7.298   3.567
  738TIP3    H2 2156   1.698   7.300   3.519
  739TIP3   OH2 2157   4.438   2.422   6.368
  739TIP3    H1 2158   4.500   2.445   6.437
  739TIP3    H2 2159   4.357   2.401   6.414
  740TIP3   OH2 2160   1.627   0.655   5.362
  740TIP3    H1 2161   1.633   0.560   5.378
  740TIP3    H2 2162   1.563   0.663   5.291
  741TIP3   OH2 2163   7.193   7.660   1.439
  741TIP3    H1 2164   7.134   7.584   1.437
  741TIP3    H2 2165   7.182   7.697   1.526
  742TIP3   OH2 2166   0.445   5.601   5.142
  742TIP3    H1 2167   0.504   5.660   5.187
  742TIP3    H2 2168   0.390   5.564   5.211
  743TIP3   OH2 2169   2.309   0.133   1.544
  743TIP3    H1 2170   2.311   0.213   1.597
  743TIP3    H2 2171   2.387   0.139   1.489
  744TIP3   OH2 2172   6.584   1.419   0.525
  744TIP3    H1 2173   6.622   1.331   0.518
  744TIP3    H2 2174   6.540   1.433   0.441
  745TIP3   OH2 2175   4.595   2.549   0.869
  745TIP3    H1 2176   4.619   2.639   0.890
  745TIP3    H2 2177   4.506   2.554   0.836
  746TIP3   OH2 2178   6.517   4.978   2.288
  746TIP3    H1 2179   6.473   4.903   2.327
  746TIP3    H2 2180   6.472   5.054   2.325
  747TIP3   OH2 2181   3.730   3.096   1.896
  747TIP3    H1 2182   3.729   3.121   1.989
  747TIP3    H2 2183   3.721   3.179   1.849
  748TIP3   OH2 2184   0.347   0.521   2.814
  748TIP3    H1 2185   0.402   0.582   2.765
  748TIP3    H2 2186   0.360   0.546   2.906
  749TIP3   OH2 2187   1.316   1.659   1.485
  749TIP3    H1 2188   1.380   1.730   1.497
  749TIP3    H2 2189   1.341   1.593   1.550
  750TIP3   OH2 2190   6.786   2.347   0.336
  750TIP3    H1 2191   6.704   2.386   0.305
  750TIP3    H2 2192   6.759   2.285   0.404
  751TIP3   OH2 2193   0.988   0.497   3.674
  751TIP3    H1 2194   1.082   0.476   3.676
  751TIP3    H2 2195   0.984   0.590   3.694
  752TIP3   OH2 2196   4.135   2.549   2.529
  752TIP3    H1 2197   4.172   2.616   2.586
  752TIP3    H2 2198   4.042   2.545   2.553
  753TIP3   OH2 2199   5.646   1.141   5.169
  753TIP3    H1 2200   5.558   1.174   5.187
  753TIP3    H2 2201   5.697   1.218   5.145
  754TIP3   OH2 2202   3.835   7.622   4.605
  754TIP3    H1 2203   3.770   7.552   4.612
  754TIP3    H2 2204   3.917   7.576   4.590
  755TIP3   OH2 2205   7.665   2.099   3.762
  755TIP3    H1 2206   7.723   2.129   3.692
  755TIP3    H2 2207   7.584   2.148   3.749
  756TIP3   OH2 2208   7.627   7.143   3.988
  756TIP3    H1 2209   7.647   7.236   3.976
  756TIP3    H2 2210   7.658   7.101   3.907
  757TIP3   OH2 2211   5.764   4.585   6.778
  757TIP3    H1 2212   5.752   4.679   6.773
  757TIP3    H2 2213   5.767   4.556   6.687
  758TIP3   OH2 2214   0.180   1.067   3.994
  758TIP3    H1 2215   0.190   1.011   4.070
  758TIP3    H2 2216   0.224   1.148   4.018
  759TIP3   OH2 2217   2.599   1.801   2.095
  759TIP3    H1 2218   2.566   1.884   2.060
  759TIP3    H2 2219   2.681   1.824   2.139
  760TIP3   OH2 2220   6.192   5.096   3.025
  760TIP3    H1 2221   6.177   5.010   3.063
  760TIP3    H2 2222   6.264   5.084   2.963
  761TIP3   OH2 2223   3.423   2.117   2.486
  761TIP3    H1 2224   3.375   2.045   2.525
  761TIP3    H2 2225   3.467   2.079   2.409
  762TIP3   OH2 2226   3.630   4.303   5.146
  762TIP3    H1 2227   3.548   4.254   5.157
  762TIP3    H2 2228   3.619   4.351   5.064
  763TIP3   OH2 2229   2.341   4.839   0.469
  763TIP3    H1 2230   2.354   4.912   0.409
  763TIP3    H2 2231   2.420   4.837   0.522
  764TIP3   OH2 2232   1.506  -0.009   5.583
  764TIP3    H1 2233   1.555   0.008   5.502
  764TIP3    H2 2234   1.421   0.034   5.569
  765TIP3   OH2 2235   3.843   0.012   5.427
  765TIP3    H1 2236   3.752   0.036   5.409
  765TIP3    H2 2237   3.894   0.070   5.372
  766TIP3   OH2 2238   4.173   7.211   2.430
  766TIP3    H1 2239   4.116   7.272   2.383
  766TIP3    H2 2240   4.155   7.229   2.523
  767TIP3   OH2 2241   2.265   2.862   3.328
  767TIP3    H1 2242   2.302   2.902   3.406
  767TIP3    H2 2243   2.340   2.833   3.277
  768TIP3   OH2 2244   2.405   7.780   2.275
  768TIP3    H1 2245   2.464   7.840   2.321
  768TIP3    H2 2246   2.319   7.799   2.311
  769TIP3   OH2 2247   0.705   2.038   5.047
  769TIP3    H1 2248   0.716   1.958   5.100
  769TIP3    H2 2249   0.672   2.103   5.109
  770TIP3   OH2 2250   6.137   1.987   3.396
  770TIP3    H1 2251   6.223   1.947   3.404
  770TIP3    H2 2252   6.089   1.957   3.473
  771TIP3   OH2 2253   1.077   3.878   0.153
  771TIP3    H1 2254   1.163   3.847   0.122
  771TIP3    H2 2255   1.066   3.836   0.238
  772TIP3   OH2 2256   0.100   1.664   2.403
  772TIP3    H1 2257   0.007   1.642   2.399
  772TIP3    H2 2258   0.137   1.601   2.465
  773TIP3   OH2 2259   8.392   3.313   6.310
  773TIP3    H1 2260   8.378   3.271   6.395
  773TIP3    H2 2261   8.307   3.307   6.267
  774TIP3   OH2 2262   5.141   3.969   0.721
  774TIP3    H1 2263   5.123   4.023   0.798
  774TIP3    H2 2264   5.154   3.881   0.755
  775TIP3   OH2 2265   2.939   6.667   1.336
  775TIP3    H1 2266   3.003   6.648   1.405
  775TIP3    H2 2267   2.975   6.742   1.289
  776TIP3   OH2 2268   8.258   6.542   1.268
  776TIP3    H1 2269   8.257   6.489   1.348
  776TIP3    H2 2270   8.188   6.504   1.214
  777TIP3   OH2 2271   4.971   3.880   4.981
  777TIP3    H1 2272   4.990   3.830   4.902
  777TIP3    H2 2273   4.913   3.823   5.033
  778TIP3   OH2 2274   2.903   4.814   2.921
  778TIP3    H1 2275   2.925   4.808   3.014
  778TIP3    H2 2276   2.979   4.778   2.876
  779TIP3   OH2 2277   7.302   2.998   3.811
  779TIP3    H1 2278   7.319   2.942   3.736
  779TIP3    H2 2279   7.384   2.999   3.860
  780TIP3   OH2 2280   7.474   4.589   1.898
  780TIP3    H1 2281   7.415   4.663   1.913
  780TIP3    H2 2282   7.491   4.591   1.804
  781TIP3   OH2 2283   8.300   0.289   6.302
  781TIP3    H1 2284   8.368   0.324   6.359
  781TIP3    H2 2285   8.220   0.294   6.354
  782TIP3   OH2 2286   7.965   0.271   2.048
  782TIP3    H1 2287   7.921   0.356   2.050
  782TIP3    H2 2288   8.058   0.292   2.047
  783TIP3   OH2 2289   2.241   3.144   5.788
  783TIP3    H1 2290   2.287   3.109   5.865
  783TIP3    H2 2291   2.232   3.237   5.807
  784TIP3   OH2 2292   7.990   3.955   4.286
  784TIP3    H1 2293   8.036   4.011   4.349
  784TIP3    H2 2294   8.027   3.868   4.299
  785TIP3   OH2 2295   7.399   0.615   0.198
  785TIP3    H1 2296   7.482   0.657   0.221
  785TIP3    H2 2297   7.371   0.658   0.117
  786TIP3   OH2 2298   5.609   7.096   3.171
  786TIP3    H1 2299   5.533   7.142   3.137
  786TIP3    H2 2300   5.683   7.154   3.153
  787TIP3   OH2 2301   7.697   7.786   4.314
  787TIP3    H1 2302   7.609   7.788   4.278
  787TIP3    H2 2303   7.751   7.748   4.244
  788TIP3   OH2 2304   0.679   5.324   5.401
  788TIP3    H1 2305   0.702   5.401   5.349
  788TIP3    H2 2306   0.617   5.357   5.466
  789TIP3   OH2 2307   2.643   2.421   5.854
  789TIP3    H1 2308   2.672   2.506   5.887
  789TIP3    H2 2309   2.628   2.368   5.933
  790TIP3   OH2 2310   1.629   5.152   5.225
  790TIP3    H1 2311   1.680   5.092   5.280
  790TIP3    H2 2312   1.589   5.212   5.287
  791TIP3   OH2 2313   5.368   7.099   0.949
  791TIP3    H1 2314   5.274   7.090   0.957
  791TIP3    H2 2315   5.384   7.103   0.854
  792TIP3   OH2 2316   7.600   6.644   1.270
  792TIP3    H1 2317   7.655   6.679   1.340
  792TIP3    H2 2318   7.598   6.714   1.204
  793TIP3   OH2 2319   5.390   4.574   2.802
  793TIP3    H1 2320   5.484   4.582   2.815
  793TIP3    H2 2321   5.351   4.612   2.881
  794TIP3   OH2 2322   0.204   4.291   4.057
  794TIP3    H1 2323   0.253   4.217   4.020
  794TIP3    H2 2324   0.224   4.288   4.151
  795TIP3   OH2 2325   5.347   6.184   3.106
  795TIP3    H1 2326   5.423   6.235   3.079
  795TIP3    H2 2327   5.385   6.105   3.145
  796TIP3   OH2 2328   6.940   1.043   2.987
  796TIP3    H1 2329   6.858   1.050   2.939
  796TIP3    H2 2330   6.998   1.106   2.944
  797TIP3   OH2 2331   4.411   2.121   0.527
  797TIP3    H1 2332   4.404   2.027   0.548
  797TIP3    H2 2333   4.431   2.163   0.611
  798TIP3   OH2 2334   0.014   5.341   6.027
  798TIP3    H1 2335   0.060   5.277   5.973
  798TIP3    H2 2336  -0.075   5.343   5.991
  799TIP3   OH2 2337   4.355   6.581   4.902
  799TIP3    H1 2338   4.371   6.599   4.994
  799TIP3    H2 2339   4.327   6.665   4.865
  800TIP3   OH2 2340   1.149   1.847   4.792
  800TIP3    H1 2341   1.222   1.829   4.733
  800TIP3    H2 2342   1.165   1.935   4.825
  801TIP3   OH2 2343   3.422   2.368   5.877
  801TIP3    H1 2344   3.475   2.367   5.797
  801TIP3    H2 2345   3.403   2.461   5.891
  802TIP3   OH2 2346   5.317   7.050   5.654
  802TIP3    H1 2347   5.348   7.090   5.573
  802TIP3    H2 2348   5.385   6.986   5.677
  803TIP3   OH2 2349   3.695   0.451   0.943
  803TIP3    H1 2350   3.764   0.510   0.973
  803TIP3    H2 2351   3.670   0.484   0.857
  804TIP3   OH2 2352   1.178   6.844   6.778
  804TIP3    H1 2353   1.094   6.890   6.765
  804TIP3    H2 2354   1.232   6.907   6.825
  805TIP3   OH2 2355   4.249   4.686   0.807
  805TIP3    H1 2356   4.292   4.711   0.889
  805TIP3    H2 2357   4.168   4.644   0.834
  806TIP3   OH2 2358   2.569   3.723   6.059
  806TIP3    H1 2359   2.571   3.802   6.113
  806TIP3    H2 2360   2.569   3.756   5.969
  807TIP3   OH2 2361   1.972   1.773   3.181
  807TIP3    H1 2362   2.017   1.755   3.098
  807TIP3    H2 2363   2.032   1.829   3.230
  808TIP3   OH2 2364   5.134   3.177   6.229
  808TIP3    H1 2365   5.052   3.227   6.218
  808TIP3    H2 2366   5.166   3.202   6.315
  809TIP3   OH2 2367   5.850   5.977   2.659
  809TIP3    H1 2368   5.817   5.959   2.747
  809TIP3    H2 2369   5.843   6.071   2.649
  810TIP3   OH2 2370   0.507   4.251   5.525
  810TIP3    H1 2371   0.459   4.323   5.566
  810TIP3    H2 2372   0.441   4.206   5.472
  811TIP3   OH2 2373   4.909   0.642   6.836
  811TIP3    H1 2374   4.990   0.680   6.870
  811TIP3    H2 2375   4.865   0.606   6.913
  812TIP3   OH2 2376   3.726   3.381   5.666
  812TIP3    H1 2377   3.771   3.461   5.638
  812TIP3    H2 2378   3.700   3.399   5.756
  813TIP3   OH2 2379   2.877   2.105   2.720
  813TIP3    H1 2380   2.784   2.089   2.704
  813TIP3    H2 2381   2.895   2.188   2.676
  814TIP3   OH2 2382   0.244   5.109   5.544
  814TIP3    H1 2383   0.326   5.123   5.497
  814TIP3    H2 2384   0.270   5.076   5.630
  815TIP3   OH2 2385   4.273   7.158   6.202
  815TIP3    H1 2386   4.238   7.166   6.114
  815TIP3    H2 2387   4.273   7.247   6.237
  816TIP3   OH2 2388   8.103   6.135   4.220
  816TIP3    H1 2389   8.103   6.084   4.302
  816TIP3    H2 2390   8.166   6.090   4.164
  817TIP3   OH2 2391   3.694   2.661   1.567
  817TIP3    H1 2392   3.676   2.753   1.585
  817TIP3    H2 2393   3.645   2.641   1.487
  818TIP3   OH2 2394   4.371   5.432   1.712
  818TIP3    H1 2395   4.307   5.501   1.696
  818TIP3    H2 2396   4.428   5.433   1.635
  819TIP3   OH2 2397   4.881   1.472   6.514
  819TIP3    H1 2398   4.929   1.541   6.560
  819TIP3    H2 2399   4.850   1.415   6.584
  820TIP3   OH2 2400   2.852   0.441   1.010
  820TIP3    H1 2401   2.930   0.428   0.956
  820TIP3    H2 2402   2.828   0.532   0.997
  821TIP3   OH2 2403   6.579   4.566   4.957
  821TIP3    H1 2404   6.667   4.575   4.994
  821TIP3    H2 2405   6.524   4.546   5.033
  822TIP3   OH2 2406   3.525   2.034   6.173
  822TIP3    H1 2407   3.474   2.085   6.111
  822TIP3    H2 2408   3.539   1.950   6.129
  823TIP3   OH2 2409   2.610   4.530   6.679
  823TIP3    H1 2410   2.560   4.501   6.756
  823TIP3    H2 2411   2.595   4.461   6.615
  824TIP3   OH2 2412   2.974   7.769   2.098
  824TIP3    H1 2413   2.947   7.772   2.190
  824TIP3    H2 2414   2.894   7.785   2.049
  825TIP3   OH2 2415   6.374   5.736   4.360
  825TIP3    H1 2416   6.361   5.808   4.298
  825TIP3    H2 2417   6.304   5.747   4.424
  826TIP3   OH2 2418   0.070   0.181   5.167
  826TIP3    H1 2419   0.086   0.113   5.231
  826TIP3    H2 2420   0.157   0.208   5.138
  827TIP3   OH2 2421   1.893   1.362   6.786
  827TIP3    H1 2422   1.797   1.366   6.785
  827TIP3    H2 2423   1.914   1.286   6.733
  828TIP3   OH2 2424   1.082   7.233   4.518
  828TIP3    H1 2425   1.105   7.146   4.486
  828TIP3    H2 2426   1.022   7.268   4.452
  829TIP3   OH2 2427   4.695   1.983   0.393
  829TIP3    H1 2428   4.631   1.937   0.338
  829TIP3    H2 2429   4.643   2.023   0.462
  830TIP3   OH2 2430   8.254   0.346   5.361
  830TIP3    H1 2431   8.340   0.306   5.353
  830TIP3    H2 2432   8.193   0.275   5.342
  831TIP3   OH2 2433   7.686   0.924   2.580
  831TIP3    H1 2434   7.631   0.883   2.513
  831TIP3    H2 2435   7.694   0.857   2.649
  832TIP3   OH2 2436   5.100   3.863   2.515
  832TIP3    H1 2437   5.187   3.858   2.474
  832TIP3    H2 2438   5.070   3.952   2.497
  833TIP3   OH2 2439   3.234   4.393   5.960
  833TIP3    H1 2440   3.318   4.430   5.935
  833TIP3    H2 2441   3.238   4.387   6.056
  834TIP3   OH2 2442   3.608   0.039   0.870
  834TIP3    H1 2443   3.668   0.067   0.801
  834TIP3    H2 2444   3.523   0.031   0.826
  835TIP3   OH2 2445   3.178   4.439   4.180
  835TIP3    H1 2446   3.113   4.506   4.160
  835TIP3    H2 2447   3.259   4.488   4.193
  836TIP3   OH2 2448   6.529   6.151   1.127
  836TIP3    H1 2449   6.595   6.110   1.070
  836TIP3    H2 2450   6.459   6.086   1.133
  837TIP3   OH2 2451   8.332   4.976   0.532
  837TIP3    H1 2452   8.310   4.994   0.441
  837TIP3    H2 2453   8.259   4.924   0.565
  838TIP3   OH2 2454   5.354   5.108   4.449
  838TIP3    H1 2455   5.396   5.073   4.527
  838TIP3    H2 2456   5.396   5.193   4.435
  839TIP3   OH2 2457   0.081   0.865   3.377
  839TIP3    H1 2458   0.006   0.847   3.435
  839TIP3    H2 2459   0.158   0.849   3.432
  840TIP3   OH2 2460   4.526   1.332   0.154
  840TIP3    H1 2461   4.570   1.415   0.171
  840TIP3    H2 2462   4.545   1.314   0.062
  841TIP3   OH2 2463   4.682   2.385   2.653
  841TIP3    H1 2464   4.758   2.328   2.646
  841TIP3    H2 2465   4.610   2.325   2.673
  842TIP3   OH2 2466   4.005   6.630   4.346
  842TIP3    H1 2467   3.975   6.681   4.422
  842TIP3    H2 2468   4.089   6.669   4.323
  843TIP3   OH2 2469   3.882   3.895   2.268
  843TIP3    H1 2470   3.894   3.853   2.183
  843TIP3    H2 2471   3.862   3.987   2.246
  844TIP3   OH2 2472   7.301   3.840   0.169
  844TIP3    H1 2473   7.294   3.881   0.255
  844TIP3    H2 2474   7.230   3.776   0.167
  845TIP3   OH2 2475   5.406   0.428   6.756
  845TIP3    H1 2476   5.498   0.455   6.753
  845TIP3    H2 2477   5.399   0.362   6.688
  846TIP3   OH2 2478   4.989   0.830   6.288
  846TIP3    H1 2479   4.969   0.923   6.276
  846TIP3    H2 2480   4.916   0.797   6.341
  847TIP3   OH2 2481   3.488   3.253   4.654
  847TIP3    H1 2482   3.400   3.284   4.634
  847TIP3    H2 2483   3.542   3.332   4.654
  848TIP3   OH2 2484   2.411   0.276   6.019
  848TIP3    H1 2485   2.422   0.336   5.945
  848TIP3    H2 2486   2.421   0.331   6.097
  849TIP3   OH2 2487   0.336   5.449   0.199
  849TIP3    H1 2488   0.243   5.469   0.187
  849TIP3    H2 2489   0.352   5.463   0.292
  850TIP3   OH2 2490   2.827   7.722   1.519
  850TIP3    H1 2491   2.888   7.779   1.567
  850TIP3    H2 2492   2.792   7.663   1.586
  851TIP3   OH2 2493   8.316   6.907   5.185
  851TIP3    H1 2494   8.261   6.831   5.203
  851TIP3    H2 2495   8.266   6.981   5.218
  852TIP3   OH2 2496   5.658   7.002   2.536
  852TIP3    H1 2497   5.611   7.067   2.483
  852TIP3    H2 2498   5.673   7.045   2.620
  853TIP3   OH2 2499   3.570   7.870   0.805
  853TIP3    H1 2500   3.528   7.803   0.750
  853TIP3    H2 2501   3.662   7.846   0.806
  854TIP3   OH2 2502   0.258   7.457   5.667
  854TIP3    H1 2503   0.312   7.534   5.688
  854TIP3    H2 2504   0.275   7.442   5.574
  855TIP3   OH2 2505   8.136   1.248   4.441
  855TIP3    H1 2506   8.043   1.268   4.449
  855TIP3    H2 2507   8.178   1.333   4.428
  856TIP3   OH2 2508   0.439   3.103   6.468
  856TIP3    H1 2509   0.350   3.135   6.485
  856TIP3    H2 2510   0.453   3.119   6.375
  857TIP3   OH2 2511  -0.052   1.052   5.643
  857TIP3    H1 2512   0.018   1.117   5.641
  857TIP3    H2 2513  -0.071   1.041   5.736
  858TIP3   OH2 2514   6.864   1.594   4.401
  858TIP3    H1 2515   6.824   1.614   4.486
  858TIP3    H2 2516   6.822   1.513   4.374
  859TIP3   OH2 2517   2.855   1.702   2.487
  859TIP3    H1 2518   2.855   1.779   2.429
  859TIP3    H2 2519   2.793   1.642   2.446
  860TIP3   OH2 2520   7.106   7.197   5.964
  860TIP3    H1 2521   7.099   7.105   5.939
  860TIP3    H2 2522   7.052   7.205   6.043
  861TIP3   OH2 2523   8.289   1.044   4.320
  861TIP3    H1 2524   8.335   1.058   4.403
  861TIP3    H2 2525   8.221   1.111   4.320
  862TIP3   OH2 2526   1.255   7.029   5.094
  862TIP3    H1 2527   1.281   7.109   5.048
  862TIP3    H2 2528   1.277   6.958   5.034
  863TIP3   OH2 2529   2.047   2.802   1.449
  863TIP3    H1 2530   2.007   2.888   1.446
  863TIP3    H2 2531   2.080   2.787   1.361
  864TIP3   OH2 2532   0.177   0.209   4.799
  864TIP3    H1 2533   0.222   0.246   4.875
  864TIP3    H2 2534   0.089   0.189   4.831
  865TIP3   OH2 2535   4.659   0.175   3.237
  865TIP3    H1 2536   4.588   0.128   3.280
  865TIP3    H2 2537   4.722   0.107   3.214
  866TIP3   OH2 2538   1.438   0.303   5.942
  866TIP3    H1 2539   1.457   0.380   5.995
  866TIP3    H2 2540   1.344   0.290   5.951
  867TIP3   OH2 2541   3.183   2.819   1.666
  867TIP3    H1 2542   3.150   2.899   1.627
  867TIP3    H2 2543   3.273   2.839   1.690
  868TIP3   OH2 2544   3.454   3.796   4.540
  868TIP3    H1 2545   3.363   3.767   4.552
  868TIP3    H2 2546   3.500   3.766   4.618
  869TIP3   OH2 2547   0.250   5.802   2.187
  869TIP3    H1 2548   0.324   5.785   2.245
  869TIP3    H2 2549   0.288   5.853   2.115
  870TIP3   OH2 2550   6.293   5.596   0.399
  870TIP3    H1 2551   6.226   5.645   0.352
  870TIP3    H2 2552   6.354   5.567   0.331
  871TIP3   OH2 2553   4.579   5.201   1.380
  871TIP3    H1 2554   4.530   5.261   1.322
  871TIP3    H2 2555   4.666   5.196   1.340
  872TIP3   OH2 2556   3.496   1.980   2.862
  872TIP3    H1 2557   3.566   1.921   2.835
  872TIP3    H2 2558   3.461   1.941   2.942
  873TIP3   OH2 2559   6.137   5.786   0.247
  873TIP3    H1 2560   6.083   5.817   0.319
  873TIP3    H2 2561   6.206   5.851   0.239
  874TIP3   OH2 2562   2.047   6.951   2.232
  874TIP3    H1 2563   2.132   6.950   2.187
  874TIP3    H2 2564   2.066   6.917   2.319
  875TIP3   OH2 2565   4.052   0.956   0.497
  875TIP3    H1 2566   4.110   1.027   0.471
  875TIP3    H2 2567   4.112   0.884   0.521
  876TIP3   OH2 2568   4.451   7.156   3.318
  876TIP3    H1 2569   4.365   7.125   3.289
  876TIP3    H2 2570   4.444   7.158   3.414
  877TIP3   OH2 2571   2.536   5.245   4.887
  877TIP3    H1 2572   2.603   5.272   4.950
  877TIP3    H2 2573   2.544   5.150   4.883
  878TIP3   OH2 2574   3.789   0.574   2.654
  878TIP3    H1 2575   3.824   0.617   2.577
  878TIP3    H2 2576   3.792   0.480   2.632
  879TIP3   OH2 2577   3.526   0.021   0.549
  879TIP3    H1 2578   3.550  -0.039   0.479
  879TIP3    H2 2579   3.599   0.082   0.556
  880TIP3   OH2 2580   3.003   3.599   6.770
  880TIP3    H1 2581   2.914   3.613   6.739
  880TIP3    H2 2582   3.012   3.504   6.775
  881TIP3   OH2 2583   2.731   5.073   6.293
  881TIP3    H1 2584   2.677   5.125   6.353
  881TIP3    H2 2585   2.733   4.986   6.331
  882TIP3   OH2 2586   8.232   5.976   0.384
  882TIP3    H1 2587   8.139   5.957   0.371
  882TIP3    H2 2588   8.235   6.071   0.392
  883TIP3   OH2 2589   3.489   1.554   1.507
  883TIP3    H1 2590   3.469   1.630   1.452
  883TIP3    H2 2591   3.582   1.536   1.489
  884TIP3   OH2 2592   3.228   3.439   2.735
  884TIP3    H1 2593   3.240   3.347   2.715
  884TIP3    H2 2594   3.135   3.455   2.718
  885TIP3   OH2 2595   2.548   7.883   6.200
  885TIP3    H1 2596   2.558   7.806   6.256
  885TIP3    H2 2597   2.558   7.849   6.111
  886TIP3   OH2 2598   6.111   2.145   1.517
  886TIP3    H1 2599   6.162   2.065   1.528
  886TIP3    H2 2600   6.173   2.207   1.477
  887TIP3   OH2 2601   3.762   2.478   6.310
  887TIP3    H1 2602   3.698   2.468   6.381
  887TIP3    H2 2603   3.820   2.548   6.340
  888TIP3   OH2 2604   3.970   6.064   5.689
  888TIP3    H1 2605   3.893   6.013   5.714
  888TIP3    H2 2606   3.989   6.037   5.599
  889TIP3   OH2 2607   7.834   6.959   4.790
  889TIP3    H1 2608   7.810   6.893   4.854
  889TIP3    H2 2609   7.872   7.031   4.841
  890TIP3   OH2 2610   3.504   5.743   5.251
  890TIP3    H1 2611   3.477   5.720   5.340
  890TIP3    H2 2612   3.573   5.680   5.229
  891TIP3   OH2 2613   0.644   0.377   0.125
  891TIP3    H1 2614   0.706   0.312   0.158
  891TIP3    H2 2615   0.559   0.333   0.131
  892TIP3   OH2 2616   4.102   0.608   0.911
  892TIP3    H1 2617   4.177   0.667   0.922
  892TIP3    H2 2618   4.122   0.534   0.968
  893TIP3   OH2 2619   1.054   7.727   2.638
  893TIP3    H1 2620   1.128   7.736   2.578
  893TIP3    H2 2621   1.032   7.817   2.664
  894TIP3   OH2 2622   0.153   2.591   2.238
  894TIP3    H1 2623   0.096   2.515   2.238
  894TIP3    H2 2624   0.224   2.569   2.298
  895TIP3   OH2 2625   4.077   2.609   0.804
  895TIP3    H1 2626   3.988   2.595   0.835
  895TIP3    H2 2627   4.105   2.690   0.848
  896TIP3   OH2 2628   1.212   2.492   1.842
  896TIP3    H1 2629   1.141   2.554   1.856
  896TIP3    H2 2630   1.274   2.539   1.786
  897TIP3   OH2 2631   0.529   6.554   2.133
  897TIP3    H1 2632   0.580   6.519   2.206
  897TIP3    H2 2633   0.508   6.643   2.159
  898TIP3   OH2 2634   5.658   2.647   4.441
  898TIP3    H1 2635   5.648   2.557   4.409
  898TIP3    H2 2636   5.568   2.679   4.451
  899TIP3   OH2 2637   0.975   2.516   4.490
  899TIP3    H1 2638   1.017   2.457   4.553
  899TIP3    H2 2639   0.921   2.458   4.436
  900TIP3   OH2 2640   4.279   4.182   3.706
  900TIP3    H1 2641   4.309   4.142   3.788
  900TIP3    H2 2642   4.360   4.211   3.664
  901TIP3   OH2 2643   0.424   7.265   4.097
  901TIP3    H1 2644   0.396   7.181   4.062
  901TIP3    H2 2645   0.381   7.272   4.182
  902TIP3   OH2 2646   4.341   1.466   4.700
  902TIP3    H1 2647   4.377   1.395   4.753
  902TIP3    H2 2648   4.379   1.546   4.738
  903TIP3   OH2 2649   2.847   0.837   4.433
  903TIP3    H1 2650   2.805   0.807   4.514
  903TIP3    H2 2651   2.784   0.816   4.364
  904TIP3   OH2 2652   1.430   2.881   2.682
  904TIP3    H1 2653   1.394   2.793   2.670
  904TIP3    H2 2654   1.491   2.892   2.609
  905TIP3   OH2 2655   1.280   0.058   2.173
  905TIP3    H1 2656   1.313   0.116   2.104
  905TIP3    H2 2657   1.224   0.114   2.227
  906TIP3   OH2 2658   0.224   4.653   0.328
  906TIP3    H1 2659   0.253   4.727   0.275
  906TIP3    H2 2660   0.304   4.618   0.367
  907TIP3   OH2 2661   3.243   0.992   1.710
  907TIP3    H1 2662   3.325   1.035   1.733
  907TIP3    H2 2663   3.266   0.900   1.699
  908TIP3   OH2 2664   3.122   1.308   6.653
  908TIP3    H1 2665   3.092   1.218   6.669
  908TIP3    H2 2666   3.078   1.334   6.571
  909TIP3   OH2 2667   2.080   5.702   1.747
  909TIP3    H1 2668   2.162   5.724   1.702
  909TIP3    H2 2669   2.032   5.784   1.753
  910TIP3   OH2 2670   5.678   6.200   3.931
  910TIP3    H1 2671   5.606   6.149   3.895
  910TIP3    H2 2672   5.755   6.143   3.923
  911TIP3   OH2 2673   2.858   3.913   4.847
  911TIP3    H1 2674   2.938   3.875   4.809
  911TIP3    H2 2675   2.799   3.839   4.858
  912TIP3   OH2 2676   5.440   6.109   6.324
  912TIP3    H1 2677   5.403   6.169   6.387
  912TIP3    H2 2678   5.443   6.158   6.242
  913TIP3   OH2 2679   1.685   3.900   2.074
  913TIP3    H1 2680   1.628   3.847   2.017
  913TIP3    H2 2681   1.723   3.837   2.134
  914TIP3   OH2 2682   7.011   0.114   6.420
  914TIP3    H1 2683   7.052   0.188   6.376
  914TIP3    H2 2684   7.038   0.122   6.512
  915TIP3   OH2 2685   2.172   0.672   6.339
  915TIP3    H1 2686   2.080   0.689   6.359
  915TIP3    H2 2687   2.219   0.700   6.418
  916TIP3   OH2 2688   4.677   3.264   5.433
  916TIP3    H1 2689   4.646   3.328   5.497
  916TIP3    H2 2690   4.665   3.179   5.477
  917TIP3   OH2 2691   1.913   5.835   2.117
  917TIP3    H1 2692   1.864   5.910   2.153
  917TIP3    H2 2693   1.944   5.787   2.194
  918TIP3   OH2 2694   5.395   6.848   2.287
  918TIP3    H1 2695   5.368   6.883   2.371
  918TIP3    H2 2696   5.484   6.881   2.275
  919TIP3   OH2 2697   2.990   6.719   3.661
  919TIP3    H1 2698   3.053   6.787   3.636
  919TIP3    H2 2699   2.942   6.756   3.735
  920TIP3   OH2 2700   7.445   0.264   5.816
  920TIP3    H1 2701   7.513   0.236   5.876
  920TIP3    H2 2702   7.383   0.191   5.813
  921TIP3   OH2 2703   5.121   6.461   1.771
  921TIP3    H1 2704   5.214   6.483   1.780
  921TIP3    H2 2705   5.120   6.382   1.718
  922TIP3   OH2 2706   0.206   2.508   5.856
  922TIP3    H1 2707   0.296   2.535   5.836
  922TIP3    H2 2708   0.210   2.413   5.861
  923TIP3   OH2 2709   7.316   6.082   6.819
  923TIP3    H1 2710   7.379   6.052   6.885
  923TIP3    H2 2711   7.355   6.163   6.785
  924TIP3   OH2 2712   5.628   6.533   1.313
  924TIP3    H1 2713   5.612   6.458   1.255
  924TIP3    H2 2714   5.573   6.603   1.277
  925TIP3   OH2 2715   1.542   7.004   3.195
  925TIP3    H1 2716   1.585   6.933   3.147
  925TIP3    H2 2717   1.458   7.016   3.150
  926TIP3   OH2 2718   8.215   6.922   2.589
  926TIP3    H1 2719   8.203   6.837   2.548
  926TIP3    H2 2720   8.310   6.933   2.595
  927TIP3   OH2 2721   5.309   1.061   0.533
  927TIP3    H1 2722   5.298   1.134   0.471
  927TIP3    H2 2723   5.220   1.044   0.564
  928TIP3   OH2 2724   2.827   4.685   4.624
  928TIP3    H1 2725   2.893   4.715   4.561
  928TIP3    H2 2726   2.747   4.679   4.574
  929TIP3   OH2 2727   1.222   3.963   6.295
  929TIP3    H1 2728   1.245   3.959   6.202
  929TIP3    H2 2729   1.130   3.935   6.298
  930TIP3   OH2 2730   4.651   4.878   2.897
  930TIP3    H1 2731   4.609   4.841   2.820
  930TIP3    H2 2732   4.738   4.838   2.898
  931TIP3   OH2 2733   8.110   7.447   1.173
  931TIP3    H1 2734   8.135   7.490   1.091
  931TIP3    H2 2735   8.187   7.458   1.229
  932TIP3   OH2 2736   3.103   6.052   2.821
  932TIP3    H1 2737   3.050   5.981   2.784
  932TIP3    H2 2738   3.041   6.103   2.873
  933TIP3   OH2 2739   5.427   3.295   3.876
  933TIP3    H1 2740   5.453   3.366   3.818
  933TIP3    H2 2741   5.354   3.253   3.831
  934TIP3   OH2 2742   1.450   3.974   1.099
  934TIP3    H1 2743   1.457   4.048   1.160
  934TIP3    H2 2744   1.407   4.011   1.022
  935TIP3   OH2 2745   8.433   5.746   6.484
  935TIP3    H1 2746   8.464   5.747   6.393
  935TIP3    H2 2747   8.363   5.681   6.484
  936TIP3   OH2 2748   4.129   4.740   4.410
  936TIP3    H1 2749   4.058   4.725   4.347
  936TIP3    H2 2750   4.206   4.701   4.369
  937TIP3   OH2 2751   0.535   5.369   5.641
  937TIP3    H1 2752   0.607   5.336   5.695
  937TIP3    H2 2753   0.474   5.408   5.703
  938TIP3   OH2 2754   0.791   1.886   2.235
  938TIP3    H1 2755   0.766   1.924   2.318
  938TIP3    H2 2756   0.771   1.953   2.170
  939TIP3   OH2 2757   2.150   4.994   2.091
  939TIP3    H1 2758   2.106   5.043   2.161
  939TIP3    H2 2759   2.242   5.017   2.099
  940TIP3   OH2 2760   0.593   5.464   0.820
  940TIP3    H1 2761   0.593   5.468   0.725
  940TIP3    H2 2762   0.505   5.493   0.845
  941TIP3   OH2 2763   7.287   0.214   2.751
  941TIP3    H1 2764   7.313   0.166   2.672
  941TIP3    H2 2765   7.192   0.204   2.754
  942TIP3   OH2 2766   0.691   7.602   3.937
  942TIP3    H1 2767   0.717   7.617   3.846
  942TIP3    H2 2768   0.767   7.632   3.988
  943TIP3   OH2 2769   1.209   5.110   4.381
  943TIP3    H1 2770   1.218   5.077   4.292
  943TIP3    H2 2771   1.128   5.070   4.413
  944TIP3   OH2 2772   5.258   7.598   2.525
  944TIP3    H1 2773   5.334   7.541   2.508
  944TIP3    H2 2774   5.296   7.679   2.560
  945TIP3   OH2 2775   1.466   6.012   5.865
  945TIP3    H1 2776   1.449   5.982   5.955
  945TIP3    H2 2777   1.539   5.959   5.835
  946TIP3   OH2 2778   0.388   3.119   0.791
  946TIP3    H1 2779   0.480   3.099   0.775
  946TIP3    H2 2780   0.389   3.202   0.839
  947TIP3   OH2 2781   6.638   5.534   5.055
  947TIP3    H1 2782   6.648   5.625   5.027
  947TIP3    H2 2783   6.685   5.530   5.138
  948TIP3   OH2 2784   6.309   7.094   0.221
  948TIP3    H1 2785   6.242   7.060   0.281
  948TIP3    H2 2786   6.364   7.149   0.276
  949TIP3   OH2 2787   7.901   2.692   3.897
  949TIP3    H1 2788   7.931   2.777   3.929
  949TIP3    H2 2789   7.840   2.713   3.827
  950TIP3   OH2 2790   3.417   7.168   4.295
  950TIP3    H1 2791   3.493   7.115   4.271
  950TIP3    H2 2792   3.454   7.245   4.337
  951TIP3   OH2 2793   2.446   5.844   5.512
  951TIP3    H1 2794   2.373   5.898   5.541
  951TIP3    H2 2795   2.479   5.888   5.434
  952TIP3   OH2 2796   7.314   4.965   2.285
  952TIP3    H1 2797   7.397   4.918   2.291
  952TIP3    H2 2798   7.251   4.907   2.328
  953TIP3   OH2 2799   0.808   2.531   0.700
  953TIP3    H1 2800   0.772   2.528   0.611
  953TIP3    H2 2801   0.898   2.498   0.690
  954TIP3   OH2 2802   7.006   4.213   3.539
  954TIP3    H1 2803   7.047   4.138   3.496
  954TIP3    H2 2804   6.947   4.174   3.604
  955TIP3   OH2 2805   3.884   4.953   1.270
  955TIP3    H1 2806   3.960   5.004   1.295
  955TIP3    H2 2807   3.815   4.980   1.331
  956TIP3   OH2 2808   1.761   0.089   6.801
  956TIP3    H1 2809   1.744   0.006   6.756
  956TIP3    H2 2810   1.810   0.141   6.736
  957TIP3   OH2 2811   5.106   1.693   4.437
  957TIP3    H1 2812   5.049   1.619   4.459
  957TIP3    H2 2813   5.178   1.654   4.388
  958TIP3   OH2 2814   7.638   3.838   3.421
  958TIP3    H1 2815   7.710   3.899   3.406
  958TIP3    H2 2816   7.594   3.831   3.336
  959TIP3   OH2 2817   5.191   2.725   4.309
  959TIP3    H1 2818   5.100   2.702   4.329
  959TIP3    H2 2819   5.227   2.646   4.269
  960TIP3   OH2 2820   0.679   5.277   1.581
  960TIP3    H1 2821   0.651   5.223   1.655
  960TIP3    H2 2822   0.773   5.263   1.576
  961TIP3   OH2 2823   0.368   5.501   5.828
  961TIP3    H1 2824   0.383   5.516   5.922
  961TIP3    H2 2825   0.272   5.500   5.820
  962TIP3   OH2 2826   2.277   2.282   4.191
  962TIP3    H1 2827   2.218   2.262   4.118
  962TIP3    H2 2828   2.337   2.208   4.193
  963TIP3   OH2 2829   7.497   7.151   0.423
  963TIP3    H1 2830   7.521   7.212   0.352
  963TIP3    H2 2831   7.535   7.067   0.396
  964TIP3   OH2 2832   4.521   1.760   0.297
  964TIP3    H1 2833   4.473   1.691   0.250
  964TIP3    H2 2834   4.612   1.734   0.291
  965TIP3   OH2 2835   1.858   0.232   4.257
  965TIP3    H1 2836   1.826   0.309   4.303
  965TIP3    H2 2837   1.794   0.163   4.276
  966TIP3   OH2 2838   8.376   7.360   2.660
  966TIP3    H1 2839   8.397   7.373   2.568
  966TIP3    H2 2840   8.446   7.305   2.693
  967TIP3   OH2 2841   4.133   2.160   2.658
  967TIP3    H1 2842   4.064   2.226   2.657
  967TIP3    H2 2843   4.171   2.165   2.745
  968TIP3   OH2 2844   1.610   1.990   4.278
  968TIP3    H1 2845   1.674   1.920   4.290
  968TIP3    H2 2846   1.547   1.977   4.349
  969TIP3   OH2 2847   4.178   3.883   4.838
  969TIP3    H1 2848   4.203   3.945   4.906
  969TIP3    H2 2849   4.166   3.800   4.884
  970TIP3   OH2 2850   7.087   7.143   3.536
  970TIP3    H1 2851   7.043   7.063   3.565
  970TIP3    H2 2852   7.019   7.194   3.493
  971TIP3   OH2 2853   5.017   4.260   4.465
  971TIP3    H1 2854   5.010   4.165   4.467
  971TIP3    H2 2855   5.070   4.281   4.542
  972TIP3   OH2 2856   7.105   2.986   3.205
  972TIP3    H1 2857   7.076   3.037   3.281
  972TIP3    H2 2858   7.077   3.037   3.129
  973TIP3   OH2 2859   5.150   5.603   4.907
  973TIP3    H1 2860   5.083   5.581   4.971
  973TIP3    H2 2861   5.198   5.676   4.946
  974TIP3   OH2 2862   2.130   4.722   1.347
  974TIP3    H1 2863   2.038   4.712   1.323
  974TIP3    H2 2864   2.160   4.633   1.365
  975TIP3   OH2 2865   3.183   7.729   4.275
  975TIP3    H1 2866   3.199   7.774   4.358
  975TIP3    H2 2867   3.100   7.683   4.288
  976TIP3   OH2 2868   2.354   0.688   5.254
  976TIP3    H1 2869   2.312   0.743   5.321
  976TIP3    H2 2870   2.422   0.744   5.217
  977TIP3   OH2 2871   3.764   4.080   1.515
  977TIP3    H1 2872   3.693   4.094   1.453
  977TIP3    H2 2873   3.843   4.100   1.466
  978TIP3   OH2 2874   6.839   5.521   5.807
  978TIP3    H1 2875   6.751   5.532   5.843
  978TIP3    H2 2876   6.828   5.532   5.713
  979TIP3   OH2 2877   2.714   4.055   5.176
  979TIP3    H1 2878   2.630   4.021   5.206
  979TIP3    H2 2879   2.707   4.150   5.187
  980TIP3   OH2 2880   2.585   1.170   1.996
  980TIP3    H1 2881   2.505   1.222   1.999
  980TIP3    H2 2882   2.651   1.229   1.958
  981TIP3   OH2 2883   7.046   6.187   4.782
  981TIP3    H1 2884   7.028   6.147   4.867
  981TIP3    H2 2885   6.998   6.270   4.784
  982TIP3   OH2 2886   1.861   4.877   5.949
  982TIP3    H1 2887   1.770   4.853   5.931
  982TIP3    H2 2888   1.910   4.841   5.875
  983TIP3   OH2 2889   2.824   3.336   4.271
  983TIP3    H1 2890   2.733   3.360   4.253
  983TIP3    H2 2891   2.818   3.250   4.313
  984TIP3   OH2 2892   2.940   7.059   0.858
  984TIP3    H1 2893   2.996   6.985   0.883
  984TIP3    H2 2894   2.955   7.070   0.764
  985TIP3   OH2 2895   3.916   1.209   4.838
  985TIP3    H1 2896   3.957   1.295   4.849
  985TIP3    H2 2897   3.918   1.194   4.744
  986TIP3   OH2 2898   5.094   4.415   4.250
  986TIP3    H1 2899   5.172   4.363   4.232
  986TIP3    H2 2900   5.052   4.371   4.324
  987TIP3   OH2 2901   6.902   2.963   5.757
  987TIP3    H1 2902   6.820   3.012   5.744
  987TIP3    H2 2903   6.970   3.022   5.722
  988TIP3   OH2 2904   6.351   7.379   5.956
  988TIP3    H1 2905   6.289   7.399   5.886
  988TIP3    H2 2906   6.436   7.372   5.912
  989TIP3   OH2 2907   7.680   2.162   2.262
  989TIP3    H1 2908   7.763   2.188   2.221
  989TIP3    H2 2909   7.681   2.066   2.259
  990TIP3   OH2 2910   2.907   1.209   6.354
  990TIP3    H1 2911   2.838   1.167   6.407
  990TIP3    H2 2912   2.861   1.279   6.307
  991TIP3   OH2 2913   3.415   6.611   4.662
  991TIP3    H1 2914   3.484   6.671   4.635
  991TIP3    H2 2915   3.459   6.527   4.672
  992TIP3   OH2 2916   1.314   6.732   6.315
  992TIP3    H1 2917   1.251   6.773   6.257
  992TIP3    H2 2918   1.356   6.805   6.360
  993TIP3   OH2 2919   4.114   2.762   3.022
  993TIP3    H1 2920   4.189   2.711   3.054
  993TIP3    H2 2921   4.139   2.853   3.036
  994TIP3   OH2 2922   7.737   7.926   5.863
  994TIP3    H1 2923   7.712   7.989   5.795
  994TIP3    H2 2924   7.695   7.844   5.836
  995TIP3   OH2 2925   3.931   5.269   1.960
  995TIP3    H1 2926   3.886   5.199   2.008
  995TIP3    H2 2927   3.969   5.324   2.029
  996TIP3   OH2 2928   5.233   6.445   3.437
  996TIP3    H1 2929   5.260   6.493   3.358
  996TIP3    H2 2930   5.176   6.376   3.405
  997TIP3   OH2 2931   1.315   3.744   0.153
  997TIP3    H1 2932   1.357   3.673   0.103
  997TIP3    H2 2933   1.368   3.752   0.232
  998TIP3   OH2 2934   5.842   1.869   3.141
  998TIP3    H1 2935   5.790   1.913   3.074
  998TIP3    H2 2936   5.780   1.808   3.183
  999TIP3   OH2 2937   7.122   6.055   6.143
  999TIP3    H1 2938   7.091   6.142   6.121
  999TIP3    H2 2939   7.061   6.023   6.209
 1000TIP3   OH2 2940   6.314   6.018   2.814
 1000TIP3    H1 2941   6.244   5.991   2.754
 1000TIP3    H2 2942   6.372   6.073   2.761
 1001TIP3   OH2 2943   2.086   2.090   3.658
 1001TIP3    H1 2944   2.162   2.133   3.698
 1001TIP3    H2 2945   2.066   2.145   3.582
 1002TIP3   OH2 2946   4.834   1.268   6.718
 1002TIP3    H1 2947   4.818   1.232   6.805
 1002TIP3    H2 2948   4.859   1.192   6.665
 1003TIP3   OH2 2949   3.255   3.816   1.849
 1003TIP3    H1 2950   3.226   3.824   1.941
 1003TIP3    H2 2951   3.319   3.886   1.839
 1004TIP3   OH2 2952   4.050   1.925   4.007
 1004TIP3    H1 2953   4.072   1.861   4.075
 1004TIP3    H2 2954   4.037   2.007   4.055
 1005TIP3   OH2 2955   0.593   4.573   3.139
 1005TIP3    H1 2956   0.514   4.519   3.138
 1005TIP3    H2 2957   0.602   4.603   3.049
 1006TIP3   OH2 2958   1.167   1.129   1.422
 1006TIP3    H1 2959   1.129   1.083   1.497
 1006TIP3    H2 2960   1.148   1.073   1.347
 1007TIP3   OH2 2961   4.856   4.516   2.185
 1007TIP3    H1 2962   4.789   4.474   2.130
 1007TIP3    H2 2963   4.900   4.577   2.125
 1008TIP3   OH2 2964   3.217   7.440   6.552
 1008TIP3    H1 2965   3.168   7.502   6.499
 1008TIP3    H2 2966   3.151   7.395   6.604
 1009TIP3   OH2 2967   5.218   6.185   4.784
 1009TIP3    H1 2968   5.237   6.109   4.728
 1009TIP3    H2 2969   5.127   6.172   4.812
 1010TIP3   OH2 2970   3.852   6.878   3.650
 1010TIP3    H1 2971   3.805   6.933   3.712
 1010TIP3    H2 2972   3.857   6.792   3.693
 1011TIP3   OH2 2973   4.201   3.326   2.210
 1011TIP3    H1 2974   4.262   3.254   2.196
 1011TIP3    H2 2975   4.186   3.362   2.122
 1012TIP3   OH2 2976   5.725   6.681   4.482
 1012TIP3    H1 2977   5.743   6.684   4.576
 1012TIP3    H2 2978   5.803   6.642   4.444
 1013TIP3   OH2 2979   6.132   0.699   3.199
 1013TIP3    H1 2980   6.203   0.763   3.203
 1013TIP3    H2 2981   6.160   0.629   3.258
 1014TIP3   OH2 2982   1.818   7.539   5.007
 1014TIP3    H1 2983   1.877   7.592   4.956
 1014TIP3    H2 2984   1.779   7.599   5.070
 1015TIP3   OH2 2985   2.464   4.396   5.303
 1015TIP3    H1 2986   2.445   4.485   5.335
 1015TIP3    H2 2987   2.405   4.384   5.229
 1016TIP3   OH2 2988   0.308   5.002   3.121
 1016TIP3    H1 2989   0.275   5.092   3.126
 1016TIP3    H2 2990   0.403   5.011   3.118
 1017TIP3   OH2 2991   7.177   0.977   5.624
 1017TIP3    H1 2992   7.117   1.043   5.660
 1017TIP3    H2 2993   7.263   1.018   5.629
 1018TIP3   OH2 2994   3.815   2.346   4.789
 1018TIP3    H1 2995   3.817   2.436   4.756
 1018TIP3    H2 2996   3.724   2.320   4.780
 1019TIP3   OH2 2997   7.986   3.753   2.648
 1019TIP3    H1 2998   7.943   3.676   2.685
 1019TIP3    H2 2999   8.079   3.739   2.666
 1020TIP3   OH2 3000   2.905   0.821   3.558
 1020TIP3    H1 3001   2.927   0.728   3.557
 1020TIP3    H2 3002   2.855   0.833   3.638
 1021TIP3   OH2 3003   3.959   7.299   6.185
 1021TIP3    H1 3004   4.045   7.335   6.203
 1021TIP3    H2 3005   3.946   7.232   6.253
 1022TIP3   OH2 3006   5.633   1.470   1.465
 1022TIP3    H1 3007   5.715   1.495   1.509
 1022TIP3    H2 3008   5.577   1.438   1.536
 1023TIP3   OH2 3009   8.275   3.816   0.332
 1023TIP3    H1 3010   8.185   3.821   0.365
 1023TIP3    H2 3011   8.297   3.723   0.338
 1024TIP3   OH2 3012   5.601   4.703   6.273
 1024TIP3    H1 3013   5.531   4.768   6.281
 1024TIP3    H2 3014   5.556   4.623   6.244
 1025TIP3   OH2 3015   6.655   5.001   3.950
 1025TIP3    H1 3016   6.661   5.001   4.046
 1025TIP3    H2 3017   6.664   4.908   3.926
 1026TIP3   OH2 3018   7.198   6.603   1.014
 1026TIP3    H1 3019   7.192   6.618   1.108
 1026TIP3    H2 3020   7.235   6.516   1.006
 1027TIP3   OH2 3021   6.683   5.610   2.869
 1027TIP3    H1 3022   6.766   5.577   2.834
 1027TIP3    H2 3023   6.707   5.652   2.952
 1028TIP3   OH2 3024   5.359   1.311   0.360
 1028TIP3    H1 3025   5.307   1.341   0.286
 1028TIP3    H2 3026   5.312   1.343   0.437
 1029TIP3   OH2 3027   3.236   1.395   2.406
 1029TIP3    H1 3028   3.186   1.464   2.449
 1029TIP3    H2 3029   3.191   1.314   2.431
 1030TIP3   OH2 3030   1.285   5.689   3.286
 1030TIP3    H1 3031   1.274   5.624   3.216
 1030TIP3    H2 3032   1.267   5.773   3.243
 1031TIP3   OH2 3033   0.405   2.086   3.081
 1031TIP3    H1 3034   0.356   2.111   3.159
 1031TIP3    H2 3035   0.397   2.160   3.022
 1032TIP3   OH2 3036   2.211   4.280   6.237
 1032TIP3    H1 3037   2.216   4.210   6.302
 1032TIP3    H2 3038   2.121   4.313   6.245
 1033TIP3   OH2 3039   0.167   2.223   0.927
 1033TIP3    H1 3040   0.187   2.129   0.934
 1033TIP3    H2 3041   0.241   2.259   0.879
 1034TIP3   OH2 3042   7.746   3.590   1.121
 1034TIP3    H1 3043   7.710   3.674   1.093
 1034TIP3    H2 3044   7.792   3.557   1.044
 1035TIP3   OH2 3045   1.248   1.504   1.232
 1035TIP3    H1 3046   1.207   1.574   1.282
 1035TIP3    H2 3047   1.295   1.452   1.297
 1036TIP3   OH2 3048   7.367   2.256   6.077
 1036TIP3    H1 3049   7.394   2.167   6.098
 1036TIP3    H2 3050   7.445   2.298   6.039
 1037TIP3   OH2 3051   6.444   1.307   3.350
 1037TIP3    H1 3052   6.442   1.311   3.446
 1037TIP3    H2 3053   6.529   1.269   3.330
 1038TIP3   OH2 3054   7.125   1.702   6.825
 1038TIP3    H1 3055   7.089   1.687   6.912
 1038TIP3    H2 3056   7.201   1.758   6.840
 1039TIP3   OH2 3057   7.950   3.807   2.375
 1039TIP3    H1 3058   7.992   3.779   2.457
 1039TIP3    H2 3059   7.863   3.835   2.401
 1040TIP3   OH2 3060   3.801   4.975   3.460
 1040TIP3    H1 3061   3.769   5.064   3.450
 1040TIP3    H2 3062   3.858   4.978   3.537
 1041TIP3   OH2 3063   1.997   6.145   0.400
 1041TIP3    H1 3064   1.938   6.111   0.468
 1041TIP3    H2 3065   2.083   6.111   0.425
 1042TIP3   OH2 3066   5.304   5.832   3.374
 1042TIP3    H1 3067   5.243   5.784   3.318
 1042TIP3    H2 3068   5.286   5.800   3.463
 1043TIP3   OH2 3069   3.857   5.274   1.218
 1043TIP3    H1 3070   3.883   5.366   1.215
 1043TIP3    H2 3071   3.926   5.231   1.269
 1044TIP3   OH2 3072   8.036   1.046   4.063
 1044TIP3    H1 3073   8.128   1.073   4.055
 1044TIP3    H2 3074   8.022   0.987   3.988
 1045TIP3   OH2 3075   5.854   1.676   4.012
 1045TIP3    H1 3076   5.847   1.750   3.952
 1045TIP3    H2 3077   5.928   1.698   4.069
 1046TIP3   OH2 3078   5.040   0.372   3.738
 1046TIP3    H1 3079   4.979   0.299   3.744
 1046TIP3    H2 3080   5.117   0.335   3.693
 1047TIP3   OH2 3081   1.273   0.418   2.613
 1047TIP3    H1 3082   1.244   0.340   2.661
 1047TIP3    H2 3083   1.362   0.433   2.643
 1048TIP3   OH2 3084   2.484   5.866   3.875
 1048TIP3    H1 3085   2.487   5.872   3.971
 1048TIP3    H2 3086   2.496   5.956   3.845
 1049TIP3   OH2 3087   4.213   6.597   1.760
 1049TIP3    H1 3088   4.125   6.614   1.725
 1049TIP3    H2 3089   4.225   6.503   1.748
 1050TIP3   OH2 3090   3.450   1.842   0.370
 1050TIP3    H1 3091   3.543   1.832   0.348
 1050TIP3    H2 3092   3.413   1.888   0.295
 1051TIP3   OH2 3093   8.225   5.076   2.248
 1051TIP3    H1 3094   8.163   5.018   2.203
 1051TIP3    H2 3095   8.301   5.077   2.190
 1052TIP3   OH2 3096   1.450   5.016   2.516
 1052TIP3    H1 3097   1.404   4.933   2.523
 1052TIP3    H2 3098   1.543   4.993   2.514
 1053TIP3   OH2 3099   1.969   0.699   5.899
 1053TIP3    H1 3100   2.026   0.762   5.855
 1053TIP3    H2 3101   2.028   0.643   5.948
 1054TIP3   OH2 3102   4.524   3.634   1.321
 1054TIP3    H1 3103   4.428   3.629   1.318
 1054TIP3    H2 3104   4.552   3.593   1.240
 1055TIP3   OH2 3105   3.072   0.603   1.801
 1055TIP3    H1 3106   3.087   0.509   1.807
 1055TIP3    H2 3107   3.128   0.631   1.728
 1056TIP3   OH2 3108   8.156   4.188   2.602
 1056TIP3    H1 3109   8.183   4.140   2.681
 1056TIP3    H2 3110   8.077   4.142   2.573
 1057TIP3   OH2 3111   6.719   2.216   4.086
 1057TIP3    H1 3112   6.741   2.216   3.993
 1057TIP3    H2 3113   6.634   2.172   4.091
 1058TIP3   OH2 3114   4.719   1.474   1.582
 1058TIP3    H1 3115   4.807   1.511   1.580
 1058TIP3    H2 3116   4.708   1.444   1.672
 1059TIP3   OH2 3117   5.536   2.277   3.787
 1059TIP3    H1 3118   5.449   2.290   3.751
 1059TIP3    H2 3119   5.577   2.212   3.729
 1060TIP3   OH2 3120   1.700   5.290   6.603
 1060TIP3    H1 3121   1.684   5.347   6.527
 1060TIP3    H2 3122   1.710   5.203   6.566
 1061TIP3   OH2 3123   0.958   4.327   1.409
 1061TIP3    H1 3124   0.927   4.417   1.401
 1061TIP3    H2 3125   0.990   4.321   1.499
 1062TIP3   OH2 3126   6.649   6.919   0.141
 1062TIP3    H1 3127   6.620   6.973   0.214
 1062TIP3    H2 3128   6.732   6.957   0.114
 1063TIP3   OH2 3129   2.733   6.666   5.751
 1063TIP3    H1 3130   2.677   6.649   5.674
 1063TIP3    H2 3131   2.810   6.611   5.737
 1064TIP3   OH2 3132   5.075   7.520   2.297
 1064TIP3    H1 3133   5.166   7.516   2.266
 1064TIP3    H2 3134   5.026   7.550   2.221
 1065TIP3   OH2 3135   6.302   2.285   6.000
 1065TIP3    H1 3136   6.343   2.244   5.923
 1065TIP3    H2 3137   6.292   2.213   6.062
 1066TIP3   OH2 3138   1.830   3.010   3.154
 1066TIP3    H1 3139   1.898   3.003   3.221
 1066TIP3    H2 3140   1.753   2.970   3.194
 1067TIP3   OH2 3141   7.206   1.242   0.279
 1067TIP3    H1 3142   7.165   1.166   0.237
 1067TIP3    H2 3143   7.268   1.274   0.214
 1068TIP3   OH2 3144   1.376   1.023   5.848
 1068TIP3    H1 3145   1.385   1.071   5.765
 1068TIP3    H2 3146   1.429   0.945   5.836
 1069TIP3   OH2 3147   6.525   5.883   0.943
 1069TIP3    H1 3148   6.573   5.854   1.020
 1069TIP3    H2 3149   6.453   5.821   0.933
 1070TIP3   OH2 3150   1.714   4.761   1.293
 1070TIP3    H1 3151   1.782   4.786   1.230
 1070TIP3    H2 3152   1.688   4.844   1.333
 1071TIP3   OH2 3153   6.942   3.079   4.017
 1071TIP3    H1 3154   7.029   3.089   4.055
 1071TIP3    H2 3155   6.949   3.003   3.959
 1072TIP3   OH2 3156   1.315   3.864   4.730
 1072TIP3    H1 3157   1.339   3.925   4.661
 1072TIP3    H2 3158   1.363   3.894   4.807
 1073TIP3   OH2 3159   3.322   2.399   5.276
 1073TIP3    H1 3160   3.405   2.369   5.239
 1073TIP3    H2 3161   3.256   2.343   5.235
 1074TIP3   OH2 3162   4.280   5.011   2.599
 1074TIP3    H1 3163   4.256   5.003   2.507
 1074TIP3    H2 3164   4.362   4.962   2.607
 1075TIP3   OH2 3165   0.250   1.848   3.146
 1075TIP3    H1 3166   0.193   1.849   3.069
 1075TIP3    H2 3167   0.322   1.907   3.123
 1076TIP3   OH2 3168   1.443   4.636   1.956
 1076TIP3    H1 3169   1.467   4.588   1.877
 1076TIP3    H2 3170   1.522   4.685   1.980
 1077TIP3   OH2 3171   1.637   5.028   1.308
 1077TIP3    H1 3172   1.651   5.090   1.237
 1077TIP3    H2 3173   1.602   5.081   1.380
 1078TIP3   OH2 3174   5.371   3.595   2.868
 1078TIP3    H1 3175   5.318   3.598   2.788
 1078TIP3    H2 3176   5.320   3.645   2.932
 1079TIP3   OH2 3177   1.039   7.101   6.199
 1079TIP3    H1 3178   1.013   7.074   6.287
 1079TIP3    H2 3179   1.054   7.195   6.206
 1080TIP3   OH2 3180   7.814   1.169   0.522
 1080TIP3    H1 3181   7.769   1.227   0.583
 1080TIP3    H2 3182   7.795   1.081   0.554
 1081TIP3   OH2 3183   4.830   5.308   6.420
 1081TIP3    H1 3184   4.781   5.389   6.433
 1081TIP3    H2 3185   4.842   5.302   6.325
 1082TIP3   OH2 3186   1.372   3.531   5.798
 1082TIP3    H1 3187   1.344   3.439   5.801
 1082TIP3    H2 3188   1.435   3.534   5.726
 1083TIP3   OH2 3189   7.343   1.774   5.860
 1083TIP3    H1 3190   7.317   1.796   5.950
 1083TIP3    H2 3191   7.266   1.731   5.823
 1084TIP3   OH2 3192   5.251   1.513   1.916
 1084TIP3    H1 3193   5.173   1.564   1.939
 1084TIP3    H2 3194   5.314   1.578   1.885
 1085TIP3   OH2 3195   4.007   1.269   5.643
 1085TIP3    H1 3196   4.066   1.215   5.695
 1085TIP3    H2 3197   3.957   1.207   5.590
 1086TIP3   OH2 3198   7.392   3.500   3.230
 1086TIP3    H1 3199   7.358   3.451   3.305
 1086TIP3    H2 3200   7.347   3.462   3.154
 1087TIP3   OH2 3201   6.583   6.097   2.689
 1087TIP3    H1 3202   6.629   6.014   2.675
 1087TIP3    H2 3203   6.648   6.164   2.667
 1088TIP3   OH2 3204   2.620   3.951   1.801
 1088TIP3    H1 3205   2.575   4.004   1.735
 1088TIP3    H2 3206   2.549   3.914   1.854
 1089TIP3   OH2 3207  -0.035   5.320   5.100
 1089TIP3    H1 3208   0.034   5.378   5.133
 1089TIP3    H2 3209  -0.057   5.264   5.174
 1090TIP3   OH2 3210   2.829   5.627   5.485
 1090TIP3    H1 3211   2.826   5.625   5.389
 1090TIP3    H2 3212   2.912   5.585   5.507
 1091TIP3   OH2 3213   7.797   6.861   6.673
 1091TIP3    H1 3214   7.817   6.874   6.765
 1091TIP3    H2 3215   7.716   6.809   6.672
 1092TIP3   OH2 3216   0.663   3.353   0.864
 1092TIP3    H1 3217   0.599   3.378   0.797
 1092TIP3    H2 3218   0.747   3.381   0.828
 1093TIP3   OH2 3219   5.865   1.896   3.879
 1093TIP3    H1 3220   5.834   1.939   3.958
 1093TIP3    H2 3221   5.949   1.938   3.860
 1094TIP3   OH2 3222   2.837   6.479   0.636
 1094TIP3    H1 3223   2.831   6.488   0.541
 1094TIP3    H2 3224   2.788   6.400   0.656
 1095TIP3   OH2 3225  -0.022   0.875   5.368
 1095TIP3    H1 3226   0.068   0.876   5.401
 1095TIP3    H2 3227  -0.036   0.785   5.339
 1096TIP3   OH2 3228   3.165   6.583   0.011
 1096TIP3    H1 3229   3.180   6.492  -0.013
 1096TIP3    H2 3230   3.074   6.600  -0.015
 1097TIP3   OH2 3231   5.912   5.846   6.030
 1097TIP3    H1 3232   5.998   5.806   6.038
 1097TIP3    H2 3233   5.880   5.818   5.944
 1098TIP3   OH2 3234   6.062   3.440   1.811
 1098TIP3    H1 3235   6.125   3.483   1.868
 1098TIP3    H2 3236   6.006   3.391   1.871
 1099TIP3   OH2 3237   1.508   1.513   2.769
 1099TIP3    H1 3238   1.538   1.422   2.760
 1099TIP3    H2 3239   1.422   1.514   2.728
 1100TIP3   OH2 3240   1.849   1.299   2.978
 1100TIP3    H1 3241   1.760   1.268   2.997
 1100TIP3    H2 3242   1.840   1.393   2.965
 1101TIP3   OH2 3243   6.372   5.591   0.891
 1101TIP3    H1 3244   6.421   5.592   0.808
 1101TIP3    H2 3245   6.280   5.588   0.864
 1102TIP3   OH2 3246   1.248   5.462   4.107
 1102TIP3    H1 3247   1.311   5.483   4.176
 1102TIP3    H2 3248   1.286   5.500   4.028
 1103TIP3   OH2 3249   2.721   2.986   6.133
 1103TIP3    H1 3250   2.786   2.977   6.203
 1103TIP3    H2 3251   2.684   2.898   6.124
 1104TIP3   OH2 3252   4.528   4.967   3.637
 1104TIP3    H1 3253   4.447   5.009   3.608
 1104TIP3    H2 3254   4.521   4.966   3.732
 1105TIP3   OH2 3255   1.296   1.854   3.809
 1105TIP3    H1 3256   1.333   1.883   3.726
 1105TIP3    H2 3257   1.365   1.802   3.850
 1106TIP3   OH2 3258   3.517   4.840   3.527
 1106TIP3    H1 3259   3.484   4.911   3.582
 1106TIP3    H2 3260   3.605   4.867   3.502
 1107TIP3   OH2 3261   3.946   7.836   3.609
 1107TIP3    H1 3262   4.010   7.775   3.571
 1107TIP3    H2 3263   3.924   7.797   3.693
 1108TIP3   OH2 3264   3.937   3.090   5.704
 1108TIP3    H1 3265   3.981   3.030   5.644
 1108TIP3    H2 3266   3.844   3.081   5.684
 1109TIP3   OH2 3267   2.775   2.492   0.917
 1109TIP3    H1 3268   2.751   2.403   0.891
 1109TIP3    H2 3269   2.822   2.527   0.841
 1110TIP3   OH2 3270   4.620   3.112   5.710
 1110TIP3    H1 3271   4.532   3.139   5.683
 1110TIP3    H2 3272   4.655   3.188   5.758
 1111TIP3   OH2 3273   4.935   3.152   2.700
 1111TIP3    H1 3274   4.850   3.153   2.655
 1111TIP3    H2 3275   4.929   3.078   2.760
 1112TIP3   OH2 3276   7.742   7.896   6.148
 1112TIP3    H1 3277   7.667   7.945   6.182
 1112TIP3    H2 3278   7.756   7.931   6.060
 1113TIP3   OH2 3279   3.419   2.444   4.989
 1113TIP3    H1 3280   3.487   2.447   4.922
 1113TIP3    H2 3281   3.356   2.379   4.957
 1114TIP3   OH2 3282   4.153   3.024   5.904
 1114TIP3    H1 3283   4.064   3.020   5.868
 1114TIP3    H2 3284   4.147   2.978   5.987
 1115TIP3   OH2 3285   4.492   3.672   2.757
 1115TIP3    H1 3286   4.473   3.582   2.729
 1115TIP3    H2 3287   4.470   3.726   2.681
 1116TIP3   OH2 3288   5.653   5.545   1.714
 1116TIP3    H1 3289   5.562   5.573   1.699
 1116TIP3    H2 3290   5.688   5.532   1.626
 1117TIP3   OH2 3291   2.255   6.479   4.652
 1117TIP3    H1 3292   2.343   6.449   4.675
 1117TIP3    H2 3293   2.268   6.545   4.585
 1118TIP3   OH2 3294   4.472   2.245   1.829
 1118TIP3    H1 3295   4.392   2.203   1.861
 1118TIP3    H2 3296   4.486   2.206   1.743
 1119TIP3   OH2 3297   2.698   4.234   4.438
 1119TIP3    H1 3298   2.689   4.213   4.531
 1119TIP3    H2 3299   2.763   4.304   4.436
 1120TIP3   OH2 3300   2.849   7.384   6.295
 1120TIP3    H1 3301   2.779   7.332   6.334
 1120TIP3    H2 3302   2.804   7.461   6.259
 1121TIP3   OH2 3303   2.697   3.395   4.849
 1121TIP3    H1 3304   2.760   3.455   4.889
 1121TIP3    H2 3305   2.618   3.404   4.902
 1122TIP3   OH2 3306   5.347   1.178   1.115
 1122TIP3    H1 3307   5.403   1.245   1.154
 1122TIP3    H2 3308   5.405   1.103   1.102
 1123TIP3   OH2 3309   6.687   1.224   3.265
 1123TIP3    H1 3310   6.751   1.254   3.200
 1123TIP3    H2 3311   6.696   1.129   3.265
 1124TIP3   OH2 3312   0.199   7.702   6.567
 1124TIP3    H1 3313   0.238   7.779   6.526
 1124TIP3    H2 3314   0.168   7.732   6.652
 1125TIP3   OH2 3315   2.645   0.954   1.736
 1125TIP3    H1 3316   2.717   0.907   1.694
 1125TIP3    H2 3317   2.673   0.964   1.827
 1126TIP3   OH2 3318   3.076   4.731   4.447
 1126TIP3    H1 3319   3.058   4.817   4.408
 1126TIP3    H2 3320   3.150   4.697   4.398
 1127TIP3   OH2 3321   5.623   4.768   4.854
 1127TIP3    H1 3322   5.568   4.843   4.877
 1127TIP3    H2 3323   5.687   4.762   4.925
 1128TIP3   OH2 3324   4.263   4.537   1.759
 1128TIP3    H1 3325   4.189   4.499   1.806
 1128TIP3    H2 3326   4.235   4.539   1.667
 1129TIP3   OH2 3327   5.550   7.907   5.589
 1129TIP3    H1 3328   5.463   7.903   5.549
 1129TIP3    H2 3329   5.542   7.855   5.669
 1130TIP3   OH2 3330   7.294   5.611   1.007
 1130TIP3    H1 3331   7.229   5.599   1.076
 1130TIP3    H2 3332   7.255   5.572   0.930
 1131TIP3   OH2 3333   8.317   1.894   6.657
 1131TIP3    H1 3334   8.393   1.945   6.629
 1131TIP3    H2 3335   8.348   1.804   6.657
 1132TIP3   OH2 3336   1.960   2.581   2.188
 1132TIP3    H1 3337   1.975   2.670   2.156
 1132TIP3    H2 3338   2.022   2.527   2.139
 1133TIP3   OH2 3339   3.096   0.231   1.531
 1133TIP3    H1 3340   3.078   0.287   1.455
 1133TIP3    H2 3341   3.115   0.292   1.602
 1134TIP3   OH2 3342   4.521   2.316   4.526
 1134TIP3    H1 3343   4.524   2.221   4.539
 1134TIP3    H2 3344   4.612   2.344   4.536
 1135TIP3   OH2 3345   7.966   4.219   0.303
 1135TIP3    H1 3346   7.962   4.125   0.321
 1135TIP3    H2 3347   8.056   4.234   0.273
 1136TIP3   OH2 3348   0.246   5.967   0.903
 1136TIP3    H1 3349   0.288   5.981   0.818
 1136TIP3    H2 3350   0.218   5.875   0.901
 1137TIP3   OH2 3351   1.480   0.852   0.448
 1137TIP3    H1 3352   1.543   0.870   0.518
 1137TIP3    H2 3353   1.533   0.814   0.378
 1138TIP3   OH2 3354   3.366   3.499   4.233
 1138TIP3    H1 3355   3.461   3.495   4.233
 1138TIP3    H2 3356   3.341   3.492   4.325
 1139TIP3   OH2 3357   1.073   4.730   0.527
 1139TIP3    H1 3358   1.154   4.713   0.478
 1139TIP3    H2 3359   1.043   4.644   0.554
 1140TIP3   OH2 3360   5.134   2.512   4.094
 1140TIP3    H1 3361   5.217   2.545   4.059
 1140TIP3    H2 3362   5.067   2.565   4.050
 1141TIP3   OH2 3363   2.581   2.350   4.327
 1141TIP3    H1 3364   2.634   2.312   4.258
 1141TIP3    H2 3365   2.637   2.416   4.367
 1142TIP3   OH2 3366   4.501   6.958   0.729
 1142TIP3    H1 3367   4.553   7.011   0.790
 1142TIP3    H2 3368   4.457   6.894   0.785
 1143TIP3   OH2 3369   8.327   3.192   3.137
 1143TIP3    H1 3370   8.411   3.209   3.095
 1143TIP3    H2 3371   8.336   3.105   3.175
 1144TIP3   OH2 3372   4.468   5.157   0.894
 1144TIP3    H1 3373   4.532   5.213   0.938
 1144TIP3    H2 3374   4.441   5.208   0.817
 1145TIP3   OH2 3375   0.870   6.507   6.482
 1145TIP3    H1 3376   0.914   6.588   6.455
 1145TIP3    H2 3377   0.867   6.513   6.578
 1146TIP3   OH2 3378   6.169   4.991   0.644
 1146TIP3    H1 3379   6.109   4.917   0.629
 1146TIP3    H2 3380   6.117   5.068   0.621
 1147TIP3   OH2 3381   3.097   5.847   2.115
 1147TIP3    H1 3382   3.061   5.778   2.171
 1147TIP3    H2 3383   3.020   5.896   2.085
 1148TIP3   OH2 3384   1.098   2.988   6.738
 1148TIP3    H1 3385   1.065   3.074   6.710
 1148TIP3    H2 3386   1.058   2.926   6.677
 1149TIP3   OH2 3387   2.259   5.373   5.701
 1149TIP3    H1 3388   2.172   5.334   5.687
 1149TIP3    H2 3389   2.242   5.455   5.746
 1150TIP3   OH2 3390   5.870   4.355   3.929
 1150TIP3    H1 3391   5.892   4.436   3.974
 1150TIP3    H2 3392   5.955   4.311   3.918
 1151TIP3   OH2 3393   8.034   1.235   1.976
 1151TIP3    H1 3394   7.984   1.211   1.898
 1151TIP3    H2 3395   8.125   1.220   1.951
 1152TIP3   OH2 3396   0.514   4.695   4.675
 1152TIP3    H1 3397   0.430   4.721   4.637
 1152TIP3    H2 3398   0.497   4.610   4.715
 1153TIP3   OH2 3399   4.148   5.808   4.320
 1153TIP3    H1 3400   4.219   5.813   4.385
 1153TIP3    H2 3401   4.169   5.875   4.256
 1154TIP3   OH2 3402   1.083   7.211   5.458
 1154TIP3    H1 3403   1.109   7.273   5.390
 1154TIP3    H2 3404   0.992   7.190   5.439
 1155TIP3   OH2 3405   7.433   5.540   6.758
 1155TIP3    H1 3406   7.389   5.582   6.832
 1155TIP3    H2 3407   7.362   5.515   6.699
 1156TIP3   OH2 3408   6.204   2.456   6.230
 1156TIP3    H1 3409   6.192   2.367   6.263
 1156TIP3    H2 3410   6.181   2.450   6.137
 1157TIP3   OH2 3411   4.599   5.602   1.223
 1157TIP3    H1 3412   4.661   5.569   1.157
 1157TIP3    H2 3413   4.553   5.673   1.178
 1158TIP3   OH2 3414   5.179   4.282  -0.016
 1158TIP3    H1 3415   5.274   4.292  -0.023
 1158TIP3    H2 3416   5.150   4.364   0.026
 1159TIP3   OH2 3417   3.926   3.797   3.262
 1159TIP3    H1 3418   3.897   3.717   3.217
 1159TIP3    H2 3419   3.957   3.766   3.347
 1160TIP3   OH2 3420   6.517   3.241   5.463
 1160TIP3    H1 3421   6.426   3.235   5.435
 1160TIP3    H2 3422   6.533   3.162   5.514
 1161TIP3   OH2 3423   6.039   1.801   1.476
 1161TIP3    H1 3424   6.024   1.891   1.449
 1161TIP3    H2 3425   6.000   1.748   1.406
 1162TIP3   OH2 3426   6.444   3.505   2.930
 1162TIP3    H1 3427   6.356   3.504   2.892
 1162TIP3    H2 3428   6.482   3.588   2.902
 1163TIP3   OH2 3429   4.956   1.004   2.846
 1163TIP3    H1 3430   4.925   1.087   2.811
 1163TIP3    H2 3431   4.899   0.938   2.806
 1164TIP3   OH2 3432   7.009   4.209   6.135
 1164TIP3    H1 3433   6.996   4.298   6.166
 1164TIP3    H2 3434   7.017   4.216   6.040
 1165TIP3   OH2 3435   3.771   3.979   3.490
 1165TIP3    H1 3436   3.777   3.903   3.433
 1165TIP3    H2 3437   3.693   4.026   3.459
 1166TIP3   OH2 3438   1.243   5.306   3.364
 1166TIP3    H1 3439   1.303   5.326   3.436
 1166TIP3    H2 3440   1.273   5.360   3.292
 1167TIP3   OH2 3441   6.832   3.423   1.643
 1167TIP3    H1 3442   6.827   3.477   1.565
 1167TIP3    H2 3443   6.741   3.411   1.670
 1168TIP3   OH2 3444   2.498   4.651   2.688
 1168TIP3    H1 3445   2.533   4.580   2.634
 1168TIP3    H2 3446   2.429   4.690   2.635
 1169TIP3   OH2 3447   2.693   0.135   6.087
 1169TIP3    H1 3448   2.621   0.077   6.065
 1169TIP3    H2 3449   2.686   0.207   6.024
 1170TIP3   OH2 3450   7.498   1.305   1.144
 1170TIP3    H1 3451   7.470   1.396   1.130
 1170TIP3    H2 3452   7.420   1.253   1.124
 1171TIP3   OH2 3453   8.330   6.907   2.248
 1171TIP3    H1 3454   8.396   6.840   2.232
 1171TIP3    H2 3455   8.380   6.983   2.277
 1172TIP3   OH2 3456   1.466   1.904   2.695
 1172TIP3    H1 3457   1.459   1.936   2.605
 1172TIP3    H2 3458   1.377   1.883   2.720
 1173TIP3   OH2 3459   2.332   3.229   4.936
 1173TIP3    H1 3460   2.306   3.231   5.028
 1173TIP3    H2 3461   2.410   3.283   4.932
 1174TIP3   OH2 3462   2.800   7.864   0.582
 1174TIP3    H1 3463   2.753   7.886   0.502
 1174TIP3    H2 3464   2.886   7.834   0.552
 1175TIP3   OH2 3465   5.085   1.279   4.594
 1175TIP3    H1 3466   5.053   1.335   4.664
 1175TIP3    H2 3467   5.045   1.315   4.515
 1176TIP3   OH2 3468   2.725   4.552   0.650
 1176TIP3    H1 3469   2.638   4.515   0.638
 1176TIP3    H2 3470   2.744   4.542   0.743
 1177TIP3   OH2 3471   8.332   4.352   3.133
 1177TIP3    H1 3472   8.390   4.295   3.183
 1177TIP3    H2 3473   8.246   4.340   3.173
 1178TIP3   OH2 3474   8.179   1.269   2.403
 1178TIP3    H1 3475   8.188   1.240   2.313
 1178TIP3    H2 3476   8.237   1.211   2.453
 1179TIP3   OH2 3477   6.005   2.949   6.588
 1179TIP3    H1 3478   6.046   2.863   6.591
 1179TIP3    H2 3479   5.921   2.937   6.631
 1180TIP3   OH2 3480   7.739   2.311   2.973
 1180TIP3    H1 3481   7.646   2.300   2.951
 1180TIP3    H2 3482   7.753   2.406   2.968
 1181TIP3   OH2 3483   4.651   4.841   5.930
 1181TIP3    H1 3484   4.700   4.897   5.990
 1181TIP3    H2 3485   4.717   4.783   5.892
 1182TIP3   OH2 3486   0.995   6.405   0.142
 1182TIP3    H1 3487   1.048   6.401   0.221
 1182TIP3    H2 3488   0.940   6.483   0.153
 1183TIP3   OH2 3489   5.944   3.928   1.499
 1183TIP3    H1 3490   5.936   3.842   1.457
 1183TIP3    H2 3491   6.038   3.945   1.500
 1184TIP3   OH2 3492   3.055   2.595   0.791
 1184TIP3    H1 3493   3.040   2.511   0.748
 1184TIP3    H2 3494   3.132   2.580   0.847
 1185TIP3   OH2 3495   6.481   4.665   3.781
 1185TIP3    H1 3496   6.567   4.691   3.813
 1185TIP3    H2 3497   6.420   4.715   3.835
 1186TIP3   OH2 3498   5.076   0.106   5.205
 1186TIP3    H1 3499   5.040   0.018   5.200
 1186TIP3    H2 3500   5.156   0.103   5.151
 1187TIP3   OH2 3501   4.076   0.076   4.340
 1187TIP3    H1 3502   4.166   0.083   4.308
 1187TIP3    H2 3503   4.023   0.066   4.261
 1188TIP3   OH2 3504   3.457   4.584   3.555
 1188TIP3    H1 3505   3.381   4.599   3.612
 1188TIP3    H2 3506   3.481   4.672   3.525
 1189TIP3   OH2 3507   3.503   3.651   6.510
 1189TIP3    H1 3508   3.419   3.665   6.467
 1189TIP3    H2 3509   3.518   3.557   6.502
 1190TIP3   OH2 3510   3.551   6.418   6.312
 1190TIP3    H1 3511   3.476   6.387   6.260
 1190TIP3    H2 3512   3.511   6.468   6.383
 1191TIP3   OH2 3513   1.016   5.189   0.141
 1191TIP3    H1 3514   1.048   5.279   0.148
 1191TIP3    H2 3515   0.973   5.173   0.225
 1192TIP3   OH2 3516   2.073   3.245   2.078
 1192TIP3    H1 3517   2.093   3.185   2.149
 1192TIP3    H2 3518   2.108   3.202   2.000
 1193TIP3   OH2 3519   4.773   2.640   5.862
 1193TIP3    H1 3520   4.798   2.547   5.857
 1193TIP3    H2 3521   4.798   2.676   5.778
 1194TIP3   OH2 3522   0.801   7.755   5.556
 1194TIP3    H1 3523   0.739   7.683   5.547
 1194TIP3    H2 3524   0.817   7.784   5.466
 1195TIP3   OH2 3525   3.829   4.438   2.034
 1195TIP3    H1 3526   3.840   4.436   2.129
 1195TIP3    H2 3527   3.815   4.530   2.013
 1196TIP3   OH2 3528   2.973   5.929   2.551
 1196TIP3    H1 3529   2.925   5.893   2.476
 1196TIP3    H2 3530   3.004   5.853   2.599
 1197TIP3   OH2 3531   7.457   4.985   5.182
 1197TIP3    H1 3532   7.378   5.030   5.213
 1197TIP3    H2 3533   7.529   5.032   5.224
 1198TIP3   OH2 3534   2.225   3.094   4.305
 1198TIP3    H1 3535   2.193   3.097   4.395
 1198TIP3    H2 3536   2.201   3.180   4.269
 1199TIP3   OH2 3537   8.062   3.021   0.079
 1199TIP3    H1 3538   8.148   2.992   0.047
 1199TIP3    H2 3539   8.044   3.101   0.029
 1200TIP3   OH2 3540   5.579   4.830   0.608
 1200TIP3    H1 3541   5.504   4.851   0.553
 1200TIP3    H2 3542   5.596   4.911   0.657
 1201TIP3   OH2 3543   6.253   6.874   2.670
 1201TIP3    H1 3544   6.229   6.823   2.748
 1201TIP3    H2 3545   6.186   6.853   2.606
 1202TIP3   OH2 3546   5.213   5.186   6.852
 1202TIP3    H1 3547   5.150   5.131   6.805
 1202TIP3    H2 3548   5.286   5.128   6.871
 1203TIP3   OH2 3549   5.816   4.009   5.137
 1203TIP3    H1 3550   5.806   3.999   5.042
 1203TIP3    H2 3551   5.731   4.042   5.167
 1204TIP3   OH2 3552   5.156   4.052   5.178
 1204TIP3    H1 3553   5.080   4.017   5.133
 1204TIP3    H2 3554   5.161   4.143   5.149
 1205TIP3   OH2 3555   5.317   3.251   5.647
 1205TIP3    H1 3556   5.324   3.203   5.729
 1205TIP3    H2 3557   5.401   3.235   5.603
 1206TIP3   OH2 3558   8.277   7.510   6.154
 1206TIP3    H1 3559   8.279   7.570   6.079
 1206TIP3    H2 3560   8.283   7.568   6.231
 1207TIP3   OH2 3561   6.930   6.562   6.151
 1207TIP3    H1 3562   6.842   6.531   6.172
 1207TIP3    H2 3563   6.980   6.549   6.232
 1208TIP3   OH2 3564   4.647   3.109   0.055
 1208TIP3    H1 3565   4.688   3.081   0.137
 1208TIP3    H2 3566   4.596   3.187   0.079
 1209TIP3   OH2 3567   3.875   4.185   0.993
 1209TIP3    H1 3568   3.817   4.126   1.041
 1209TIP3    H2 3569   3.823   4.265   0.982
 1210TIP3   OH2 3570   5.891   0.294   4.280
 1210TIP3    H1 3571   5.878   0.382   4.314
 1210TIP3    H2 3572   5.805   0.252   4.288
 1211TIP3   OH2 3573   7.527   3.563   2.963
 1211TIP3    H1 3574   7.544   3.654   2.988
 1211TIP3    H2 3575   7.585   3.512   3.019
 1212TIP3   OH2 3576   8.054   0.159   5.326
 1212TIP3    H1 3577   8.015   0.089   5.379
 1212TIP3    H2 3578   8.002   0.237   5.347
 1213TIP3   OH2 3579   5.881   5.861   4.708
 1213TIP3    H1 3580   5.918   5.846   4.795
 1213TIP3    H2 3581   5.788   5.839   4.717
 1214TIP3   OH2 3582   2.115   0.191   6.564
 1214TIP3    H1 3583   2.191   0.248   6.575
 1214TIP3    H2 3584   2.064   0.233   6.495
 1215TIP3   OH2 3585   6.205   7.461   4.504
 1215TIP3    H1 3586   6.163   7.545   4.523
 1215TIP3    H2 3587   6.270   7.482   4.437
 1216TIP3   OH2 3588   2.392   5.106   3.647
 1216TIP3    H1 3589   2.453   5.047   3.691
 1216TIP3    H2 3590   2.333   5.134   3.717
 1217TIP3   OH2 3591   4.518   0.355   3.098
 1217TIP3    H1 3592   4.571   0.290   3.146
 1217TIP3    H2 3593   4.572   0.434   3.098
 1218TIP3   OH2 3594   8.256   5.429   6.256
 1218TIP3    H1 3595   8.328   5.428   6.192
 1218TIP3    H2 3596   8.294   5.394   6.336
 1219TIP3   OH2 3597   7.151   6.262   5.640
 1219TIP3    H1 3598   7.084   6.195   5.657
 1219TIP3    H2 3599   7.165   6.259   5.546
 1220TIP3   OH2 3600   6.244   3.544   1.985
 1220TIP3    H1 3601   6.326   3.566   1.941
 1220TIP3    H2 3602   6.254   3.578   2.073
 1221TIP3   OH2 3603   0.737   7.136   6.732
 1221TIP3    H1 3604   0.698   7.220   6.710
 1221TIP3    H2 3605   0.663   7.079   6.752
 1222TIP3   OH2 3606   2.295   6.976   2.712
 1222TIP3    H1 3607   2.278   7.056   2.663
 1222TIP3    H2 3608   2.308   7.005   2.803
 1223TIP3   OH2 3609   0.983   2.735   0.525
 1223TIP3    H1 3610   1.051   2.668   0.516
 1223TIP3    H2 3611   1.033   2.817   0.534
 1224TIP3   OH2 3612   2.124   5.442   4.815
 1224TIP3    H1 3613   2.047   5.407   4.768
 1224TIP3    H2 3614   2.165   5.501   4.752
 1225TIP3   OH2 3615   1.996   3.554   1.309
 1225TIP3    H1 3616   2.044   3.634   1.330
 1225TIP3    H2 3617   2.064   3.490   1.290
 1226TIP3   OH2 3618   2.219   1.939   1.788
 1226TIP3    H1 3619   2.301   1.971   1.750
 1226TIP3    H2 3620   2.204   1.854   1.747
 1227TIP3   OH2 3621   4.206   2.291   2.892
 1227TIP3    H1 3622   4.227   2.250   2.976
 1227TIP3    H2 3623   4.151   2.365   2.915
 1228TIP3   OH2 3624   4.498   4.894   3.137
 1228TIP3    H1 3625   4.531   4.866   3.051
 1228TIP3    H2 3626   4.575   4.925   3.184
 1229TIP3   OH2 3627   6.295   5.740   6.669
 1229TIP3    H1 3628   6.348   5.818   6.684
 1229TIP3    H2 3629   6.210   5.773   6.641
 1230TIP3   OH2 3630   3.680   2.439   4.388
 1230TIP3    H1 3631   3.627   2.395   4.321
 1230TIP3    H2 3632   3.702   2.524   4.349
 1231TIP3   OH2 3633   0.208   2.235   5.817
 1231TIP3    H1 3634   0.248   2.178   5.883
 1231TIP3    H2 3635   0.183   2.177   5.746
 1232TIP3   OH2 3636   8.134   4.843   5.827
 1232TIP3    H1 3637   8.181   4.926   5.814
 1232TIP3    H2 3638   8.142   4.797   5.743
 1233TIP3   OH2 3639   3.938   3.877   6.311
 1233TIP3    H1 3640   3.884   3.799   6.325
 1233TIP3    H2 3641   3.883   3.935   6.259
 1234TIP3   OH2 3642   1.068   0.212   1.235
 1234TIP3    H1 3643   1.131   0.196   1.165
 1234TIP3    H2 3644   1.099   0.159   1.308
 1235TIP3   OH2 3645   1.960   6.025   3.308
 1235TIP3    H1 3646   1.999   6.112   3.300
 1235TIP3    H2 3647   2.033   5.964   3.302
 1236TIP3   OH2 3648   6.892   2.339   6.123
 1236TIP3    H1 3649   6.936   2.275   6.067
 1236TIP3    H2 3650   6.830   2.383   6.066
 1237TIP3   OH2 3651   6.148   7.282   3.094
 1237TIP3    H1 3652   6.155   7.208   3.033
 1237TIP3    H2 3653   6.167   7.243   3.179
 1238TIP3   OH2 3654   7.457   1.420   0.532
 1238TIP3    H1 3655   7.466   1.479   0.458
 1238TIP3    H2 3656   7.363   1.402   0.539
 1239TIP3   OH2 3657   3.614   7.091   0.053
 1239TIP3    H1 3658   3.648   7.118  -0.033
 1239TIP3    H2 3659   3.590   6.999   0.042
 1240TIP3   OH2 3660   5.926   5.172   5.983
 1240TIP3    H1 3661   5.995   5.124   5.939
 1240TIP3    H2 3662   5.939   5.153   6.076
 1241TIP3   OH2 3663   4.844   3.822   3.185
 1241TIP3    H1 3664   4.902   3.895   3.206
 1241TIP3    H2 3665   4.837   3.824   3.089
 1242TIP3   OH2 3666   7.362   6.972   1.233
 1242TIP3    H1 3667   7.320   6.971   1.319
 1242TIP3    H2 3668   7.404   7.057   1.227
 1243TIP3   OH2 3669   0.992   2.031   1.516
 1243TIP3    H1 3670   0.972   2.109   1.464
 1243TIP3    H2 3671   1.068   1.993   1.473
 1244TIP3   OH2 3672  -0.030   2.512   2.538
 1244TIP3    H1 3673   0.058   2.539   2.561
 1244TIP3    H2 3674  -0.020   2.466   2.455
 1245TIP3   OH2 3675   5.193   4.916   4.331
 1245TIP3    H1 3676   5.240   4.835   4.310
 1245TIP3    H2 3677   5.254   4.967   4.383
 1246TIP3   OH2 3678   8.082   0.588   4.890
 1246TIP3    H1 3679   8.110   0.640   4.965
 1246TIP3    H2 3680   8.136   0.620   4.818
 1247TIP3   OH2 3681   5.177   4.343   0.404
 1247TIP3    H1 3682   5.170   4.248   0.396
 1247TIP3    H2 3683   5.255   4.357   0.458
 1248TIP3   OH2 3684   5.248   0.589   6.408
 1248TIP3    H1 3685   5.183   0.521   6.424
 1248TIP3    H2 3686   5.231   0.618   6.319
 1249TIP3   OH2 3687   6.811   7.191   3.480
 1249TIP3    H1 3688   6.731   7.235   3.509
 1249TIP3    H2 3689   6.809   7.199   3.385
 1250TIP3   OH2 3690   1.448   3.266   3.503
 1250TIP3    H1 3691   1.532   3.230   3.476
 1250TIP3    H2 3692   1.468   3.322   3.578
 1251TIP3   OH2 3693   7.305   3.971   3.941
 1251TIP3    H1 3694   7.348   3.910   3.882
 1251TIP3    H2 3695   7.225   3.997   3.896
 1252TIP3   OH2 3696   0.035   5.080   1.988
 1252TIP3    H1 3697   0.058   4.987   1.998
 1252TIP3    H2 3698   0.105   5.115   1.933
 1253TIP3   OH2 3699   3.780   7.079   5.818
 1253TIP3    H1 3700   3.866   7.078   5.775
 1253TIP3    H2 3701   3.793   7.031   5.899
 1254TIP3   OH2 3702   7.498   4.128   4.280
 1254TIP3    H1 3703   7.441   4.051   4.269
 1254TIP3    H2 3704   7.581   4.092   4.312
 1255TIP3   OH2 3705   5.347   7.201   0.617
 1255TIP3    H1 3706   5.438   7.230   0.614
 1255TIP3    H2 3707   5.352   7.107   0.637
 1256TIP3   OH2 3708   1.737   7.255   5.533
 1256TIP3    H1 3709   1.809   7.229   5.475
 1256TIP3    H2 3710   1.767   7.230   5.620
 1257TIP3   OH2 3711   8.377   3.570   4.930
 1257TIP3    H1 3712   8.301   3.566   4.989
 1257TIP3    H2 3713   8.419   3.654   4.951
 1258TIP3   OH2 3714   4.226   6.243   4.569
 1258TIP3    H1 3715   4.261   6.331   4.583
 1258TIP3    H2 3716   4.269   6.190   4.636
 1259TIP3   OH2 3717   1.195   5.426   2.572
 1259TIP3    H1 3718   1.122   5.457   2.519
 1259TIP3    H2 3719   1.253   5.381   2.510
 1260TIP3   OH2 3720   0.155   0.679   1.838
 1260TIP3    H1 3721   0.229   0.696   1.779
 1260TIP3    H2 3722   0.081   0.665   1.779
 1261TIP3   OH2 3723   7.534   2.982   3.135
 1261TIP3    H1 3724   7.549   2.969   3.041
 1261TIP3    H2 3725   7.618   2.962   3.176
 1262TIP3   OH2 3726   7.840   3.618   5.001
 1262TIP3    H1 3727   7.788   3.645   5.077
 1262TIP3    H2 3728   7.927   3.599   5.036
 1263TIP3   OH2 3729   7.501   2.956   0.302
 1263TIP3    H1 3730   7.528   2.906   0.378
 1263TIP3    H2 3731   7.405   2.954   0.305
 1264TIP3   OH2 3732   0.442   3.434   4.138
 1264TIP3    H1 3733   0.364   3.488   4.125
 1264TIP3    H2 3734   0.489   3.476   4.211
 1265TIP3   OH2 3735   4.680   6.201   2.827
 1265TIP3    H1 3736   4.668   6.247   2.744
 1265TIP3    H2 3737   4.637   6.117   2.814
 1266TIP3   OH2 3738   1.673   4.993   4.767
 1266TIP3    H1 3739   1.581   4.970   4.778
 1266TIP3    H2 3740   1.710   4.922   4.716
 1267TIP3   OH2 3741   5.379   3.437   1.090
 1267TIP3    H1 3742   5.374   3.531   1.072
 1267TIP3    H2 3743   5.344   3.427   1.178
 1268TIP3   OH2 3744   4.204   2.845   0.727
 1268TIP3    H1 3745   4.152   2.816   0.652
 1268TIP3    H2 3746   4.269   2.905   0.689
 1269TIP3   OH2 3747   8.143   1.404   5.231
 1269TIP3    H1 3748   8.146   1.319   5.186
 1269TIP3    H2 3749   8.179   1.386   5.318
 1270TIP3   OH2 3750   4.193   1.900   1.693
 1270TIP3    H1 3751   4.112   1.923   1.646
 1270TIP3    H2 3752   4.186   1.806   1.708
 1271TIP3   OH2 3753   7.017   7.166   4.148
 1271TIP3    H1 3754   7.097   7.179   4.097
 1271TIP3    H2 3755   6.998   7.252   4.184
 1272TIP3   OH2 3756   3.954   2.447   4.481
 1272TIP3    H1 3757   3.866   2.479   4.460
 1272TIP3    H2 3758   3.970   2.477   4.570
 1273TIP3   OH2 3759   2.733   0.066   5.137
 1273TIP3    H1 3760   2.789   0.110   5.202
 1273TIP3    H2 3761   2.767   0.095   5.053
 1274TIP3   OH2 3762   2.922   2.571   3.777
 1274TIP3    H1 3763   2.937   2.480   3.752
 1274TIP3    H2 3764   2.831   2.572   3.808
 1275TIP3   OH2 3765   7.568   1.441   6.285
 1275TIP3    H1 3766   7.639   1.408   6.340
 1275TIP3    H2 3767   7.492   1.390   6.311
 1276TIP3   OH2 3768   3.854   6.375   1.629
 1276TIP3    H1 3769   3.819   6.365   1.540
 1276TIP3    H2 3770   3.788   6.426   1.675
 1277TIP3   OH2 3771   2.693   6.757   6.208
 1277TIP3    H1 3772   2.665   6.820   6.141
 1277TIP3    H2 3773   2.776   6.792   6.240
 1278TIP3   OH2 3774   4.106   5.062   3.943
 1278TIP3    H1 3775   4.101   5.132   4.008
 1278TIP3    H2 3776   4.199   5.038   3.940
 1279TIP3   OH2 3777   0.916   2.814   6.883
 1279TIP3    H1 3778   0.997   2.864   6.880
 1279TIP3    H2 3779   0.873   2.830   6.799
 1280TIP3   OH2 3780   0.243   1.229   2.985
 1280TIP3    H1 3781   0.156   1.193   3.005
 1280TIP3    H2 3782   0.284   1.241   3.070
 1281TIP3   OH2 3783   5.435   1.203   0.032
 1281TIP3    H1 3784   5.486   1.282   0.020
 1281TIP3    H2 3785   5.490   1.133  -0.003
 1282TIP3   OH2 3786   3.810   0.833   6.173
 1282TIP3    H1 3787   3.873   0.899   6.144
 1282TIP3    H2 3788   3.847   0.750   6.146
 1283TIP3   OH2 3789   8.287   7.734   2.299
 1283TIP3    H1 3790   8.295   7.647   2.259
 1283TIP3    H2 3791   8.203   7.733   2.344
 1284TIP3   OH2 3792   1.019   4.296   1.662
 1284TIP3    H1 3793   0.995   4.204   1.650
 1284TIP3    H2 3794   0.954   4.330   1.723
 1285TIP3   OH2 3795   2.546   1.917   6.186
 1285TIP3    H1 3796   2.559   1.890   6.095
 1285TIP3    H2 3797   2.632   1.903   6.227
 1286TIP3   OH2 3798   2.578   2.543   3.515
 1286TIP3    H1 3799   2.578   2.613   3.581
 1286TIP3    H2 3800   2.660   2.556   3.467
 1287TIP3   OH2 3801   0.076   4.426   0.153
 1287TIP3    H1 3802   0.141   4.491   0.177
 1287TIP3    H2 3803   0.065   4.436   0.059
 1288TIP3   OH2 3804   4.035   5.157   4.454
 1288TIP3    H1 3805   4.003   5.247   4.448
 1288TIP3    H2 3806   3.961   5.103   4.427
 1289TIP3   OH2 3807   6.765   3.497   2.153
 1289TIP3    H1 3808   6.683   3.449   2.150
 1289TIP3    H2 3809   6.760   3.549   2.234
 1290TIP3   OH2 3810   5.898   4.105   1.212
 1290TIP3    H1 3811   5.900   4.121   1.306
 1290TIP3    H2 3812   5.904   4.192   1.172
 1291TIP3   OH2 3813   3.715   2.130   0.658
 1291TIP3    H1 3814   3.657   2.187   0.607
 1291TIP3    H2 3815   3.681   2.136   0.747
 1292TIP3   OH2 3816   8.187   5.364   5.896
 1292TIP3    H1 3817   8.167   5.441   5.949
 1292TIP3    H2 3818   8.146   5.381   5.811
 1293TIP3   OH2 3819   4.374   1.478   4.169
 1293TIP3    H1 3820   4.461   1.461   4.134
 1293TIP3    H2 3821   4.326   1.517   4.097
 1294TIP3   OH2 3822   5.804   4.601   1.995
 1294TIP3    H1 3823   5.881   4.652   2.022
 1294TIP3    H2 3824   5.775   4.558   2.075
 1295TIP3   OH2 3825   3.573   2.985   4.223
 1295TIP3    H1 3826   3.490   2.946   4.247
 1295TIP3    H2 3827   3.599   3.035   4.300
 1296TIP3   OH2 3828   6.999   2.457   0.589
 1296TIP3    H1 3829   7.076   2.512   0.574
 1296TIP3    H2 3830   6.961   2.489   0.670
 1297TIP3   OH2 3831   4.381   1.845   2.347
 1297TIP3    H1 3832   4.323   1.919   2.361
 1297TIP3    H2 3833   4.443   1.875   2.280
 1298TIP3   OH2 3834   6.871   4.099   5.252
 1298TIP3    H1 3835   6.838   4.167   5.311
 1298TIP3    H2 3836   6.822   4.113   5.171
 1299TIP3   OH2 3837   3.237   5.395   6.403
 1299TIP3    H1 3838   3.203   5.417   6.489
 1299TIP3    H2 3839   3.204   5.464   6.345
 1300TIP3   OH2 3840   7.751   0.834   2.886
 1300TIP3    H1 3841   7.841   0.811   2.865
 1300TIP3    H2 3842   7.747   0.929   2.875
 1301TIP3   OH2 3843   1.030   3.529   2.639
 1301TIP3    H1 3844   0.962   3.561   2.699
 1301TIP3    H2 3845   1.090   3.480   2.695
 1302TIP3   OH2 3846   5.505   4.243   4.687
 1302TIP3    H1 3847   5.596   4.225   4.665
 1302TIP3    H2 3848   5.466   4.273   4.605
 1303TIP3   OH2 3849   1.097   5.416   4.370
 1303TIP3    H1 3850   1.084   5.338   4.425
 1303TIP3    H2 3851   1.180   5.399   4.325
 1304TIP3   OH2 3852   0.947   0.919   2.803
 1304TIP3    H1 3853   0.895   0.844   2.831
 1304TIP3    H2 3854   1.030   0.910   2.849
 1305TIP3   OH2 3855   6.310   2.912   4.401
 1305TIP3    H1 3856   6.221   2.930   4.431
 1305TIP3    H2 3857   6.328   2.980   4.336
 1306TIP3   OH2 3858   0.994   3.212   6.092
 1306TIP3    H1 3859   1.010   3.165   6.174
 1306TIP3    H2 3860   0.929   3.160   6.046
 1307TIP3   OH2 3861   3.298   5.535   3.676
 1307TIP3    H1 3862   3.271   5.487   3.598
 1307TIP3    H2 3863   3.327   5.620   3.644
 1308TIP3   OH2 3864   6.671   3.861   3.889
 1308TIP3    H1 3865   6.695   3.838   3.799
 1308TIP3    H2 3866   6.600   3.925   3.879
 1309TIP3   OH2 3867   2.523   0.032   0.908
 1309TIP3    H1 3868   2.522   0.109   0.965
 1309TIP3    H2 3869   2.596  -0.021   0.940
 1310TIP3   OH2 3870   2.353   1.413   2.240
 1310TIP3    H1 3871   2.258   1.415   2.253
 1310TIP3    H2 3872   2.377   1.320   2.247
 1311TIP3   OH2 3873   7.698   3.661   3.635
 1311TIP3    H1 3874   7.681   3.730   3.571
 1311TIP3    H2 3875   7.752   3.597   3.589
 1312TIP3   OH2 3876   7.498   5.987   1.452
 1312TIP3    H1 3877   7.449   5.959   1.375
 1312TIP3    H2 3878   7.587   5.956   1.437
 1313TIP3   OH2 3879   1.240   2.589   4.385
 1313TIP3    H1 3880   1.241   2.585   4.290
 1313TIP3    H2 3881   1.150   2.565   4.409
 1314TIP3   OH2 3882   3.918   4.646   5.746
 1314TIP3    H1 3883   3.952   4.605   5.667
 1314TIP3    H2 3884   3.976   4.615   5.816
 1315TIP3   OH2 3885   6.561   5.285   1.045
 1315TIP3    H1 3886   6.525   5.198   1.062
 1315TIP3    H2 3887   6.486   5.337   1.016
 1316TIP3   OH2 3888   5.847   7.879   4.664
 1316TIP3    H1 3889   5.758   7.846   4.649
 1316TIP3    H2 3890   5.835   7.952   4.725
 1317TIP3   OH2 3891   1.209   4.663   4.801
 1317TIP3    H1 3892   1.178   4.753   4.808
 1317TIP3    H2 3893   1.129   4.611   4.802
 1318TIP3   OH2 3894   5.476   0.022   1.265
 1318TIP3    H1 3895   5.522   0.106   1.265
 1318TIP3    H2 3896   5.479  -0.007   1.173
 1319TIP3   OH2 3897   1.573   3.119   5.590
 1319TIP3    H1 3898   1.549   3.200   5.635
 1319TIP3    H2 3899   1.570   3.052   5.659
 1320TIP3   OH2 3900   1.858   1.680   2.101
 1320TIP3    H1 3901   1.903   1.648   2.179
 1320TIP3    H2 3902   1.842   1.773   2.119
 1321TIP3   OH2 3903   6.343   7.323   5.154
 1321TIP3    H1 3904   6.302   7.351   5.236
 1321TIP3    H2 3905   6.270   7.318   5.092
 1322TIP3   OH2 3906   7.142   6.743   4.955
 1322TIP3    H1 3907   7.170   6.783   5.037
 1322TIP3    H2 3908   7.223   6.718   4.911
 1323TIP3   OH2 3909   0.232   0.881   2.049
 1323TIP3    H1 3910   0.272   0.969   2.049
 1323TIP3    H2 3911   0.194   0.872   1.962
 1324TIP3   OH2 3912   4.583   3.372   5.206
 1324TIP3    H1 3913   4.636   3.321   5.267
 1324TIP3    H2 3914   4.555   3.310   5.139
 1325TIP3   OH2 3915   4.255   4.832   3.277
 1325TIP3    H1 3916   4.254   4.737   3.292
 1325TIP3    H2 3917   4.335   4.847   3.226
 1326TIP3   OH2 3918   5.839   2.219   0.613
 1326TIP3    H1 3919   5.765   2.207   0.554
 1326TIP3    H2 3920   5.896   2.281   0.569
 1327TIP3   OH2 3921   0.650   6.688   4.596
 1327TIP3    H1 3922   0.675   6.648   4.679
 1327TIP3    H2 3923   0.555   6.687   4.597
 1328TIP3   OH2 3924   6.343   6.095   4.388
 1328TIP3    H1 3925   6.308   6.182   4.404
 1328TIP3    H2 3926   6.356   6.092   4.293
 1329TIP3   OH2 3927   5.695   2.957   5.716
 1329TIP3    H1 3928   5.789   2.952   5.698
 1329TIP3    H2 3929   5.689   2.979   5.809
 1330TIP3   OH2 3930   4.343   2.184   5.600
 1330TIP3    H1 3931   4.392   2.117   5.648
 1330TIP3    H2 3932   4.311   2.139   5.522
 1331TIP3   OH2 3933   3.880   7.483   5.990
 1331TIP3    H1 3934   3.886   7.428   6.068
 1331TIP3    H2 3935   3.965   7.526   5.983
 1332TIP3   OH2 3936   2.851   6.895   2.490
 1332TIP3    H1 3937   2.877   6.925   2.403
 1332TIP3    H2 3938   2.877   6.967   2.548
 1333TIP3   OH2 3939   6.524   5.997   3.534
 1333TIP3    H1 3940   6.454   6.014   3.471
 1333TIP3    H2 3941   6.491   5.924   3.587
 1334TIP3   OH2 3942   3.060   3.159   0.278
 1334TIP3    H1 3943   3.026   3.070   0.269
 1334TIP3    H2 3944   2.986   3.210   0.311
 1335TIP3   OH2 3945   6.078   0.504   2.750
 1335TIP3    H1 3946   6.081   0.579   2.809
 1335TIP3    H2 3947   6.137   0.528   2.679
 1336TIP3   OH2 3948   3.303   5.978   1.194
 1336TIP3    H1 3949   3.345   5.967   1.109
 1336TIP3    H2 3950   3.371   6.018   1.249
 1337TIP3   OH2 3951   3.890   6.811   4.547
 1337TIP3    H1 3952   3.974   6.848   4.573
 1337TIP3    H2 3953   3.848   6.880   4.496
 1338TIP3   OH2 3954   5.436   7.601   5.438
 1338TIP3    H1 3955   5.421   7.680   5.490
 1338TIP3    H2 3956   5.528   7.579   5.454
 1339TIP3   OH2 3957   0.983   0.800   3.722
 1339TIP3    H1 3958   0.892   0.829   3.722
 1339TIP3    H2 3959   0.997   0.763   3.809
 1340TIP3   OH2 3960   8.171   4.015   2.839
 1340TIP3    H1 3961   8.105   4.042   2.903
 1340TIP3    H2 3962   8.161   3.920   2.833
 1341TIP3   OH2 3963   6.795   7.566   2.428
 1341TIP3    H1 3964   6.740   7.489   2.443
 1341TIP3    H2 3965   6.878   7.529   2.396
 1342TIP3   OH2 3966   2.135   7.684   5.440
 1342TIP3    H1 3967   2.122   7.736   5.520
 1342TIP3    H2 3968   2.056   7.630   5.434
 1343TIP3   OH2 3969   6.890   0.449   5.809
 1343TIP3    H1 3970   6.873   0.481   5.898
 1343TIP3    H2 3971   6.984   0.431   5.808
 1344TIP3   OH2 3972   3.472   7.444   1.693
 1344TIP3    H1 3973   3.445   7.437   1.785
 1344TIP3    H2 3974   3.480   7.354   1.663
 1345TIP3   OH2 3975   4.306   7.573   4.332
 1345TIP3    H1 3976   4.282   7.571   4.425
 1345TIP3    H2 3977   4.398   7.598   4.331
 1346TIP3   OH2 3978   1.097   2.870   5.207
 1346TIP3    H1 3979   1.164   2.817   5.250
 1346TIP3    H2 3980   1.105   2.848   5.114
 1347TIP3   OH2 3981   6.384   4.562   0.877
 1347TIP3    H1 3982   6.385   4.599   0.965
 1347TIP3    H2 3983   6.423   4.475   0.886
 1348TIP3   OH2 3984   5.970   0.929   2.947
 1348TIP3    H1 3985   5.939   0.961   3.032
 1348TIP3    H2 3986   5.893   0.935   2.890
 1349TIP3   OH2 3987   5.397   6.201   1.914
 1349TIP3    H1 3988   5.433   6.252   1.986
 1349TIP3    H2 3989   5.302   6.202   1.928
 1350TIP3   OH2 3990   6.992   3.299   4.516
 1350TIP3    H1 3991   6.972   3.279   4.425
 1350TIP3    H2 3992   6.963   3.221   4.564
 1351TIP3   OH2 3993   7.099   0.034   4.257
 1351TIP3    H1 3994   7.013   0.025   4.215
 1351TIP3    H2 3995   7.088  -0.006   4.343
 1352TIP3   OH2 3996   0.988   0.853   4.247
 1352TIP3    H1 3997   0.906   0.881   4.287
 1352TIP3    H2 3998   1.041   0.823   4.321
 1353TIP3   OH2 3999   0.246  -0.031   2.101
 1353TIP3    H1 4000   0.341  -0.041   2.112
 1353TIP3    H2 4001   0.236   0.055   2.060
 1354TIP3   OH2 4002   7.242   7.091   5.179
 1354TIP3    H1 4003   7.148   7.113   5.179
 1354TIP3    H2 4004   7.277   7.139   5.254
 1355TIP3   OH2 4005   2.868   5.081   4.089
 1355TIP3    H1 4006   2.853   5.167   4.129
 1355TIP3    H2 4007   2.953   5.089   4.046
 1356TIP3   OH2 4008   4.260   1.298   2.175
 1356TIP3    H1 4009   4.244   1.381   2.220
 1356TIP3    H2 4010   4.268   1.233   2.245
 1357TIP3   OH2 4011   1.350   2.800   5.375
 1357TIP3    H1 4012   1.407   2.876   5.364
 1357TIP3    H2 4013   1.318   2.807   5.465
 1358TIP3   OH2 4014   1.173   6.019   5.854
 1358TIP3    H1 4015   1.175   5.973   5.938
 1358TIP3    H2 4016   1.264   6.037   5.834
 1359TIP3   OH2 4017   4.177   4.770   0.547
 1359TIP3    H1 4018   4.201   4.740   0.635
 1359TIP3    H2 4019   4.188   4.693   0.491
 1360TIP3   OH2 4020   3.500   0.828   5.810
 1360TIP3    H1 4021   3.593   0.848   5.823
 1360TIP3    H2 4022   3.458   0.914   5.806
 1361TIP3   OH2 4023   4.076   5.172   1.366
 1361TIP3    H1 4024   4.148   5.114   1.341
 1361TIP3    H2 4025   4.117   5.257   1.381
 1362TIP3   OH2 4026   2.875   2.810   5.827
 1362TIP3    H1 4027   2.960   2.822   5.785
 1362TIP3    H2 4028   2.822   2.883   5.795
 1363TIP3   OH2 4029   1.573   3.493   4.465
 1363TIP3    H1 4030   1.531   3.536   4.540
 1363TIP3    H2 4031   1.515   3.420   4.443
 1364TIP3   OH2 4032   7.207   6.479   4.386
 1364TIP3    H1 4033   7.173   6.546   4.327
 1364TIP3    H2 4034   7.195   6.516   4.474
 1365TIP3   OH2 4035   3.763   4.515   5.360
 1365TIP3    H1 4036   3.803   4.445   5.309
 1365TIP3    H2 4037   3.810   4.594   5.334
 1366TIP3   OH2 4038   2.480   5.935   4.145
 1366TIP3    H1 4039   2.393   5.966   4.168
 1366TIP3    H2 4040   2.533   5.949   4.224
 1367TIP3   OH2 4041   3.941   1.713   5.360
 1367TIP3    H1 4042   3.981   1.666   5.434
 1367TIP3    H2 4043   3.913   1.796   5.398
 1368TIP3   OH2 4044   8.090   0.632   4.063
 1368TIP3    H1 4045   8.109   0.724   4.048
 1368TIP3    H2 4046   8.166   0.599   4.110
 1369TIP3   OH2 4047   8.135   0.543   0.850
 1369TIP3    H1 4048   8.103   0.506   0.932
 1369TIP3    H2 4049   8.216   0.495   0.832
 1370TIP3   OH2 4050   4.133   4.083   2.495
 1370TIP3    H1 4051   4.040   4.082   2.476
 1370TIP3    H2 4052   4.139   4.092   2.590
 1371TIP3   OH2 4053   8.214   7.593   0.951
 1371TIP3    H1 4054   8.308   7.577   0.953
 1371TIP3    H2 4055   8.186   7.566   0.864
 1372TIP3   OH2 4056   3.944   0.326   2.605
 1372TIP3    H1 4057   4.029   0.346   2.567
 1372TIP3    H2 4058   3.962   0.312   2.698
 1373TIP3   OH2 4059   4.511   6.857   1.990
 1373TIP3    H1 4060   4.452   6.920   2.030
 1373TIP3    H2 4061   4.519   6.788   2.056
 1374TIP3   OH2 4062   5.162   2.140   4.380
 1374TIP3    H1 4063   5.257   2.128   4.373
 1374TIP3    H2 4064   5.136   2.081   4.451
 1375TIP3   OH2 4065   6.029   2.498   4.724
 1375TIP3    H1 4066   5.962   2.552   4.682
 1375TIP3    H2 4067   5.994   2.409   4.722
 1376TIP3   OH2 4068   3.678   6.536   2.841
 1376TIP3    H1 4069   3.614   6.607   2.831
 1376TIP3    H2 4070   3.637   6.460   2.799
 1377TIP3   OH2 4071   8.065   6.720   4.927
 1377TIP3    H1 4072   7.972   6.700   4.927
 1377TIP3    H2 4073   8.072   6.801   4.877
 1378TIP3   OH2 4074   0.049   3.782   2.522
 1378TIP3    H1 4075   0.137   3.766   2.557
 1378TIP3    H2 4076   0.062   3.793   2.428
 1379TIP3   OH2 4077   0.401   5.501   6.120
 1379TIP3    H1 4078   0.408   5.595   6.109
 1379TIP3    H2 4079   0.478   5.477   6.171
 1380TIP3   OH2 4080   2.823   4.681   2.635
 1380TIP3    H1 4081   2.799   4.638   2.717
 1380TIP3    H2 4082   2.887   4.748   2.662
 1381TIP3   OH2 4083   1.185   6.294   3.060
 1381TIP3    H1 4084   1.213   6.263   3.147
 1381TIP3    H2 4085   1.145   6.217   3.019
 1382TIP3   OH2 4086   1.075   3.158   4.119
 1382TIP3    H1 4087   1.073   3.149   4.024
 1382TIP3    H2 4088   1.154   3.209   4.137
 1383TIP3   OH2 4089   6.396   6.940   1.231
 1383TIP3    H1 4090   6.385   6.890   1.150
 1383TIP3    H2 4091   6.324   6.909   1.287
 1384TIP3   OH2 4092   6.836   4.454   3.643
 1384TIP3    H1 4093   6.857   4.432   3.733
 1384TIP3    H2 4094   6.885   4.391   3.590
 1385TIP3   OH2 4095   3.413   2.724   6.577
 1385TIP3    H1 4096   3.353   2.762   6.513
 1385TIP3    H2 4097   3.396   2.629   6.573
 1386TIP3   OH2 4098   7.425   0.659   4.047
 1386TIP3    H1 4099   7.359   0.601   4.009
 1386TIP3    H2 4100   7.389   0.747   4.035
 1387TIP3   OH2 4101   2.728   5.084   0.957
 1387TIP3    H1 4102   2.739   4.989   0.945
 1387TIP3    H2 4103   2.817   5.119   0.948
 1388TIP3   OH2 4104   2.829   7.609   0.198
 1388TIP3    H1 4105   2.836   7.566   0.113
 1388TIP3    H2 4106   2.892   7.681   0.194
 1389TIP3   OH2 4107   5.827   7.447   4.345
 1389TIP3    H1 4108   5.921   7.448   4.328
 1389TIP3    H2 4109   5.787   7.456   4.258
 1390TIP3   OH2 4110   2.524   5.992   2.172
 1390TIP3    H1 4111   2.597   5.937   2.144
 1390TIP3    H2 4112   2.523   5.984   2.267
 1391TIP3   OH2 4113   6.963   2.891   6.736
 1391TIP3    H1 4114   7.019   2.816   6.718
 1391TIP3    H2 4115   7.008   2.938   6.807
 1392TIP3   OH2 4116   1.839   7.841   0.047
 1392TIP3    H1 4117   1.811   7.870  -0.039
 1392TIP3    H2 4118   1.759   7.840   0.099
 1393TIP3   OH2 4119   6.486   4.913   3.098
 1393TIP3    H1 4120   6.562   4.897   3.153
 1393TIP3    H2 4121   6.487   5.008   3.083
 1394TIP3   OH2 4122   3.649   3.902   6.514
 1394TIP3    H1 4123   3.583   3.958   6.555
 1394TIP3    H2 4124   3.612   3.814   6.519
 1395TIP3   OH2 4125   3.189   0.892   3.838
 1395TIP3    H1 4126   3.209   0.853   3.753
 1395TIP3    H2 4127   3.263   0.949   3.856
 1396TIP3   OH2 4128   7.327   1.820   1.589
 1396TIP3    H1 4129   7.337   1.813   1.494
 1396TIP3    H2 4130   7.249   1.874   1.601
 1397TIP3   OH2 4131   4.714   0.394   5.267
 1397TIP3    H1 4132   4.674   0.396   5.180
 1397TIP3    H2 4133   4.642   0.409   5.328
 1398TIP3   OH2 4134   2.787   7.220   6.067
 1398TIP3    H1 4135   2.879   7.227   6.041
 1398TIP3    H2 4136   2.783   7.263   6.152
 1399TIP3   OH2 4137   7.082   1.626   2.883
 1399TIP3    H1 4138   7.111   1.562   2.949
 1399TIP3    H2 4139   7.154   1.629   2.820
 1400TIP3   OH2 4140   1.954   4.275   0.681
 1400TIP3    H1 4141   1.947   4.299   0.773
 1400TIP3    H2 4142   1.913   4.189   0.675
 1401TIP3   OH2 4143   3.921   1.920   1.592
 1401TIP3    H1 4144   3.879   1.901   1.508
 1401TIP3    H2 4145   3.858   1.890   1.658
 1402TIP3   OH2 4146   6.787   7.497   3.064
 1402TIP3    H1 4147   6.840   7.546   3.001
 1402TIP3    H2 4148   6.753   7.563   3.124
 1403TIP3   OH2 4149   7.538   2.996   0.814
 1403TIP3    H1 4150   7.498   2.943   0.744
 1403TIP3    H2 4151   7.591   2.934   0.863
 1404TIP3   OH2 4152   5.011   7.456   2.625
 1404TIP3    H1 4153   4.955   7.410   2.563
 1404TIP3    H2 4154   5.065   7.514   2.571
 1405TIP3   OH2 4155   4.217   0.362   5.620
 1405TIP3    H1 4156   4.198   0.418   5.695
 1405TIP3    H2 4157   4.282   0.412   5.569
 1406TIP3   OH2 4158   2.111   7.058   5.658
 1406TIP3    H1 4159   2.065   7.033   5.578
 1406TIP3    H2 4160   2.193   7.097   5.627
 1407TIP3   OH2 4161   1.257   3.988   0.496
 1407TIP3    H1 4162   1.281   3.965   0.585
 1407TIP3    H2 4163   1.212   4.072   0.504
 1408TIP3   OH2 4164   7.364   2.193   1.460
 1408TIP3    H1 4165   7.418   2.126   1.500
 1408TIP3    H2 4166   7.422   2.234   1.395
 1409TIP3   OH2 4167   0.593   4.949   4.782
 1409TIP3    H1 4168   0.512   4.968   4.829
 1409TIP3    H2 4169   0.575   4.869   4.733
 1410TIP3   OH2 4170   3.295   2.655   5.849
 1410TIP3    H1 4171   3.385   2.674   5.819
 1410TIP3    H2 4172   3.250   2.626   5.770
 1411TIP3   OH2 4173   2.167   3.653   1.614
 1411TIP3    H1 4174   2.252   3.695   1.620
 1411TIP3    H2 4175   2.130   3.684   1.531
 1412TIP3   OH2 4176   3.606   6.827   5.198
 1412TIP3    H1 4177   3.521   6.867   5.216
 1412TIP3    H2 4178   3.663   6.856   5.269
 1413TIP3   OH2 4179   3.513   1.620   0.579
 1413TIP3    H1 4180   3.505   1.661   0.665
 1413TIP3    H2 4181   3.447   1.550   0.580
 1414TIP3   OH2 4182   6.918   6.177   2.455
 1414TIP3    H1 4183   6.874   6.214   2.532
 1414TIP3    H2 4184   6.880   6.090   2.444
 1415TIP3   OH2 4185   4.579   1.586   6.039
 1415TIP3    H1 4186   4.577   1.507   6.092
 1415TIP3    H2 4187   4.587   1.657   6.102
 1416TIP3   OH2 4188   4.713   1.805   5.566
 1416TIP3    H1 4189   4.782   1.787   5.629
 1416TIP3    H2 4190   4.635   1.821   5.619
 1417TIP3   OH2 4191   2.533   6.581   1.011
 1417TIP3    H1 4192   2.452   6.624   0.981
 1417TIP3    H2 4193   2.542   6.609   1.102
 1418TIP3   OH2 4194   7.354   5.250   0.812
 1418TIP3    H1 4195   7.386   5.173   0.765
 1418TIP3    H2 4196   7.433   5.291   0.847
 1419TIP3   OH2 4197   5.254   2.749   0.926
 1419TIP3    H1 4198   5.166   2.712   0.923
 1419TIP3    H2 4199   5.298   2.712   0.850
 1420TIP3   OH2 4200   2.421   7.495   6.198
 1420TIP3    H1 4201   2.378   7.555   6.137
 1420TIP3    H2 4202   2.514   7.501   6.175
 1421TIP3   OH2 4203   8.388   0.179   1.887
 1421TIP3    H1 4204   8.375   0.115   1.958
 1421TIP3    H2 4205   8.478   0.210   1.900
 1422TIP3   OH2 4206   2.219   2.120   6.626
 1422TIP3    H1 4207   2.204   2.207   6.588
 1422TIP3    H2 4208   2.282   2.079   6.567
 1423TIP3   OH2 4209   4.932   5.951   4.513
 1423TIP3    H1 4210   5.025   5.942   4.532
 1423TIP3    H2 4211   4.889   5.885   4.566
 1424TIP3   OH2 4212   5.132   7.749   1.302
 1424TIP3    H1 4213   5.197   7.734   1.370
 1424TIP3    H2 4214   5.182   7.773   1.224
 1425TIP3   OH2 4215   1.113   6.337   3.871
 1425TIP3    H1 4216   1.094   6.402   3.804
 1425TIP3    H2 4217   1.154   6.264   3.824
 1426TIP3   OH2 4218   5.672   1.439   1.032
 1426TIP3    H1 4219   5.655   1.378   0.960
 1426TIP3    H2 4220   5.681   1.524   0.989
 1427TIP3   OH2 4221   5.218   2.014   1.696
 1427TIP3    H1 4222   5.139   2.068   1.692
 1427TIP3    H2 4223   5.290   2.077   1.689
 1428TIP3   OH2 4224   3.560   1.342   5.135
 1428TIP3    H1 4225   3.592   1.279   5.071
 1428TIP3    H2 4226   3.567   1.427   5.091
 1429TIP3   OH2 4227   3.860   1.713   0.149
 1429TIP3    H1 4228   3.834   1.688   0.060
 1429TIP3    H2 4229   3.955   1.717   0.146
 1430TIP3   OH2 4230   2.692   6.259   5.583
 1430TIP3    H1 4231   2.707   6.165   5.584
 1430TIP3    H2 4232   2.601   6.270   5.611
 1431TIP3   OH2 4233   4.993   7.005  -0.028
 1431TIP3    H1 4234   4.957   7.083   0.013
 1431TIP3    H2 4235   5.080   7.033  -0.058
 1432TIP3   OH2 4236   7.934   1.806   2.625
 1432TIP3    H1 4237   7.922   1.714   2.649
 1432TIP3    H2 4238   8.014   1.832   2.672
 1433TIP3   OH2 4239   5.981   6.364   0.015
 1433TIP3    H1 4240   5.975   6.448   0.059
 1433TIP3    H2 4241   5.994   6.385  -0.077
 1434TIP3   OH2 4242   2.802   2.419   2.901
 1434TIP3    H1 4243   2.795   2.443   2.809
 1434TIP3    H2 4244   2.884   2.370   2.906
 1435TIP3   OH2 4245   0.105   5.646   4.471
 1435TIP3    H1 4246   0.138   5.686   4.551
 1435TIP3    H2 4247   0.031   5.592   4.500
 1436TIP3   OH2 4248   4.002   7.634   3.060
 1436TIP3    H1 4249   3.984   7.546   3.026
 1436TIP3    H2 4250   3.921   7.660   3.104
 1437TIP3   OH2 4251   7.457   3.305   3.598
 1437TIP3    H1 4252   7.524   3.336   3.658
 1437TIP3    H2 4253   7.491   3.221   3.565
 1438TIP3   OH2 4254   8.231   5.855   4.632
 1438TIP3    H1 4255   8.296   5.925   4.623
 1438TIP3    H2 4256   8.208   5.855   4.725
 1439TIP3   OH2 4257   0.200   3.251   3.065
 1439TIP3    H1 4258   0.252   3.173   3.082
 1439TIP3    H2 4259   0.264   3.318   3.040
 1440TIP3   OH2 4260   7.442   0.961   0.966
 1440TIP3    H1 4261   7.402   1.009   1.040
 1440TIP3    H2 4262   7.408   1.005   0.888
 1441TIP3   OH2 4263   7.030   2.587   5.126
 1441TIP3    H1 4264   7.008   2.623   5.040
 1441TIP3    H2 4265   7.106   2.637   5.154
 1442TIP3   OH2 4266   2.651   7.659   1.327
 1442TIP3    H1 4267   2.582   7.715   1.361
 1442TIP3    H2 4268   2.723   7.670   1.389
 1443TIP3   OH2 4269   6.806   1.041   5.759
 1443TIP3    H1 4270   6.850   1.109   5.809
 1443TIP3    H2 4271   6.713   1.059   5.768
 1444TIP3   OH2 4272   3.202   0.656   1.130
 1444TIP3    H1 4273   3.183   0.601   1.054
 1444TIP3    H2 4274   3.290   0.632   1.157
 1445TIP3   OH2 4275   2.976   3.973   0.475
 1445TIP3    H1 4276   2.948   3.992   0.565
 1445TIP3    H2 4277   2.899   3.936   0.433
 1446TIP3   OH2 4278   3.262   7.086   1.663
 1446TIP3    H1 4279   3.259   7.051   1.752
 1446TIP3    H2 4280   3.170   7.100   1.640
 1447TIP3   OH2 4281   0.555   6.715   2.629
 1447TIP3    H1 4282   0.649   6.729   2.644
 1447TIP3    H2 4283   0.546   6.621   2.618
 1448TIP3   OH2 4284   4.258   6.914   2.804
 1448TIP3    H1 4285   4.291   6.860   2.875
 1448TIP3    H2 4286   4.168   6.936   2.829
 1449TIP3   OH2 4287   5.076   7.800   5.395
 1449TIP3    H1 4288   4.999   7.856   5.406
 1449TIP3    H2 4289   5.094   7.802   5.301
 1450TIP3   OH2 4290   0.774   1.199   4.922
 1450TIP3    H1 4291   0.852   1.245   4.954
 1450TIP3    H2 4292   0.707   1.217   4.988
 1451TIP3   OH2 4293   5.293   2.275   3.161
 1451TIP3    H1 4294   5.322   2.366   3.149
 1451TIP3    H2 4295   5.202   2.275   3.130
 1452TIP3   OH2 4296   8.095   7.345   6.244
 1452TIP3    H1 4297   8.168   7.384   6.196
 1452TIP3    H2 4298   8.017   7.386   6.206
 1453TIP3   OH2 4299   7.090   2.390   4.909
 1453TIP3    H1 4300   7.174   2.409   4.868
 1453TIP3    H2 4301   7.087   2.448   4.985
 1454TIP3   OH2 4302   2.807   3.646   0.464
 1454TIP3    H1 4303   2.838   3.643   0.374
 1454TIP3    H2 4304   2.790   3.739   0.480
 1455TIP3   OH2 4305   1.917   3.950   5.203
 1455TIP3    H1 4306   1.844   3.888   5.210
 1455TIP3    H2 4307   1.891   4.023   5.259
 1456TIP3   OH2 4308   3.905   2.007   1.019
 1456TIP3    H1 4309   3.955   2.012   0.938
 1456TIP3    H2 4310   3.877   2.097   1.037
 1457TIP3   OH2 4311   7.330   6.161   4.600
 1457TIP3    H1 4312   7.325   6.229   4.533
 1457TIP3    H2 4313   7.423   6.141   4.607
 1458TIP3   OH2 4314   1.430   0.604   4.660
 1458TIP3    H1 4315   1.365   0.674   4.661
 1458TIP3    H2 4316   1.441   0.579   4.751
 1459TIP3   OH2 4317   7.185   6.189   2.539
 1459TIP3    H1 4318   7.091   6.200   2.526
 1459TIP3    H2 4319   7.199   6.211   2.631
 1460TIP3   OH2 4320   1.649   7.800   0.249
 1460TIP3    H1 4321   1.714   7.807   0.319
 1460TIP3    H2 4322   1.574   7.850   0.280
 1461TIP3   OH2 4323   5.745   4.540   2.293
 1461TIP3    H1 4324   5.679   4.609   2.290
 1461TIP3    H2 4325   5.743   4.508   2.383
 1462TIP3   OH2 4326   7.867   2.781   2.007
 1462TIP3    H1 4327   7.876   2.865   1.962
 1462TIP3    H2 4328   7.797   2.735   1.960
 1463TIP3   OH2 4329   2.545   5.385   6.345
 1463TIP3    H1 4330   2.504   5.394   6.431
 1463TIP3    H2 4331   2.476   5.349   6.289
 1464TIP3   OH2 4332   2.094   7.454   2.437
 1464TIP3    H1 4333   2.039   7.532   2.428
 1464TIP3    H2 4334   2.174   7.476   2.388
 1465TIP3   OH2 4335   8.406   5.486   5.551
 1465TIP3    H1 4336   8.477   5.501   5.488
 1465TIP3    H2 4337   8.327   5.514   5.505
 1466TIP3   OH2 4338   6.484   2.122   5.222
 1466TIP3    H1 4339   6.543   2.162   5.159
 1466TIP3    H2 4340   6.455   2.041   5.180
 1467TIP3   OH2 4341   2.395   5.529   1.100
 1467TIP3    H1 4342   2.326   5.473   1.136
 1467TIP3    H2 4343   2.408   5.497   1.011
 1468TIP3   OH2 4344   7.398   1.183   2.121
 1468TIP3    H1 4345   7.369   1.151   2.035
 1468TIP3    H2 4346   7.379   1.110   2.181
 1469TIP3   OH2 4347   5.011   1.846   5.685
 1469TIP3    H1 4348   5.034   1.778   5.621
 1469TIP3    H2 4349   5.087   1.850   5.742
 1470TIP3   OH2 4350   7.316   3.975   0.423
 1470TIP3    H1 4351   7.229   3.938   0.432
 1470TIP3    H2 4352   7.358   3.959   0.508
 1471TIP3   OH2 4353   4.098   3.134   4.922
 1471TIP3    H1 4354   4.157   3.207   4.937
 1471TIP3    H2 4355   4.154   3.056   4.922
 1472TIP3   OH2 4356   8.152   6.511   2.279
 1472TIP3    H1 4357   8.205   6.539   2.205
 1472TIP3    H2 4358   8.079   6.463   2.240
 1473TIP3   OH2 4359   6.523   1.433   0.070
 1473TIP3    H1 4360   6.446   1.456   0.122
 1473TIP3    H2 4361   6.545   1.345   0.099
 1474TIP3   OH2 4362   4.869   7.681   1.353
 1474TIP3    H1 4363   4.827   7.748   1.407
 1474TIP3    H2 4364   4.960   7.708   1.348
 1475TIP3   OH2 4365   6.235  -0.008   1.240
 1475TIP3    H1 4366   6.279   0.070   1.274
 1475TIP3    H2 4367   6.171   0.026   1.177
 1476TIP3   OH2 4368   3.383   0.770   4.843
 1476TIP3    H1 4369   3.447   0.832   4.810
 1476TIP3    H2 4370   3.371   0.708   4.771
 1477TIP3   OH2 4371   7.208   5.344   4.343
 1477TIP3    H1 4372   7.120   5.341   4.380
 1477TIP3    H2 4373   7.242   5.429   4.370
 1478TIP3   OH2 4374   1.519   0.931   1.781
 1478TIP3    H1 4375   1.474   0.849   1.761
 1478TIP3    H2 4376   1.575   0.947   1.705
 1479TIP3   OH2 4377   4.342   2.636   3.049
 1479TIP3    H1 4378   4.404   2.614   2.979
 1479TIP3    H2 4379   4.390   2.696   3.106
 1480TIP3   OH2 4380   5.362   7.714   1.805
 1480TIP3    H1 4381   5.289   7.655   1.785
 1480TIP3    H2 4382   5.320   7.790   1.845
 1481TIP3   OH2 4383   2.118   2.269   5.202
 1481TIP3    H1 4384   2.115   2.360   5.171
 1481TIP3    H2 4385   2.038   2.229   5.168
 1482TIP3   OH2 4386   1.363   7.552   1.628
 1482TIP3    H1 4387   1.340   7.516   1.714
 1482TIP3    H2 4388   1.316   7.635   1.623
 1483TIP3   OH2 4389   5.943   3.393   3.996
 1483TIP3    H1 4390   5.926   3.312   3.947
 1483TIP3    H2 4391   5.861   3.442   3.990
 1484TIP3   OH2 4392   1.125   6.422   2.453
 1484TIP3    H1 4393   1.147   6.335   2.420
 1484TIP3    H2 4394   1.131   6.479   2.377
 1485TIP3   OH2 4395   2.043   6.543   0.294
 1485TIP3    H1 4396   2.108   6.499   0.240
 1485TIP3    H2 4397   2.015   6.619   0.243
 1486TIP3   OH2 4398   5.143   6.315   1.012
 1486TIP3    H1 4399   5.156   6.399   1.054
 1486TIP3    H2 4400   5.105   6.335   0.926
 1487TIP3   OH2 4401   2.755   4.692   0.377
 1487TIP3    H1 4402   2.816   4.636   0.425
 1487TIP3    H2 4403   2.810   4.763   0.342
 1488TIP3   OH2 4404   3.370   7.346   0.529
 1488TIP3    H1 4405   3.420   7.358   0.609
 1488TIP3    H2 4406   3.280   7.336   0.558
 1489TIP3   OH2 4407   7.136   1.610   6.549
 1489TIP3    H1 4408   7.041   1.594   6.547
 1489TIP3    H2 4409   7.154   1.640   6.638
 1490TIP3   OH2 4410   1.529   5.478   2.579
 1490TIP3    H1 4411   1.530   5.382   2.574
 1490TIP3    H2 4412   1.452   5.503   2.528
 1491TIP3   OH2 4413   6.861   1.414   6.511
 1491TIP3    H1 4414   6.932   1.364   6.552
 1491TIP3    H2 4415   6.786   1.356   6.514
 1492TIP3   OH2 4416   2.024   6.696   6.416
 1492TIP3    H1 4417   2.086   6.624   6.424
 1492TIP3    H2 4418   2.076   6.770   6.385
 1493TIP3   OH2 4419   2.496   3.860   1.147
 1493TIP3    H1 4420   2.451   3.789   1.102
 1493TIP3    H2 4421   2.545   3.906   1.078
 1494TIP3   OH2 4422   5.435   2.050   6.300
 1494TIP3    H1 4423   5.520   2.086   6.275
 1494TIP3    H2 4424   5.426   1.970   6.248
 1495TIP3   OH2 4425   3.372   2.974   5.721
 1495TIP3    H1 4426   3.430   2.931   5.660
 1495TIP3    H2 4427   3.306   2.908   5.743
 1496TIP3   OH2 4428   6.147   3.255   6.640
 1496TIP3    H1 4429   6.188   3.193   6.579
 1496TIP3    H2 4430   6.129   3.203   6.718
 1497TIP3   OH2 4431   1.271   2.484   2.122
 1497TIP3    H1 4432   1.275   2.444   2.035
 1497TIP3    H2 4433   1.360   2.478   2.156
 1498TIP3   OH2 4434   0.093   4.571   4.167
 1498TIP3    H1 4435  -0.002   4.557   4.176
 1498TIP3    H2 4436   0.131   4.524   4.241
 1499TIP3   OH2 4437   4.827   0.219   2.967
 1499TIP3    H1 4438   4.827   0.129   2.999
 1499TIP3    H2 4439   4.740   0.253   2.988
 1500TIP3   OH2 4440   4.686   7.578   4.724
 1500TIP3    H1 4441   4.775   7.615   4.725
 1500TIP3    H2 4442   4.629   7.653   4.741
 1501TIP3   OH2 4443   7.798   2.974   4.787
 1501TIP3    H1 4444   7.831   3.062   4.770
 1501TIP3    H2 4445   7.824   2.923   4.711
 1502TIP3   OH2 4446   7.896   5.902   6.353
 1502TIP3    H1 4447   7.822   5.885   6.412
 1502TIP3    H2 4448   7.912   5.996   6.360
 1503TIP3   OH2 4449   5.850   1.778   5.223
 1503TIP3    H1 4450   5.849   1.806   5.315
 1503TIP3    H2 4451   5.810   1.851   5.176
 1504TIP3   OH2 4452   3.723   0.211   0.669
 1504TIP3    H1 4453   3.808   0.249   0.691
 1504TIP3    H2 4454   3.661   0.284   0.676
 1505TIP3   OH2 4455   1.995   4.950   3.518
 1505TIP3    H1 4456   1.918   4.896   3.534
 1505TIP3    H2 4457   1.991   4.972   3.425
 1506TIP3   OH2 4458   5.044   6.107   6.732
 1506TIP3    H1 4459   5.058   6.193   6.692
 1506TIP3    H2 4460   5.083   6.115   6.820
 1507TIP3   OH2 4461   6.489   3.785   4.436
 1507TIP3    H1 4462   6.564   3.798   4.377
 1507TIP3    H2 4463   6.438   3.865   4.427
 1508TIP3   OH2 4464   0.638   7.576   4.995
 1508TIP3    H1 4465   0.615   7.502   4.939
 1508TIP3    H2 4466   0.713   7.616   4.952
 1509TIP3   OH2 4467   5.348   0.409   3.906
 1509TIP3    H1 4468   5.370   0.473   3.839
 1509TIP3    H2 4469   5.298   0.342   3.860
 1510TIP3   OH2 4470   5.451   1.580   0.521
 1510TIP3    H1 4471   5.477   1.626   0.601
 1510TIP3    H2 4472   5.372   1.531   0.547
 1511TIP3   OH2 4473   5.604   2.403   4.358
 1511TIP3    H1 4474   5.585   2.352   4.436
 1511TIP3    H2 4475   5.699   2.396   4.347
 1512TIP3   OH2 4476   7.128   2.403   2.371
 1512TIP3    H1 4477   7.202   2.364   2.417
 1512TIP3    H2 4478   7.052   2.379   2.425
 1513TIP3   OH2 4479   4.756   4.092   2.540
 1513TIP3    H1 4480   4.752   4.187   2.529
 1513TIP3    H2 4481   4.666   4.063   2.528
 1514TIP3   OH2 4482   5.260   0.959   5.918
 1514TIP3    H1 4483   5.291   1.049   5.923
 1514TIP3    H2 4484   5.320   0.910   5.974
 1515TIP3   OH2 4485   4.724   3.661   1.506
 1515TIP3    H1 4486   4.660   3.658   1.436
 1515TIP3    H2 4487   4.760   3.572   1.509
 1516TIP3   OH2 4488   2.374   1.949   1.547
 1516TIP3    H1 4489   2.381   1.900   1.465
 1516TIP3    H2 4490   2.354   2.039   1.520
 1517TIP3   OH2 4491   7.840   6.277   3.145
 1517TIP3    H1 4492   7.797   6.337   3.207
 1517TIP3    H2 4493   7.922   6.319   3.123
 1518TIP3   OH2 4494   3.286   4.200   4.316
 1518TIP3    H1 4495   3.234   4.246   4.250
 1518TIP3    H2 4496   3.342   4.268   4.354
 1519TIP3   OH2 4497   0.139   5.313   3.995
 1519TIP3    H1 4498   0.199   5.361   3.938
 1519TIP3    H2 4499   0.159   5.345   4.083
 1520TIP3   OH2 4500   6.355   4.219   6.524
 1520TIP3    H1 4501   6.268   4.259   6.514
 1520TIP3    H2 4502   6.391   4.217   6.436
 1521TIP3   OH2 4503   5.315   1.717   5.443
 1521TIP3    H1 4504   5.270   1.635   5.462
 1521TIP3    H2 4505   5.272   1.782   5.498
 1522TIP3   OH2 4506   5.920   1.126   3.832
 1522TIP3    H1 4507   5.867   1.177   3.894
 1522TIP3    H2 4508   6.010   1.155   3.849
 1523TIP3   OH2 4509   7.136   0.582   6.619
 1523TIP3    H1 4510   7.177   0.550   6.700
 1523TIP3    H2 4511   7.129   0.676   6.632
 1524TIP3   OH2 4512   2.598   2.790   3.666
 1524TIP3    H1 4513   2.621   2.821   3.754
 1524TIP3    H2 4514   2.660   2.834   3.608
 1525TIP3   OH2 4515   6.363   2.826   0.493
 1525TIP3    H1 4516   6.395   2.851   0.580
 1525TIP3    H2 4517   6.395   2.737   0.480
 1526TIP3   OH2 4518   4.631   4.879   1.790
 1526TIP3    H1 4519   4.589   4.902   1.873
 1526TIP3    H2 4520   4.566   4.825   1.745
 1527TIP3   OH2 4521   4.457   3.628   0.670
 1527TIP3    H1 4522   4.483   3.710   0.712
 1527TIP3    H2 4523   4.362   3.625   0.680
 1528TIP3   OH2 4524   0.677   5.245   4.255
 1528TIP3    H1 4525   0.583   5.226   4.258
 1528TIP3    H2 4526   0.694   5.293   4.336
 1529TIP3   OH2 4527   3.572   4.394   2.504
 1529TIP3    H1 4528   3.605   4.328   2.443
 1529TIP3    H2 4529   3.649   4.419   2.556
 1530TIP3   OH2 4530   4.237   5.258   6.799
 1530TIP3    H1 4531   4.290   5.180   6.816
 1530TIP3    H2 4532   4.242   5.271   6.705
 1531TIP3   OH2 4533   4.346   1.074   4.553
 1531TIP3    H1 4534   4.296   1.107   4.628
 1531TIP3    H2 4535   4.361   0.982   4.572
 1532TIP3   OH2 4536   2.426   6.787   1.336
 1532TIP3    H1 4537   2.379   6.820   1.259
 1532TIP3    H2 4538   2.508   6.753   1.301
 1533TIP3   OH2 4539   2.552   7.335   1.648
 1533TIP3    H1 4540   2.521   7.420   1.679
 1533TIP3    H2 4541   2.539   7.338   1.554
 1534TIP3   OH2 4542   3.434   1.602   2.303
 1534TIP3    H1 4543   3.471   1.584   2.217
 1534TIP3    H2 4544   3.381   1.525   2.323
 1535TIP3   OH2 4545   2.406   1.465   4.381
 1535TIP3    H1 4546   2.361   1.487   4.463
 1535TIP3    H2 4547   2.499   1.469   4.404
 1536TIP3   OH2 4548   6.470   2.727   2.727
 1536TIP3    H1 4549   6.499   2.675   2.653
 1536TIP3    H2 4550   6.464   2.665   2.800
 1537TIP3   OH2 4551   0.737   7.308   3.616
 1537TIP3    H1 4552   0.701   7.294   3.704
 1537TIP3    H2 4553   0.828   7.279   3.623
 1538TIP3   OH2 4554   7.749   7.112   1.419
 1538TIP3    H1 4555   7.722   7.041   1.477
 1538TIP3    H2 4556   7.744   7.075   1.331
 1539TIP3   OH2 4557   1.229   7.436   5.805
 1539TIP3    H1 4558   1.229   7.466   5.896
 1539TIP3    H2 4559   1.321   7.425   5.783
 1540TIP3   OH2 4560   4.584   4.953   6.692
 1540TIP3    H1 4561   4.661   4.935   6.745
 1540TIP3    H2 4562   4.593   5.045   6.667
 1541TIP3   OH2 4563   6.527   1.516   2.343
 1541TIP3    H1 4564   6.606   1.568   2.327
 1541TIP3    H2 4565   6.471   1.573   2.396
 1542TIP3   OH2 4566   5.725   6.718   0.119
 1542TIP3    H1 4567   5.771   6.801   0.134
 1542TIP3    H2 4568   5.786   6.651   0.150
 1543TIP3   OH2 4569   6.735   1.384   2.731
 1543TIP3    H1 4570   6.667   1.354   2.670
 1543TIP3    H2 4571   6.817   1.367   2.685
 1544TIP3   OH2 4572   3.487   5.127   3.571
 1544TIP3    H1 4573   3.571   5.159   3.605
 1544TIP3    H2 4574   3.490   5.146   3.477
 1545TIP3   OH2 4575   5.297   2.696   4.808
 1545TIP3    H1 4576   5.311   2.640   4.732
 1545TIP3    H2 4577   5.384   2.706   4.847
 1546TIP3   OH2 4578   3.286   2.143   6.607
 1546TIP3    H1 4579   3.261   2.233   6.625
 1546TIP3    H2 4580   3.360   2.150   6.547
 1547TIP3   OH2 4581   5.979   2.048   2.255
 1547TIP3    H1 4582   6.055   2.021   2.306
 1547TIP3    H2 4583   5.980   2.144   2.258
 1548TIP3   OH2 4584   7.852   6.179   6.557
 1548TIP3    H1 4585   7.830   6.272   6.562
 1548TIP3    H2 4586   7.912   6.173   6.483
 1549TIP3   OH2 4587   5.525   4.112   6.795
 1549TIP3    H1 4588   5.578   4.191   6.790
 1549TIP3    H2 4589   5.578   4.043   6.755
 1550TIP3   OH2 4590   8.339   7.719   4.272
 1550TIP3    H1 4591   8.253   7.685   4.246
 1550TIP3    H2 4592   8.351   7.797   4.216
 1551TIP3   OH2 4593   4.604   1.842   3.114
 1551TIP3    H1 4594   4.523   1.887   3.092
 1551TIP3    H2 4595   4.673   1.904   3.089
 1552TIP3   OH2 4596   2.008   1.841   4.560
 1552TIP3    H1 4597   2.056   1.899   4.619
 1552TIP3    H2 4598   1.963   1.779   4.617
 1553TIP3   OH2 4599   4.623   4.491   4.148
 1553TIP3    H1 4600   4.558   4.425   4.125
 1553TIP3    H2 4601   4.668   4.455   4.225
 1554TIP3   OH2 4602   5.225   1.928   5.027
 1554TIP3    H1 4603   5.281   1.863   5.069
 1554TIP3    H2 4604   5.238   1.914   4.933
 1555TIP3   OH2 4605   0.465   7.884   6.802
 1555TIP3    H1 4606   0.524   7.959   6.801
 1555TIP3    H2 4607   0.522   7.809   6.783
 1556TIP3   OH2 4608   4.780   6.170   1.865
 1556TIP3    H1 4609   4.783   6.075   1.873
 1556TIP3    H2 4610   4.794   6.202   1.953
 1557TIP3   OH2 4611   3.730   7.046   3.837
 1557TIP3    H1 4612   3.692   7.134   3.840
 1557TIP3    H2 4613   3.668   6.995   3.784
 1558TIP3   OH2 4614   3.835   0.863   4.010
 1558TIP3    H1 4615   3.805   0.952   4.025
 1558TIP3    H2 4616   3.927   0.872   3.986
 1559TIP3   OH2 4617   1.403   1.638   4.146
 1559TIP3    H1 4618   1.310   1.638   4.170
 1559TIP3    H2 4619   1.449   1.613   4.226
 1560TIP3   OH2 4620   0.351   6.044   0.663
 1560TIP3    H1 4621   0.354   6.007   0.575
 1560TIP3    H2 4622   0.439   6.078   0.678
 1561TIP3   OH2 4623   2.333   4.354   5.081
 1561TIP3    H1 4624   2.243   4.340   5.111
 1561TIP3    H2 4625   2.334   4.323   4.991
 1562TIP3   OH2 4626   2.938   4.232   2.260
 1562TIP3    H1 4627   2.958   4.279   2.179
 1562TIP3    H2 4628   2.931   4.301   2.326
 1563TIP3   OH2 4629   2.195   6.432   5.682
 1563TIP3    H1 4630   2.166   6.520   5.660
 1563TIP3    H2 4631   2.132   6.402   5.747
 1564TIP3   OH2 4632   7.844   2.967   2.448
 1564TIP3    H1 4633   7.754   2.944   2.471
 1564TIP3    H2 4634   7.840   3.060   2.427
 1565TIP3   OH2 4635   7.020   7.014   2.927
 1565TIP3    H1 4636   7.053   7.010   3.017
 1565TIP3    H2 4637   7.054   6.935   2.885
 1566TIP3   OH2 4638   5.660   3.529   0.372
 1566TIP3    H1 4639   5.743   3.483   0.365
 1566TIP3    H2 4640   5.671   3.609   0.321
 1567TIP3   OH2 4641   4.816   4.835   1.280
 1567TIP3    H1 4642   4.729   4.860   1.250
 1567TIP3    H2 4643   4.861   4.804   1.201
 1568TIP3   OH2 4644   5.806   6.587   4.719
 1568TIP3    H1 4645   5.801   6.514   4.657
 1568TIP3    H2 4646   5.745   6.563   4.789
 1569TIP3   OH2 4647   6.293   0.950   4.089
 1569TIP3    H1 4648   6.305   0.909   4.003
 1569TIP3    H2 4649   6.238   0.889   4.137
 1570TIP3   OH2 4650   2.676   0.398   3.494
 1570TIP3    H1 4651   2.584   0.374   3.485
 1570TIP3    H2 4652   2.724   0.317   3.473
 1571TIP3   OH2 4653   1.545   0.490   6.651
 1571TIP3    H1 4654   1.547   0.570   6.704
 1571TIP3    H2 4655   1.454   0.460   6.656
 1572TIP3   OH2 4656   6.022   2.033   1.830
 1572TIP3    H1 4657   5.990   1.972   1.897
 1572TIP3    H2 4658   5.946   2.052   1.776
 1573TIP3   OH2 4659   2.501   7.494   1.877
 1573TIP3    H1 4660   2.560   7.569   1.873
 1573TIP3    H2 4661   2.556   7.423   1.911
 1574TIP3   OH2 4662   3.997   7.683   1.036
 1574TIP3    H1 4663   4.073   7.641   0.995
 1574TIP3    H2 4664   3.959   7.614   1.091
 1575TIP3   OH2 4665   3.755   5.701   4.435
 1575TIP3    H1 4666   3.794   5.773   4.484
 1575TIP3    H2 4667   3.830   5.647   4.407
 1576TIP3   OH2 4668   1.024   2.244   1.334
 1576TIP3    H1 4669   1.043   2.222   1.243
 1576TIP3    H2 4670   1.085   2.315   1.355
 1577TIP3   OH2 4671   7.075   1.071   0.806
 1577TIP3    H1 4672   7.063   1.112   0.892
 1577TIP3    H2 4673   7.083   0.978   0.824
 1578TIP3   OH2 4674   1.604   6.470   0.331
 1578TIP3    H1 4675   1.595   6.416   0.253
 1578TIP3    H2 4676   1.679   6.433   0.377
 1579TIP3   OH2 4677   6.643   5.227   5.960
 1579TIP3    H1 4678   6.591   5.194   6.033
 1579TIP3    H2 4679   6.687   5.304   5.996
 1580TIP3   OH2 4680   0.772   1.005   3.271
 1580TIP3    H1 4681   0.711   0.963   3.333
 1580TIP3    H2 4682   0.853   1.016   3.321
 1581TIP3   OH2 4683   0.259   3.884   6.224
 1581TIP3    H1 4684   0.205   3.864   6.147
 1581TIP3    H2 4685   0.314   3.806   6.235
 1582TIP3   OH2 4686   0.363   3.633   0.876
 1582TIP3    H1 4687   0.279   3.655   0.835
 1582TIP3    H2 4688   0.407   3.717   0.887
 1583TIP3   OH2 4689   2.454   4.011   5.498
 1583TIP3    H1 4690   2.534   3.959   5.502
 1583TIP3    H2 4691   2.462   4.073   5.571
 1584TIP3   OH2 4692   3.086   3.615   4.784
 1584TIP3    H1 4693   3.011   3.605   4.725
 1584TIP3    H2 4694   3.128   3.696   4.755
 1585TIP3   OH2 4695   0.646   6.872   1.656
 1585TIP3    H1 4696   0.711   6.832   1.715
 1585TIP3    H2 4697   0.576   6.807   1.650
 1586TIP3   OH2 4698   1.577   0.629   2.346
 1586TIP3    H1 4699   1.652   0.592   2.392
 1586TIP3    H2 4700   1.611   0.655   2.260
 1587TIP3   OH2 4701   1.747   3.426   1.573
 1587TIP3    H1 4702   1.764   3.516   1.544
 1587TIP3    H2 4703   1.654   3.426   1.597
 1588TIP3   OH2 4704   7.891   1.111   5.417
 1588TIP3    H1 4705   7.818   1.067   5.461
 1588TIP3    H2 4706   7.967   1.058   5.438
 1589TIP3   OH2 4707   4.020   6.303   4.876
 1589TIP3    H1 4708   4.018   6.384   4.824
 1589TIP3    H2 4709   3.957   6.319   4.947
 1590TIP3   OH2 4710   7.523   4.666   0.494
 1590TIP3    H1 4711   7.492   4.741   0.442
 1590TIP3    H2 4712   7.445   4.612   0.506
 1591TIP3   OH2 4713   8.186   7.217   2.779
 1591TIP3    H1 4714   8.198   7.145   2.718
 1591TIP3    H2 4715   8.252   7.281   2.754
 1592TIP3   OH2 4716   6.974   5.985   4.255
 1592TIP3    H1 4717   7.065   5.967   4.280
 1592TIP3    H2 4718   6.941   6.039   4.327
 1593TIP3   OH2 4719   3.040   2.870   0.677
 1593TIP3    H1 4720   3.050   2.814   0.754
 1593TIP3    H2 4721   2.963   2.836   0.632
 1594TIP3   OH2 4722   6.587   5.531   5.570
 1594TIP3    H1 4723   6.547   5.446   5.586
 1594TIP3    H2 4724   6.519   5.595   5.591
 1595TIP3   OH2 4725   6.718   1.948   6.615
 1595TIP3    H1 4726   6.639   1.984   6.656
 1595TIP3    H2 4727   6.778   2.023   6.610
 1596TIP3   OH2 4728   3.118   3.905   4.751
 1596TIP3    H1 4729   3.172   3.962   4.806
 1596TIP3    H2 4730   3.099   3.958   4.673
 1597TIP3   OH2 4731   4.619   3.226   0.389
 1597TIP3    H1 4732   4.664   3.309   0.378
 1597TIP3    H2 4733   4.684   3.169   0.430
 1598TIP3   OH2 4734   4.497   7.278   5.543
 1598TIP3    H1 4735   4.537   7.298   5.459
 1598TIP3    H2 4736   4.554   7.211   5.582
 1599TIP3   OH2 4737   3.349   0.094   0.048
 1599TIP3    H1 4738   3.286   0.074   0.118
 1599TIP3    H2 4739   3.316   0.047  -0.028
 1600TIP3   OH2 4740   8.197   4.693   2.547
 1600TIP3    H1 4741   8.166   4.774   2.506
 1600TIP3    H2 4742   8.267   4.721   2.606
 1601TIP3   OH2 4743   5.344   3.729   4.101
 1601TIP3    H1 4744   5.301   3.662   4.048
 1601TIP3    H2 4745   5.330   3.811   4.052
 1602TIP3   OH2 4746   4.761   2.367   4.286
 1602TIP3    H1 4747   4.750   2.352   4.380
 1602TIP3    H2 4748   4.714   2.448   4.269
 1603TIP3   OH2 4749   5.922   0.587   0.587
 1603TIP3    H1 4750   5.867   0.584   0.509
 1603TIP3    H2 4751   5.880   0.527   0.649
 1604TIP3   OH2 4752   6.639   4.159   2.042
 1604TIP3    H1 4753   6.723   4.204   2.032
 1604TIP3    H2 4754   6.596   4.203   2.116
 1605TIP3   OH2 4755   4.880   6.760   5.518
 1605TIP3    H1 4756   4.924   6.843   5.537
 1605TIP3    H2 4757   4.951   6.695   5.518
 1606TIP3   OH2 4758   7.564   5.842   2.127
 1606TIP3    H1 4759   7.486   5.792   2.102
 1606TIP3    H2 4760   7.536   5.892   2.204
 1607TIP3   OH2 4761   4.178   7.059   3.304
 1607TIP3    H1 4762   4.130   7.060   3.386
 1607TIP3    H2 4763   4.156   6.975   3.264
 1608TIP3   OH2 4764   3.676   1.671   3.946
 1608TIP3    H1 4765   3.677   1.590   3.997
 1608TIP3    H2 4766   3.596   1.667   3.895
 1609TIP3   OH2 4767   2.992   3.377   4.503
 1609TIP3    H1 4768   2.924   3.331   4.454
 1609TIP3    H2 4769   2.982   3.345   4.593
 1610TIP3   OH2 4770   3.858   4.250   2.999
 1610TIP3    H1 4771   3.903   4.167   3.015
 1610TIP3    H2 4772   3.883   4.306   3.073
 1611TIP3   OH2 4773   4.157   0.586   5.755
 1611TIP3    H1 4774   4.124   0.654   5.697
 1611TIP3    H2 4775   4.239   0.621   5.789
 1612TIP3   OH2 4776   6.507   7.616   3.467
 1612TIP3    H1 4777   6.415   7.617   3.495
 1612TIP3    H2 4778   6.551   7.677   3.525
 1613TIP3   OH2 4779   6.521   6.539   3.935
 1613TIP3    H1 4780   6.538   6.633   3.940
 1613TIP3    H2 4781   6.606   6.498   3.948
 1614TIP3   OH2 4782   3.513   1.201   6.426
 1614TIP3    H1 4783   3.560   1.118   6.432
 1614TIP3    H2 4784   3.421   1.177   6.432
 1615TIP3   OH2 4785   5.115   6.482   2.057
 1615TIP3    H1 4786   5.113   6.523   1.970
 1615TIP3    H2 4787   5.087   6.552   2.116
 1616TIP3   OH2 4788   2.288   7.268   6.247
 1616TIP3    H1 4789   2.342   7.345   6.228
 1616TIP3    H2 4790   2.199   7.296   6.223
 1617TIP3   OH2 4791   7.846   3.498   3.468
 1617TIP3    H1 4792   7.929   3.481   3.422
 1617TIP3    H2 4793   7.781   3.498   3.398
 1618TIP3   OH2 4794   4.576   2.486   6.130
 1618TIP3    H1 4795   4.516   2.463   6.201
 1618TIP3    H2 4796   4.536   2.562   6.088
 1619TIP3   OH2 4797   6.563   2.347   4.583
 1619TIP3    H1 4798   6.585   2.294   4.506
 1619TIP3    H2 4799   6.597   2.434   4.562
 1620TIP3   OH2 4800   8.237   0.325   1.080
 1620TIP3    H1 4801   8.150   0.355   1.105
 1620TIP3    H2 4802   8.260   0.260   1.146
 1621TIP3   OH2 4803   4.896   3.814   6.730
 1621TIP3    H1 4804   4.936   3.755   6.666
 1621TIP3    H2 4805   4.867   3.890   6.679
 1622TIP3   OH2 4806   5.549   5.433   2.324
 1622TIP3    H1 4807   5.524   5.430   2.416
 1622TIP3    H2 4808   5.620   5.497   2.320
 1623TIP3   OH2 4809   7.174   1.726   0.286
 1623TIP3    H1 4810   7.251   1.670   0.282
 1623TIP3    H2 4811   7.202   1.803   0.334
 1624TIP3   OH2 4812   6.385   7.158   4.814
 1624TIP3    H1 4813   6.435   7.160   4.895
 1624TIP3    H2 4814   6.374   7.250   4.790
 1625TIP3   OH2 4815   5.853   7.219   3.146
 1625TIP3    H1 4816   5.920   7.255   3.089
 1625TIP3    H2 4817   5.900   7.197   3.227
 1626TIP3   OH2 4818   6.281   2.110   6.561
 1626TIP3    H1 4819   6.255   2.191   6.517
 1626TIP3    H2 4820   6.375   2.103   6.547
 1627TIP3   OH2 4821   1.484   1.465   4.762
 1627TIP3    H1 4822   1.569   1.432   4.790
 1627TIP3    H2 4823   1.434   1.474   4.843
 1628TIP3   OH2 4824   0.376   0.198   5.604
 1628TIP3    H1 4825   0.438   0.126   5.617
 1628TIP3    H2 4826   0.313   0.189   5.676
 1629TIP3   OH2 4827   5.717   7.509   5.739
 1629TIP3    H1 4828   5.792   7.485   5.794
 1629TIP3    H2 4829   5.681   7.425   5.710
 1630TIP3   OH2 4830   3.801   4.986   4.052
 1630TIP3    H1 4831   3.788   5.081   4.049
 1630TIP3    H2 4832   3.894   4.975   4.072
 1631TIP3   OH2 4833   2.917   4.255   0.061
 1631TIP3    H1 4834   2.977   4.184   0.084
 1631TIP3    H2 4835   2.853   4.255   0.132
 1632TIP3   OH2 4836   3.238   4.103   1.233
 1632TIP3    H1 4837   3.142   4.108   1.232
 1632TIP3    H2 4838   3.259   4.038   1.166
 1633TIP3   OH2 4839   0.835   2.758   1.126
 1633TIP3    H1 4840   0.921   2.783   1.093
 1633TIP3    H2 4841   0.772   2.796   1.065
 1634TIP3   OH2 4842   6.912   6.625   0.758
 1634TIP3    H1 4843   6.903   6.530   0.766
 1634TIP3    H2 4844   6.914   6.641   0.663
 1635TIP3   OH2 4845   5.620   4.520   3.362
 1635TIP3    H1 4846   5.688   4.453   3.355
 1635TIP3    H2 4847   5.551   4.479   3.414
 1636TIP3   OH2 4848   4.338   1.337   0.351
 1636TIP3    H1 4849   4.407   1.347   0.285
 1636TIP3    H2 4850   4.261   1.375   0.310
 1637TIP3   OH2 4851   5.709   7.566   4.552
 1637TIP3    H1 4852   5.631   7.511   4.547
 1637TIP3    H2 4853   5.767   7.531   4.484
 1638TIP3   OH2 4854   5.594   2.764   2.442
 1638TIP3    H1 4855   5.519   2.823   2.446
 1638TIP3    H2 4856   5.660   2.812   2.392
 1639TIP3   OH2 4857   1.525   6.560   3.275
 1639TIP3    H1 4858   1.514   6.558   3.370
 1639TIP3    H2 4859   1.555   6.472   3.252
 1640TIP3   OH2 4860   4.782   5.094   2.732
 1640TIP3    H1 4861   4.763   5.042   2.810
 1640TIP3    H2 4862   4.830   5.034   2.674
 1641TIP3   OH2 4863   0.523   3.657   0.358
 1641TIP3    H1 4864   0.494   3.644   0.448
 1641TIP3    H2 4865   0.532   3.752   0.349
 1642TIP3   OH2 4866   5.055   5.542   6.797
 1642TIP3    H1 4867   5.012   5.462   6.768
 1642TIP3    H2 4868   4.989   5.586   6.851
 1643TIP3   OH2 4869   1.649   2.450   0.118
 1643TIP3    H1 4870   1.658   2.369   0.170
 1643TIP3    H2 4871   1.736   2.463   0.080
 1644TIP3   OH2 4872   3.754   5.038   5.156
 1644TIP3    H1 4873   3.689   5.083   5.103
 1644TIP3    H2 4874   3.825   5.102   5.166
 1645TIP3   OH2 4875   8.006   3.820   0.447
 1645TIP3    H1 4876   7.987   3.730   0.472
 1645TIP3    H2 4877   7.925   3.868   0.463
 1646TIP3   OH2 4878   2.468   3.973   5.237
 1646TIP3    H1 4879   2.396   3.971   5.174
 1646TIP3    H2 4880   2.426   3.964   5.322
 1647TIP3   OH2 4881   7.008   0.779   0.888
 1647TIP3    H1 4882   6.947   0.705   0.886
 1647TIP3    H2 4883   6.977   0.834   0.960
 1648TIP3   OH2 4884   6.564   2.158   6.423
 1648TIP3    H1 4885   6.620   2.193   6.492
 1648TIP3    H2 4886   6.609   2.080   6.393
 1649TIP3   OH2 4887   1.829   4.009   1.522
 1649TIP3    H1 4888   1.911   3.975   1.558
 1649TIP3    H2 4889   1.833   4.103   1.540
 1650TIP3   OH2 4890   4.544   3.257   6.402
 1650TIP3    H1 4891   4.616   3.272   6.464
 1650TIP3    H2 4892   4.544   3.163   6.388
 1651TIP3   OH2 4893   5.100   0.704   1.694
 1651TIP3    H1 4894   5.193   0.722   1.684
 1651TIP3    H2 4895   5.056   0.782   1.661
 1652TIP3   OH2 4896   7.290   0.426   6.796
 1652TIP3    H1 4897   7.306   0.421   6.890
 1652TIP3    H2 4898   7.361   0.374   6.757
 1653TIP3   OH2 4899   5.940   4.355   5.740
 1653TIP3    H1 4900   5.983   4.323   5.660
 1653TIP3    H2 4901   5.955   4.449   5.739
 1654TIP3   OH2 4902   8.028   4.973   0.255
 1654TIP3    H1 4903   8.004   4.990   0.346
 1654TIP3    H2 4904   7.960   4.913   0.224
 1655TIP3   OH2 4905   1.238   7.894   5.158
 1655TIP3    H1 4906   1.260   7.842   5.081
 1655TIP3    H2 4907   1.296   7.970   5.153
 1656TIP3   OH2 4908   2.732   3.917   3.251
 1656TIP3    H1 4909   2.668   3.946   3.316
 1656TIP3    H2 4910   2.773   3.840   3.290
 1657TIP3   OH2 4911   3.219   7.370   2.742
 1657TIP3    H1 4912   3.170   7.443   2.780
 1657TIP3    H2 4913   3.306   7.376   2.783
 1658TIP3   OH2 4914   6.626   1.863   1.726
 1658TIP3    H1 4915   6.652   1.774   1.703
 1658TIP3    H2 4916   6.693   1.892   1.787
 1659TIP3   OH2 4917   5.366   3.855   6.243
 1659TIP3    H1 4918   5.460   3.855   6.224
 1659TIP3    H2 4919   5.324   3.869   6.158
 1660TIP3   OH2 4920   0.954   3.219   2.875
 1660TIP3    H1 4921   0.925   3.217   2.966
 1660TIP3    H2 4922   0.904   3.149   2.832
 1661TIP3   OH2 4923   2.785   5.377   4.946
 1661TIP3    H1 4924   2.719   5.429   4.991
 1661TIP3    H2 4925   2.868   5.421   4.966
 1662TIP3   OH2 4926   8.002   7.329   2.228
 1662TIP3    H1 4927   8.038   7.262   2.286
 1662TIP3    H2 4928   7.939   7.282   2.173
 1663TIP3   OH2 4929   3.348   7.125   2.228
 1663TIP3    H1 4930   3.383   7.213   2.242
 1663TIP3    H2 4931   3.371   7.078   2.308
 1664TIP3   OH2 4932   5.927   2.044   6.007
 1664TIP3    H1 4933   6.013   2.020   5.970
 1664TIP3    H2 4934   5.924   2.139   6.002
 1665TIP3   OH2 4935   3.712   4.842   5.777
 1665TIP3    H1 4936   3.741   4.786   5.705
 1665TIP3    H2 4937   3.791   4.858   5.829
 1666TIP3   OH2 4938   7.024   1.564   2.531
 1666TIP3    H1 4939   7.082   1.584   2.605
 1666TIP3    H2 4940   7.079   1.576   2.453
 1667TIP3   OH2 4941   2.364   7.068   6.034
 1667TIP3    H1 4942   2.323   7.138   5.983
 1667TIP3    H2 4943   2.382   7.108   6.119
 1668TIP3   OH2 4944   2.758   6.456   6.661
 1668TIP3    H1 4945   2.843   6.413   6.668
 1668TIP3    H2 4946   2.779   6.550   6.662
 1669TIP3   OH2 4947   2.785   2.143   4.871
 1669TIP3    H1 4948   2.782   2.063   4.924
 1669TIP3    H2 4949   2.838   2.203   4.921
 1670TIP3   OH2 4950   6.459   2.559   5.530
 1670TIP3    H1 4951   6.514   2.488   5.565
 1670TIP3    H2 4952   6.467   2.551   5.435
 1671TIP3   OH2 4953   2.976   2.377   3.539
 1671TIP3    H1 4954   3.053   2.322   3.553
 1671TIP3    H2 4955   3.004   2.440   3.473
 1672TIP3   OH2 4956   4.216   1.493   6.220
 1672TIP3    H1 4957   4.213   1.566   6.282
 1672TIP3    H2 4958   4.135   1.445   6.235
 1673TIP3   OH2 4959   0.195   2.321   0.493
 1673TIP3    H1 4960   0.114   2.274   0.473
 1673TIP3    H2 4961   0.224   2.285   0.576
 1674TIP3   OH2 4962   8.031   2.440   5.112
 1674TIP3    H1 4963   8.003   2.514   5.058
 1674TIP3    H2 4964   7.955   2.420   5.166
 1675TIP3   OH2 4965   4.090   2.300   1.266
 1675TIP3    H1 4966   4.058   2.240   1.334
 1675TIP3    H2 4967   4.019   2.363   1.254
 1676TIP3   OH2 4968   5.950   1.851   4.952
 1676TIP3    H1 4969   5.990   1.914   5.011
 1676TIP3    H2 4970   5.859   1.880   4.945
 1677TIP3   OH2 4971   8.049   1.511   2.098
 1677TIP3    H1 4972   7.982   1.508   2.166
 1677TIP3    H2 4973   8.028   1.438   2.040
 1678TIP3   OH2 4974   7.825   6.527   4.084
 1678TIP3    H1 4975   7.828   6.604   4.141
 1678TIP3    H2 4976   7.733   6.518   4.060
 1679TIP3   OH2 4977   1.900   6.813   2.625
 1679TIP3    H1 4978   1.895   6.909   2.628
 1679TIP3    H2 4979   1.976   6.795   2.569
 1680TIP3   OH2 4980   4.927   2.145   3.691
 1680TIP3    H1 4981   4.971   2.116   3.771
 1680TIP3    H2 4982   4.992   2.130   3.622
 1681TIP3   OH2 4983   7.439   7.524   0.208
 1681TIP3    H1 4984   7.485   7.607   0.199
 1681TIP3    H2 4985   7.402   7.527   0.297
 1682TIP3   OH2 4986   3.035   2.146   4.737
 1682TIP3    H1 4987   3.129   2.145   4.755
 1682TIP3    H2 4988   2.998   2.081   4.797
 1683TIP3   OH2 4989   2.043   6.939   1.451
 1683TIP3    H1 4990   2.136   6.936   1.473
 1683TIP3    H2 4991   2.038   6.903   1.363
 1684TIP3   OH2 4992   5.154   2.653   1.314
 1684TIP3    H1 4993   5.120   2.571   1.349
 1684TIP3    H2 4994   5.094   2.720   1.347
 1685TIP3   OH2 4995   4.620   3.347   1.321
 1685TIP3    H1 4996   4.610   3.252   1.307
 1685TIP3    H2 4997   4.569   3.364   1.400
 1686TIP3   OH2 4998   3.576   0.932   4.348
 1686TIP3    H1 4999   3.528   1.015   4.350
 1686TIP3    H2 5000   3.649   0.945   4.408
 1687TIP3   OH2 5001   1.225   3.778   6.669
 1687TIP3    H1 5002   1.298   3.832   6.639
 1687TIP3    H2 5003   1.149   3.814   6.623
 1688TIP3   OH2 5004   4.190   0.912   2.573
 1688TIP3    H1 5005   4.281   0.936   2.554
 1688TIP3    H2 5006   4.166   0.851   2.503
 1689TIP3   OH2 5007   3.422   4.996   4.218
 1689TIP3    H1 5008   3.441   5.046   4.297
 1689TIP3    H2 5009   3.435   5.058   4.146
 1690TIP3   OH2 5010   1.886   3.209   6.492
 1690TIP3    H1 5011   1.964   3.263   6.501
 1690TIP3    H2 5012   1.902   3.133   6.548
 1691TIP3   OH2 5013   4.836   2.954   2.078
 1691TIP3    H1 5014   4.778   2.887   2.043
 1691TIP3    H2 5015   4.800   3.037   2.047
 1692TIP3   OH2 5016   3.771   6.709   4.991
 1692TIP3    H1 5017   3.709   6.731   5.060
 1692TIP3    H2 5018   3.821   6.636   5.026
 1693TIP3   OH2 5019   1.545   4.315   4.389
 1693TIP3    H1 5020   1.465   4.366   4.384
 1693TIP3    H2 5021   1.589   4.349   4.468
 1694TIP3   OH2 5022   6.936   7.170   0.964
 1694TIP3    H1 5023   6.994   7.246   0.968
 1694TIP3    H2 5024   6.849   7.208   0.957
 1695TIP3   OH2 5025   1.404   2.936   4.636
 1695TIP3    H1 5026   1.408   2.844   4.661
 1695TIP3    H2 5027   1.428   2.936   4.543
 1696TIP3   OH2 5028   0.817   7.273   2.388
 1696TIP3    H1 5029   0.803   7.301   2.479
 1696TIP3    H2 5030   0.846   7.182   2.395
 1697TIP3   OH2 5031   6.514   5.796   2.657
 1697TIP3    H1 5032   6.592   5.746   2.682
 1697TIP3    H2 5033   6.460   5.797   2.736
 1698TIP3   OH2 5034   5.350   4.107   0.652
 1698TIP3    H1 5035   5.321   4.184   0.701
 1698TIP3    H2 5036   5.276   4.046   0.657
 1699TIP3   OH2 5037   3.676   5.080   5.635
 1699TIP3    H1 5038   3.609   5.090   5.567
 1699TIP3    H2 5039   3.693   4.986   5.637
 1700TIP3   OH2 5040   3.467   1.558   4.708
 1700TIP3    H1 5041   3.374   1.573   4.722
 1700TIP3    H2 5042   3.495   1.507   4.784
 1701TIP3   OH2 5043   4.315   4.561   0.400
 1701TIP3    H1 5044   4.332   4.477   0.355
 1701TIP3    H2 5045   4.378   4.563   0.471
 1702TIP3   OH2 5046   2.493   5.230   4.462
 1702TIP3    H1 5047   2.524   5.243   4.551
 1702TIP3    H2 5048   2.469   5.137   4.458
 1703TIP3   OH2 5049   6.809   1.648   2.852
 1703TIP3    H1 5050   6.898   1.638   2.884
 1703TIP3    H2 5051   6.790   1.566   2.808
 1704TIP3   OH2 5052   0.791   7.552   2.330
 1704TIP3    H1 5053   0.814   7.565   2.238
 1704TIP3    H2 5054   0.798   7.457   2.344
 1705TIP3   OH2 5055   1.119   7.351   6.272
 1705TIP3    H1 5056   1.049   7.362   6.336
 1705TIP3    H2 5057   1.124   7.435   6.227
 1706TIP3   OH2 5058   4.966   5.542   4.379
 1706TIP3    H1 5059   5.057   5.512   4.377
 1706TIP3    H2 5060   4.956   5.581   4.466
 1707TIP3   OH2 5061   3.073   5.196   0.254
 1707TIP3    H1 5062   3.124   5.269   0.219
 1707TIP3    H2 5063   3.031   5.232   0.333
 1708TIP3   OH2 5064   5.411   6.263   1.335
 1708TIP3    H1 5065   5.427   6.296   1.247
 1708TIP3    H2 5066   5.389   6.170   1.323
 1709TIP3   OH2 5067   5.848   7.825   5.008
 1709TIP3    H1 5068   5.832   7.779   4.925
 1709TIP3    H2 5069   5.764   7.821   5.054
 1710TIP3   OH2 5070   0.817   7.872   0.167
 1710TIP3    H1 5071   0.739   7.916   0.133
 1710TIP3    H2 5072   0.840   7.807   0.101
 1711TIP3   OH2 5073   8.175   6.622   3.331
 1711TIP3    H1 5074   8.110   6.578   3.386
 1711TIP3    H2 5075   8.162   6.716   3.348
 1712TIP3   OH2 5076   7.434   6.487   0.180
 1712TIP3    H1 5077   7.512   6.450   0.223
 1712TIP3    H2 5078   7.463   6.571   0.145
 1713TIP3   OH2 5079   5.837   3.878   6.418
 1713TIP3    H1 5080   5.762   3.867   6.477
 1713TIP3    H2 5081   5.883   3.955   6.452
 1714TIP3   OH2 5082   3.295   3.034   4.404
 1714TIP3    H1 5083   3.224   3.004   4.461
 1714TIP3    H2 5084   3.316   2.958   4.350
 1715TIP3   OH2 5085   5.583   2.779   0.233
 1715TIP3    H1 5086   5.550   2.869   0.235
 1715TIP3    H2 5087   5.665   2.784   0.184
 1716TIP3   OH2 5088   6.151   0.734   4.621
 1716TIP3    H1 5089   6.215   0.772   4.560
 1716TIP3    H2 5090   6.120   0.809   4.672
 1717TIP3   OH2 5091   4.992   2.893   0.072
 1717TIP3    H1 5092   4.979   2.798   0.065
 1717TIP3    H2 5093   5.049   2.904   0.148
 1718TIP3   OH2 5094   7.009   6.306   0.771
 1718TIP3    H1 5095   6.943   6.236   0.775
 1718TIP3    H2 5096   7.051   6.295   0.686
 1719TIP3   OH2 5097   7.025   4.980   5.107
 1719TIP3    H1 5098   6.952   5.005   5.164
 1719TIP3    H2 5099   7.048   5.061   5.061
 1720TIP3   OH2 5100   3.135   4.934   3.614
 1720TIP3    H1 5101   3.183   4.854   3.637
 1720TIP3    H2 5102   3.180   5.003   3.664
 1721TIP3   OH2 5103   5.480   7.640   0.397
 1721TIP3    H1 5104   5.496   7.548   0.376
 1721TIP3    H2 5105   5.538   7.689   0.338
 1722TIP3   OH2 5106   5.692   6.007   2.389
 1722TIP3    H1 5107   5.779   6.007   2.429
 1722TIP3    H2 5108   5.646   5.935   2.432
 1723TIP3   OH2 5109   6.077   6.546   2.063
 1723TIP3    H1 5110   5.986   6.569   2.081
 1723TIP3    H2 5111   6.072   6.482   1.993
 1724TIP3   OH2 5112   5.284   0.830   4.812
 1724TIP3    H1 5113   5.247   0.861   4.729
 1724TIP3    H2 5114   5.376   0.855   4.808
 1725TIP3   OH2 5115   4.327   7.760   2.379
 1725TIP3    H1 5116   4.241   7.729   2.352
 1725TIP3    H2 5117   4.330   7.744   2.474
 1726TIP3   OH2 5118   2.443   1.590   1.653
 1726TIP3    H1 5119   2.519   1.532   1.666
 1726TIP3    H2 5120   2.478   1.678   1.665
 1727TIP3   OH2 5121   6.906   4.886   3.496
 1727TIP3    H1 5122   6.902   4.849   3.584
 1727TIP3    H2 5123   6.889   4.812   3.437
 1728TIP3   OH2 5124   7.075   2.468   4.450
 1728TIP3    H1 5125   7.148   2.406   4.446
 1728TIP3    H2 5126   7.093   2.532   4.380
 1729TIP3   OH2 5127   2.619   4.505   2.471
 1729TIP3    H1 5128   2.699   4.461   2.500
 1729TIP3    H2 5129   2.569   4.437   2.427
 1730TIP3   OH2 5130   1.527   2.688   3.692
 1730TIP3    H1 5131   1.610   2.648   3.666
 1730TIP3    H2 5132   1.548   2.737   3.771
 1731TIP3   OH2 5133   7.833   4.041   6.551
 1731TIP3    H1 5134   7.781   3.960   6.553
 1731TIP3    H2 5135   7.801   4.088   6.474
 1732TIP3   OH2 5136   0.180   6.831   2.189
 1732TIP3    H1 5137   0.257   6.887   2.201
 1732TIP3    H2 5138   0.181   6.808   2.097
 1733TIP3   OH2 5139   6.692   0.511   3.908
 1733TIP3    H1 5140   6.610   0.510   3.859
 1733TIP3    H2 5141   6.711   0.419   3.926
 1734TIP3   OH2 5142   1.140   6.118   4.475
 1734TIP3    H1 5143   1.193   6.087   4.401
 1734TIP3    H2 5144   1.103   6.038   4.513
 1735TIP3   OH2 5145   4.397   5.629   5.353
 1735TIP3    H1 5146   4.448   5.708   5.367
 1735TIP3    H2 5147   4.462   5.559   5.342
 1736TIP3   OH2 5148   6.717   0.472   5.583
 1736TIP3    H1 5149   6.771   0.492   5.660
 1736TIP3    H2 5150   6.670   0.553   5.565
 1737TIP3   OH2 5151   5.655   6.438   6.824
 1737TIP3    H1 5152   5.674   6.505   6.759
 1737TIP3    H2 5153   5.593   6.379   6.781
 1738TIP3   OH2 5154   4.329   2.255   0.769
 1738TIP3    H1 5155   4.363   2.344   0.764
 1738TIP3    H2 5156   4.343   2.229   0.860
 1739TIP3   OH2 5157   1.910   3.456   0.957
 1739TIP3    H1 5158   1.935   3.364   0.965
 1739TIP3    H2 5159   1.994   3.503   0.957
 1740TIP3   OH2 5160   4.211   5.937   2.633
 1740TIP3    H1 5161   4.243   5.849   2.613
 1740TIP3    H2 5162   4.121   5.938   2.602
 1741TIP3   OH2 5163   3.518   0.957   6.730
 1741TIP3    H1 5164   3.448   0.988   6.787
 1741TIP3    H2 5165   3.473   0.924   6.652
 1742TIP3   OH2 5166   7.298   1.784   0.933
 1742TIP3    H1 5167   7.256   1.782   0.847
 1742TIP3    H2 5168   7.312   1.877   0.950
 1743TIP3   OH2 5169   5.450   0.278   1.012
 1743TIP3    H1 5170   5.482   0.234   0.933
 1743TIP3    H2 5171   5.526   0.328   1.043
 1744TIP3   OH2 5172   7.853   7.266   0.470
 1744TIP3    H1 5173   7.847   7.263   0.566
 1744TIP3    H2 5174   7.771   7.306   0.443
 1745TIP3   OH2 5175   6.875   5.834   5.491
 1745TIP3    H1 5176   6.875   5.858   5.584
 1745TIP3    H2 5177   6.901   5.742   5.491
 1746TIP3   OH2 5178   3.594   3.309   0.194
 1746TIP3    H1 5179   3.652   3.347   0.260
 1746TIP3    H2 5180   3.506   3.331   0.225
 1747TIP3   OH2 5181   1.703   4.983   4.209
 1747TIP3    H1 5182   1.771   4.925   4.176
 1747TIP3    H2 5183   1.734   5.013   4.294
 1748TIP3   OH2 5184   1.016   6.106   2.608
 1748TIP3    H1 5185   1.084   6.152   2.559
 1748TIP3    H2 5186   0.950   6.083   2.542
 1749TIP3   OH2 5187   6.307   2.157   0.560
 1749TIP3    H1 5188   6.232   2.124   0.610
 1749TIP3    H2 5189   6.383   2.126   0.608
 1750TIP3   OH2 5190   5.906   6.100   3.073
 1750TIP3    H1 5191   5.939   6.042   3.005
 1750TIP3    H2 5192   5.891   6.043   3.149
 1751TIP3   OH2 5193   6.109   5.070   5.768
 1751TIP3    H1 5194   6.193   5.072   5.721
 1751TIP3    H2 5195   6.045   5.098   5.702
 1752TIP3   OH2 5196   5.218   7.432   3.317
 1752TIP3    H1 5197   5.216   7.456   3.224
 1752TIP3    H2 5198   5.301   7.468   3.349
 1753TIP3   OH2 5199   2.574   3.457   4.181
 1753TIP3    H1 5200   2.557   3.540   4.225
 1753TIP3    H2 5201   2.528   3.392   4.234
 1754TIP3   OH2 5202   1.240   4.069   4.024
 1754TIP3    H1 5203   1.172   4.011   3.990
 1754TIP3    H2 5204   1.193   4.132   4.079
 1755TIP3   OH2 5205   5.906   6.847   3.456
 1755TIP3    H1 5206   6.001   6.836   3.451
 1755TIP3    H2 5207   5.883   6.812   3.542
 1756TIP3   OH2 5208   5.585   6.684   0.613
 1756TIP3    H1 5209   5.625   6.623   0.675
 1756TIP3    H2 5210   5.565   6.630   0.536
 1757TIP3   OH2 5211   7.968   0.468   1.563
 1757TIP3    H1 5212   7.969   0.441   1.655
 1757TIP3    H2 5213   7.923   0.552   1.564
 1758TIP3   OH2 5214   4.837   6.871   2.117
 1758TIP3    H1 5215   4.888   6.813   2.174
 1758TIP3    H2 5216   4.758   6.890   2.167
 1759TIP3   OH2 5217   7.264   0.867   5.371
 1759TIP3    H1 5218   7.318   0.931   5.324
 1759TIP3    H2 5219   7.255   0.904   5.459
 1760TIP3   OH2 5220   2.018   2.539   4.208
 1760TIP3    H1 5221   2.101   2.576   4.240
 1760TIP3    H2 5222   2.000   2.466   4.267
 1761TIP3   OH2 5223   0.820   2.439   4.249
 1761TIP3    H1 5224   0.846   2.531   4.247
 1761TIP3    H2 5225   0.827   2.410   4.158
 1762TIP3   OH2 5226   6.164   6.672   5.279
 1762TIP3    H1 5227   6.087   6.649   5.331
 1762TIP3    H2 5228   6.131   6.733   5.213
 1763TIP3   OH2 5229   1.253   1.872   0.206
 1763TIP3    H1 5230   1.323   1.820   0.246
 1763TIP3    H2 5231   1.222   1.819   0.133
 1764TIP3   OH2 5232   7.191   4.851   2.710
 1764TIP3    H1 5233   7.170   4.866   2.802
 1764TIP3    H2 5234   7.136   4.778   2.683
 1765TIP3   OH2 5235   6.743   7.145   5.222
 1765TIP3    H1 5236   6.763   7.052   5.238
 1765TIP3    H2 5237   6.825   7.190   5.237
 1766TIP3   OH2 5238   1.209   4.627   1.137
 1766TIP3    H1 5239   1.207   4.675   1.220
 1766TIP3    H2 5240   1.122   4.640   1.099
 1767TIP3   OH2 5241   4.741   6.958   1.133
 1767TIP3    H1 5242   4.691   7.038   1.115
 1767TIP3    H2 5243   4.818   6.965   1.076
 1768TIP3   OH2 5244   6.413   4.731   4.737
 1768TIP3    H1 5245   6.402   4.823   4.712
 1768TIP3    H2 5246   6.486   4.730   4.798
 1769TIP3   OH2 5247   4.655   7.140   5.786
 1769TIP3    H1 5248   4.671   7.069   5.724
 1769TIP3    H2 5249   4.715   7.123   5.858
 1770TIP3   OH2 5250   3.647   7.662   5.669
 1770TIP3    H1 5251   3.730   7.627   5.637
 1770TIP3    H2 5252   3.659   7.757   5.667
 1771TIP3   OH2 5253   2.718   4.761   2.046
 1771TIP3    H1 5254   2.648   4.698   2.056
 1771TIP3    H2 5255   2.716   4.784   1.953
 1772TIP3   OH2 5256   1.465   2.483   6.094
 1772TIP3    H1 5257   1.389   2.520   6.138
 1772TIP3    H2 5258   1.538   2.540   6.117
 1773TIP3   OH2 5259   2.898   7.457   0.451
 1773TIP3    H1 5260   2.878   7.365   0.435
 1773TIP3    H2 5261   2.887   7.498   0.365
 1774TIP3   OH2 5262   4.644   4.220   3.075
 1774TIP3    H1 5263   4.612   4.287   3.135
 1774TIP3    H2 5264   4.726   4.190   3.115
 1775TIP3   OH2 5265   8.189   7.527   1.633
 1775TIP3    H1 5266   8.188   7.475   1.553
 1775TIP3    H2 5267   8.175   7.617   1.603
 1776TIP3   OH2 5268   3.497   1.907   3.716
 1776TIP3    H1 5269   3.554   1.969   3.671
 1776TIP3    H2 5270   3.415   1.955   3.730
 1777TIP3   OH2 5271   2.813   0.888   4.995
 1777TIP3    H1 5272   2.735   0.930   4.959
 1777TIP3    H2 5273   2.886   0.931   4.949
 1778TIP3   OH2 5274   0.459   4.098   6.204
 1778TIP3    H1 5275   0.495   4.086   6.292
 1778TIP3    H2 5276   0.384   4.039   6.199
 1779TIP3   OH2 5277   2.774   6.403   2.942
 1779TIP3    H1 5278   2.838   6.348   2.986
 1779TIP3    H2 5279   2.693   6.389   2.990
 1780TIP3   OH2 5280   4.826   3.324   2.924
 1780TIP3    H1 5281   4.886   3.284   2.861
 1780TIP3    H2 5282   4.782   3.394   2.876
 1781TIP3   OH2 5283   3.553   7.428   4.139
 1781TIP3    H1 5284   3.557   7.424   4.235
 1781TIP3    H2 5285   3.464   7.457   4.120
 1782TIP3   OH2 5286   5.118   0.464   2.809
 1782TIP3    H1 5287   5.080   0.434   2.891
 1782TIP3    H2 5288   5.111   0.559   2.812
 1783TIP3   OH2 5289   8.228   4.852   1.429
 1783TIP3    H1 5290   8.281   4.800   1.489
 1783TIP3    H2 5291   8.138   4.835   1.455
 1784TIP3   OH2 5292   4.071   5.881   2.915
 1784TIP3    H1 5293   4.163   5.873   2.888
 1784TIP3    H2 5294   4.024   5.821   2.857
 1785TIP3   OH2 5295   8.189   2.687   2.920
 1785TIP3    H1 5296   8.259   2.643   2.968
 1785TIP3    H2 5297   8.227   2.708   2.835
 1786TIP3   OH2 5298   2.711   0.757   4.211
 1786TIP3    H1 5299   2.663   0.803   4.142
 1786TIP3    H2 5300   2.778   0.707   4.164
 1787TIP3   OH2 5301   7.641   1.394   2.770
 1787TIP3    H1 5302   7.712   1.458   2.764
 1787TIP3    H2 5303   7.670   1.321   2.716
 1788TIP3   OH2 5304   0.411   1.490   0.019
 1788TIP3    H1 5305   0.505   1.502   0.004
 1788TIP3    H2 5306   0.405   1.462   0.111
 1789TIP3   OH2 5307   7.933   1.854   6.444
 1789TIP3    H1 5308   7.994   1.827   6.376
 1789TIP3    H2 5309   7.873   1.780   6.453
 1790TIP3   OH2 5310   1.301   4.541   3.060
 1790TIP3    H1 5311   1.294   4.538   3.156
 1790TIP3    H2 5312   1.309   4.450   3.033
 1791TIP3   OH2 5313   2.096   2.304   0.974
 1791TIP3    H1 5314   2.122   2.395   0.957
 1791TIP3    H2 5315   2.125   2.288   1.064
 1792TIP3   OH2 5316   2.998   1.238   4.098
 1792TIP3    H1 5317   3.000   1.154   4.053
 1792TIP3    H2 5318   3.051   1.225   4.177
 1793TIP3   OH2 5319   5.770   3.445   5.429
 1793TIP3    H1 5320   5.785   3.540   5.423
 1793TIP3    H2 5321   5.786   3.413   5.340
 1794TIP3   OH2 5322   2.050   3.158   0.850
 1794TIP3    H1 5323   1.996   3.172   0.928
 1794TIP3    H2 5324   2.128   3.211   0.865
 1795TIP3   OH2 5325   1.514   2.814   0.250
 1795TIP3    H1 5326   1.599   2.841   0.215
 1795TIP3    H2 5327   1.528   2.725   0.282
 1796TIP3   OH2 5328   3.491   1.131   1.715
 1796TIP3    H1 5329   3.448   1.191   1.654
 1796TIP3    H2 5330   3.550   1.187   1.765
 1797TIP3   OH2 5331   6.409   6.403   6.455
 1797TIP3    H1 5332   6.493   6.370   6.488
 1797TIP3    H2 5333   6.344   6.343   6.491
 1798TIP3   OH2 5334   3.222   1.581   1.285
 1798TIP3    H1 5335   3.166   1.597   1.361
 1798TIP3    H2 5336   3.240   1.668   1.250
 1799TIP3   OH2 5337   3.290   2.798   1.026
 1799TIP3    H1 5338   3.294   2.766   1.116
 1799TIP3    H2 5339   3.368   2.854   1.018
 1800TIP3   OH2 5340   7.055   5.853   2.832
 1800TIP3    H1 5341   7.123   5.919   2.817
 1800TIP3    H2 5342   7.049   5.846   2.927
 1801TIP3   OH2 5343   1.093   1.298   6.191
 1801TIP3    H1 5344   1.139   1.220   6.222
 1801TIP3    H2 5345   1.092   1.357   6.265
 1802TIP3   OH2 5346   5.017   3.085   0.710
 1802TIP3    H1 5347   4.982   2.997   0.698
 1802TIP3    H2 5348   4.950   3.143   0.674
 1803TIP3   OH2 5349   1.002   7.042   1.466
 1803TIP3    H1 5350   0.949   6.967   1.439
 1803TIP3    H2 5351   1.037   7.017   1.552
 1804TIP3   OH2 5352   7.575   5.117   0.092
 1804TIP3    H1 5353   7.553   5.034   0.134
 1804TIP3    H2 5354   7.587   5.178   0.164
 1805TIP3   OH2 5355   3.310   4.950   4.669
 1805TIP3    H1 5356   3.376   5.015   4.696
 1805TIP3    H2 5357   3.226   4.993   4.686
 1806TIP3   OH2 5358   3.885   4.856   4.584
 1806TIP3    H1 5359   3.957   4.866   4.646
 1806TIP3    H2 5360   3.917   4.897   4.503
 1807TIP3   OH2 5361   3.474   5.430   6.769
 1807TIP3    H1 5362   3.523   5.380   6.835
 1807TIP3    H2 5363   3.541   5.460   6.708
 1808TIP3   OH2 5364   0.941   4.214   5.286
 1808TIP3    H1 5365   0.991   4.226   5.367
 1808TIP3    H2 5366   0.903   4.126   5.294
 1809TIP3   OH2 5367   6.683   5.243   4.385
 1809TIP3    H1 5368   6.666   5.229   4.478
 1809TIP3    H2 5369   6.599   5.228   4.342
 1810TIP3   OH2 5370   1.127   2.965   0.556
 1810TIP3    H1 5371   1.076   3.046   0.557
 1810TIP3    H2 5372   1.205   2.986   0.505
 1811TIP3   OH2 5373   6.827   5.138   3.267
 1811TIP3    H1 5374   6.810   5.169   3.178
 1811TIP3    H2 5375   6.781   5.055   3.273
 1812TIP3   OH2 5376   3.137   5.620   5.243
 1812TIP3    H1 5377   3.046   5.597   5.224
 1812TIP3    H2 5378   3.149   5.705   5.199
 1813TIP3   OH2 5379   0.531   1.795   1.281
 1813TIP3    H1 5380   0.558   1.861   1.345
 1813TIP3    H2 5381   0.489   1.727   1.334
 1814TIP3   OH2 5382   5.861   0.701   0.949
 1814TIP3    H1 5383   5.857   0.725   0.856
 1814TIP3    H2 5384   5.781   0.650   0.963
 1815TIP3   OH2 5385   6.184   1.706   6.391
 1815TIP3    H1 5386   6.160   1.730   6.302
 1815TIP3    H2 5387   6.129   1.629   6.410
 1816TIP3   OH2 5388   1.214   2.320   0.054
 1816TIP3    H1 5389   1.148   2.301   0.121
 1816TIP3    H2 5390   1.280   2.251   0.067
 1817TIP3   OH2 5391   6.174   0.814   0.851
 1817TIP3    H1 5392   6.087   0.841   0.823
 1817TIP3    H2 5393   6.205   0.886   0.906
 1818TIP3   OH2 5394   7.061   2.837   5.534
 1818TIP3    H1 5395   6.982   2.815   5.583
 1818TIP3    H2 5396   7.088   2.922   5.568
 1819TIP3   OH2 5397   5.835   7.580   0.809
 1819TIP3    H1 5398   5.763   7.556   0.750
 1819TIP3    H2 5399   5.872   7.660   0.771
 1820TIP3   OH2 5400   8.378   6.064   3.753
 1820TIP3    H1 5401   8.299   6.113   3.731
 1820TIP3    H2 5402   8.450   6.125   3.733
 1821TIP3   OH2 5403   1.672   5.487   4.580
 1821TIP3    H1 5404   1.705   5.574   4.601
 1821TIP3    H2 5405   1.686   5.437   4.661
 1822TIP3   OH2 5406   4.916   2.202   6.604
 1822TIP3    H1 5407   4.897   2.155   6.523
 1822TIP3    H2 5408   4.930   2.293   6.577
 1823TIP3   OH2 5409   0.996   5.844   2.026
 1823TIP3    H1 5410   0.933   5.771   2.027
 1823TIP3    H2 5411   1.053   5.827   2.101
 1824TIP3   OH2 5412   2.858   7.532   4.219
 1824TIP3    H1 5413   2.856   7.624   4.246
 1824TIP3    H2 5414   2.860   7.483   4.301
 1825TIP3   OH2 5415   6.749   6.775   4.571
 1825TIP3    H1 5416   6.746   6.802   4.663
 1825TIP3    H2 5417   6.815   6.706   4.569
 1826TIP3   OH2 5418   1.647   3.011   4.178
 1826TIP3    H1 5419   1.714   2.945   4.198
 1826TIP3    H2 5420   1.593   2.970   4.110
 1827TIP3   OH2 5421   7.107   5.053   3.382
 1827TIP3    H1 5422   7.069   5.105   3.311
 1827TIP3    H2 5423   7.037   4.992   3.407
 1828TIP3   OH2 5424   2.852   0.960   1.383
 1828TIP3    H1 5425   2.759   0.937   1.391
 1828TIP3    H2 5426   2.898   0.876   1.386
 1829TIP3   OH2 5427   1.175   5.030   5.710
 1829TIP3    H1 5428   1.168   4.978   5.789
 1829TIP3    H2 5429   1.084   5.048   5.685
 1830TIP3   OH2 5430   1.218   6.142   1.064
 1830TIP3    H1 5431   1.283   6.126   1.133
 1830TIP3    H2 5432   1.192   6.055   1.035
 1831TIP3   OH2 5433   4.008   5.518   0.519
 1831TIP3    H1 5434   4.043   5.430   0.503
 1831TIP3    H2 5435   4.082   5.577   0.505
 1832TIP3   OH2 5436   6.185   7.939   5.358
 1832TIP3    H1 5437   6.259   7.881   5.343
 1832TIP3    H2 5438   6.111   7.880   5.372
 1833TIP3   OH2 5439   6.741   2.998   3.634
 1833TIP3    H1 5440   6.830   3.027   3.616
 1833TIP3    H2 5441   6.714   3.049   3.710
 1834TIP3   OH2 5442   3.131   5.852   5.770
 1834TIP3    H1 5443   3.079   5.925   5.737
 1834TIP3    H2 5444   3.147   5.797   5.693
 1835TIP3   OH2 5445   7.889   7.854   4.738
 1835TIP3    H1 5446   7.921   7.920   4.800
 1835TIP3    H2 5447   7.883   7.773   4.790
 1836TIP3   OH2 5448   1.708   7.211   0.423
 1836TIP3    H1 5449   1.641   7.195   0.489
 1836TIP3    H2 5450   1.762   7.131   0.424
 1837TIP3   OH2 5451   4.274   3.832   2.319
 1837TIP3    H1 5452   4.283   3.746   2.360
 1837TIP3    H2 5453   4.190   3.864   2.350
 1838TIP3   OH2 5454   5.922   4.432   4.270
 1838TIP3    H1 5455   5.829   4.452   4.282
 1838TIP3    H2 5456   5.946   4.477   4.189
 1839TIP3   OH2 5457   4.540   4.279   4.778
 1839TIP3    H1 5458   4.572   4.196   4.814
 1839TIP3    H2 5459   4.607   4.305   4.715
 1840TIP3   OH2 5460   1.391   4.924   0.630
 1840TIP3    H1 5461   1.383   4.897   0.721
 1840TIP3    H2 5462   1.312   4.974   0.612
 1841TIP3   OH2 5463   7.136   3.803   6.351
 1841TIP3    H1 5464   7.180   3.734   6.402
 1841TIP3    H2 5465   7.090   3.855   6.417
 1842TIP3   OH2 5466   3.618   3.088   1.362
 1842TIP3    H1 5467   3.621   3.173   1.318
 1842TIP3    H2 5468   3.597   3.026   1.292
 1843TIP3   OH2 5469   0.501   7.734   3.534
 1843TIP3    H1 5470   0.595   7.745   3.521
 1843TIP3    H2 5471   0.493   7.670   3.604
 1844TIP3   OH2 5472   0.496   6.054   6.099
 1844TIP3    H1 5473   0.401   6.046   6.109
 1844TIP3    H2 5474   0.522   6.115   6.168
 1845TIP3   OH2 5475   2.590   4.190   1.606
 1845TIP3    H1 5476   2.601   4.279   1.640
 1845TIP3    H2 5477   2.509   4.193   1.556
 1846TIP3   OH2 5478   5.747   2.264   0.939
 1846TIP3    H1 5479   5.735   2.357   0.919
 1846TIP3    H2 5480   5.786   2.228   0.859
 1847TIP3   OH2 5481   1.732   5.373   3.768
 1847TIP3    H1 5482   1.766   5.284   3.767
 1847TIP3    H2 5483   1.686   5.382   3.684
 1848TIP3   OH2 5484   2.375   1.622   3.750
 1848TIP3    H1 5485   2.303   1.626   3.813
 1848TIP3    H2 5486   2.450   1.591   3.800
 1849TIP3   OH2 5487   0.098   2.752   1.674
 1849TIP3    H1 5488   0.048   2.813   1.729
 1849TIP3    H2 5489   0.084   2.782   1.585
 1850TIP3   OH2 5490   6.626   2.341   2.646
 1850TIP3    H1 5491   6.657   2.282   2.714
 1850TIP3    H2 5492   6.597   2.284   2.575
 1851TIP3   OH2 5493   2.280   6.395   3.324
 1851TIP3    H1 5494   2.241   6.455   3.260
 1851TIP3    H2 5495   2.349   6.446   3.366
 1852TIP3   OH2 5496   4.721   2.680   6.511
 1852TIP3    H1 5497   4.709   2.590   6.541
 1852TIP3    H2 5498   4.760   2.726   6.585
 1853TIP3   OH2 5499   5.084   5.066   2.441
 1853TIP3    H1 5500   5.177   5.087   2.431
 1853TIP3    H2 5501   5.040   5.152   2.444
 1854TIP3   OH2 5502   2.719   6.265   6.464
 1854TIP3    H1 5503   2.744   6.291   6.553
 1854TIP3    H2 5504   2.711   6.347   6.416
 1855TIP3   OH2 5505   4.091   3.139   4.165
 1855TIP3    H1 5506   4.050   3.110   4.247
 1855TIP3    H2 5507   4.182   3.110   4.173
 1856TIP3   OH2 5508   3.770   2.812   1.885
 1856TIP3    H1 5509   3.731   2.898   1.902
 1856TIP3    H2 5510   3.772   2.770   1.971
 1857TIP3   OH2 5511   7.399   4.956   4.042
 1857TIP3    H1 5512   7.322   4.957   3.985
 1857TIP3    H2 5513   7.373   5.008   4.118
 1858TIP3   OH2 5514   0.313   6.463   2.561
 1858TIP3    H1 5515   0.289   6.502   2.645
 1858TIP3    H2 5516   0.315   6.536   2.500
 1859TIP3   OH2 5517   5.589   4.403   4.896
 1859TIP3    H1 5518   5.674   4.359   4.888
 1859TIP3    H2 5519   5.534   4.362   4.829
 1860TIP3   OH2 5520   8.300   3.928   4.028
 1860TIP3    H1 5521   8.367   3.864   4.005
 1860TIP3    H2 5522   8.235   3.878   4.077
 1861TIP3   OH2 5523   3.386   0.904   1.324
 1861TIP3    H1 5524   3.457   0.969   1.323
 1861TIP3    H2 5525   3.311   0.951   1.360
 1862TIP3   OH2 5526   2.218   4.981   4.899
 1862TIP3    H1 5527   2.235   5.075   4.889
 1862TIP3    H2 5528   2.123   4.972   4.888
 1863TIP3   OH2 5529   3.805   7.446   6.525
 1863TIP3    H1 5530   3.768   7.361   6.500
 1863TIP3    H2 5531   3.833   7.434   6.616
 1864TIP3   OH2 5532   7.182   1.420   0.473
 1864TIP3    H1 5533   7.185   1.359   0.399
 1864TIP3    H2 5534   7.099   1.467   0.462
 1865TIP3   OH2 5535   3.681   5.149   2.515
 1865TIP3    H1 5536   3.673   5.059   2.483
 1865TIP3    H2 5537   3.753   5.146   2.578
 1866TIP3   OH2 5538   4.816   5.687   0.796
 1866TIP3    H1 5539   4.759   5.759   0.770
 1866TIP3    H2 5540   4.847   5.650   0.713
 1867TIP3   OH2 5541   0.041   2.996   0.434
 1867TIP3    H1 5542   0.126   3.039   0.445
 1867TIP3    H2 5543  -0.010   3.057   0.380
 1868TIP3   OH2 5544   2.956   6.418   5.948
 1868TIP3    H1 5545   2.901   6.348   5.912
 1868TIP3    H2 5546   2.997   6.458   5.871
 1869TIP3   OH2 5547   2.658   7.164   3.741
 1869TIP3    H1 5548   2.610   7.086   3.769
 1869TIP3    H2 5549   2.608   7.198   3.667
 1870TIP3   OH2 5550   1.397   0.929   6.643
 1870TIP3    H1 5551   1.359   1.012   6.673
 1870TIP3    H2 5552   1.436   0.950   6.558
 1871TIP3   OH2 5553   1.513   1.041   0.021
 1871TIP3    H1 5554   1.526   0.954  -0.017
 1871TIP3    H2 5555   1.432   1.034   0.072
 1872TIP3   OH2 5556   8.242   1.567   3.760
 1872TIP3    H1 5557   8.199   1.650   3.783
 1872TIP3    H2 5558   8.327   1.594   3.725
 1873TIP3   OH2 5559   2.148   2.297   1.252
 1873TIP3    H1 5560   2.065   2.298   1.300
 1873TIP3    H2 5561   2.181   2.387   1.261
 1874TIP3   OH2 5562   4.578   1.208   3.747
 1874TIP3    H1 5563   4.508   1.274   3.750
 1874TIP3    H2 5564   4.588   1.189   3.654
 1875TIP3   OH2 5565   3.768   4.384   4.681
 1875TIP3    H1 5566   3.735   4.405   4.768
 1875TIP3    H2 5567   3.690   4.386   4.625
 1876TIP3   OH2 5568   5.025   5.555   1.745
 1876TIP3    H1 5569   4.937   5.522   1.759
 1876TIP3    H2 5570   5.058   5.506   1.670
 1877TIP3   OH2 5571   6.229   3.959   6.146
 1877TIP3    H1 5572   6.163   3.890   6.139
 1877TIP3    H2 5573   6.309   3.919   6.112
 1878TIP3   OH2 5574   7.461   1.010   4.845
 1878TIP3    H1 5575   7.501   1.083   4.893
 1878TIP3    H2 5576   7.373   1.041   4.822
 1879TIP3   OH2 5577   7.084   2.079   2.385
 1879TIP3    H1 5578   7.156   2.122   2.339
 1879TIP3    H2 5579   7.120   2.056   2.470
 1880TIP3   OH2 5580   2.536   1.891   1.265
 1880TIP3    H1 5581   2.532   1.974   1.218
 1880TIP3    H2 5582   2.457   1.844   1.236
 1881TIP3   OH2 5583   1.836   5.671   5.617
 1881TIP3    H1 5584   1.924   5.663   5.654
 1881TIP3    H2 5585   1.799   5.583   5.624
 1882TIP3   OH2 5586   2.060   2.275   2.011
 1882TIP3    H1 5587   2.105   2.352   1.976
 1882TIP3    H2 5588   2.007   2.243   1.938
 1883TIP3   OH2 5589   4.963   3.738   2.734
 1883TIP3    H1 5590   4.943   3.830   2.746
 1883TIP3    H2 5591   5.026   3.736   2.661
 1884TIP3   OH2 5592   3.460   6.462   1.570
 1884TIP3    H1 5593   3.498   6.379   1.598
 1884TIP3    H2 5594   3.527   6.501   1.513
 1885TIP3   OH2 5595   0.050   1.749   3.392
 1885TIP3    H1 5596  -0.035   1.739   3.349
 1885TIP3    H2 5597   0.102   1.673   3.363
 1886TIP3   OH2 5598   0.212   6.235   3.798
 1886TIP3    H1 5599   0.150   6.304   3.822
 1886TIP3    H2 5600   0.298   6.272   3.813
 1887TIP3   OH2 5601   4.723   6.712   5.074
 1887TIP3    H1 5602   4.749   6.663   5.152
 1887TIP3    H2 5603   4.735   6.804   5.099
 1888TIP3   OH2 5604   0.178   3.478   3.586
 1888TIP3    H1 5605   0.193   3.496   3.493
 1888TIP3    H2 5606   0.110   3.540   3.611
 1889TIP3   OH2 5607   7.803   2.700   6.475
 1889TIP3    H1 5608   7.778   2.615   6.511
 1889TIP3    H2 5609   7.889   2.685   6.436
 1890TIP3   OH2 5610   2.010   1.791   6.500
 1890TIP3    H1 5611   2.038   1.877   6.469
 1890TIP3    H2 5612   2.076   1.765   6.563
 1891TIP3   OH2 5613   3.984   3.319   1.504
 1891TIP3    H1 5614   3.936   3.241   1.531
 1891TIP3    H2 5615   3.950   3.338   1.416
 1892TIP3   OH2 5616   5.383   3.994   1.801
 1892TIP3    H1 5617   5.392   3.951   1.886
 1892TIP3    H2 5618   5.312   4.057   1.815
 1893TIP3   OH2 5619   6.692   7.092   6.277
 1893TIP3    H1 5620   6.617   7.121   6.328
 1893TIP3    H2 5621   6.697   6.998   6.293
 1894TIP3   OH2 5622   1.474   1.853   3.199
 1894TIP3    H1 5623   1.461   1.771   3.152
 1894TIP3    H2 5624   1.565   1.850   3.228
 1895TIP3   OH2 5625   4.906   0.261   5.003
 1895TIP3    H1 5626   4.988   0.309   4.997
 1895TIP3    H2 5627   4.839   0.328   5.019
 1896TIP3   OH2 5628   0.873   3.666   3.445
 1896TIP3    H1 5629   0.912   3.678   3.531
 1896TIP3    H2 5630   0.903   3.741   3.394
 1897TIP3   OH2 5631   6.536   1.240   2.535
 1897TIP3    H1 5632   6.592   1.211   2.462
 1897TIP3    H2 5633   6.484   1.311   2.498
 1898TIP3   OH2 5634   1.929   2.339   4.373
 1898TIP3    H1 5635   1.921   2.259   4.322
 1898TIP3    H2 5636   1.912   2.312   4.463
 1899TIP3   OH2 5637   7.547   0.413   5.346
 1899TIP3    H1 5638   7.557   0.505   5.322
 1899TIP3    H2 5639   7.500   0.415   5.429
 1900TIP3   OH2 5640   0.034   1.617   0.859
 1900TIP3    H1 5641  -0.011   1.533   0.848
 1900TIP3    H2 5642   0.058   1.621   0.951
 1901TIP3   OH2 5643   5.989   3.155   2.312
 1901TIP3    H1 5644   6.012   3.115   2.396
 1901TIP3    H2 5645   5.977   3.081   2.252
 1902TIP3   OH2 5646   1.583   6.838   4.345
 1902TIP3    H1 5647   1.660   6.832   4.401
 1902TIP3    H2 5648   1.515   6.875   4.401
 1903TIP3   OH2 5649   6.100   7.402   4.247
 1903TIP3    H1 5650   6.102   7.349   4.167
 1903TIP3    H2 5651   6.167   7.364   4.303
 1904TIP3   OH2 5652   7.106   3.540   3.721
 1904TIP3    H1 5653   7.200   3.545   3.702
 1904TIP3    H2 5654   7.085   3.624   3.762
 1905TIP3   OH2 5655   1.915   3.946   1.913
 1905TIP3    H1 5656   1.898   4.036   1.883
 1905TIP3    H2 5657   1.840   3.924   1.967
 1906TIP3   OH2 5658   5.181   7.723   3.446
 1906TIP3    H1 5659   5.194   7.698   3.354
 1906TIP3    H2 5660   5.240   7.667   3.495
 1907TIP3   OH2 5661   6.367   3.660   1.143
 1907TIP3    H1 5662   6.293   3.627   1.195
 1907TIP3    H2 5663   6.406   3.728   1.199
 1908TIP3   OH2 5664   8.209   2.887   2.207
 1908TIP3    H1 5665   8.123   2.920   2.181
 1908TIP3    H2 5666   8.208   2.893   2.303
 1909TIP3   OH2 5667   4.382   2.862   3.508
 1909TIP3    H1 5668   4.473   2.884   3.526
 1909TIP3    H2 5669   4.349   2.935   3.456
 1910TIP3   OH2 5670   6.741   5.502   4.639
 1910TIP3    H1 5671   6.668   5.448   4.610
 1910TIP3    H2 5672   6.750   5.569   4.572
 1911TIP3   OH2 5673   3.913   0.387   6.856
 1911TIP3    H1 5674   3.932   0.425   6.942
 1911TIP3    H2 5675   3.921   0.461   6.796
 1912TIP3   OH2 5676   3.392   4.241   0.142
 1912TIP3    H1 5677   3.462   4.188   0.179
 1912TIP3    H2 5678   3.395   4.323   0.193
 1913TIP3   OH2 5679   4.403   4.761   6.812
 1913TIP3    H1 5680   4.493   4.772   6.783
 1913TIP3    H2 5681   4.382   4.670   6.792
 1914TIP3   OH2 5682   6.373   1.708   4.912
 1914TIP3    H1 5683   6.389   1.771   4.841
 1914TIP3    H2 5684   6.439   1.640   4.897
 1915TIP3   OH2 5685   4.584   3.973   4.433
 1915TIP3    H1 5686   4.531   3.898   4.407
 1915TIP3    H2 5687   4.561   3.990   4.524
 1916TIP3   OH2 5688   5.694   1.804   6.373
 1916TIP3    H1 5689   5.660   1.843   6.454
 1916TIP3    H2 5690   5.708   1.879   6.315
 1917TIP3   OH2 5691   3.485   2.382   2.458
 1917TIP3    H1 5692   3.440   2.297   2.453
 1917TIP3    H2 5693   3.572   2.365   2.422
 1918TIP3   OH2 5694   0.061   7.426   3.515
 1918TIP3    H1 5695   0.033   7.349   3.565
 1918TIP3    H2 5696   0.046   7.500   3.574
 1919TIP3   OH2 5697   0.583   5.966   0.938
 1919TIP3    H1 5698   0.644   5.914   0.991
 1919TIP3    H2 5699   0.582   6.052   0.979
 1920TIP3   OH2 5700   1.462   6.387   2.978
 1920TIP3    H1 5701   1.482   6.305   2.932
 1920TIP3    H2 5702   1.369   6.381   2.999
 1921TIP3   OH2 5703   1.585   7.461   3.052
 1921TIP3    H1 5704   1.565   7.519   2.979
 1921TIP3    H2 5705   1.556   7.374   3.023
 1922TIP3   OH2 5706   2.203   3.915   5.170
 1922TIP3    H1 5707   2.206   3.941   5.262
 1922TIP3    H2 5708   2.110   3.907   5.150
 1923TIP3   OH2 5709   5.161   5.493   5.652
 1923TIP3    H1 5710   5.110   5.412   5.664
 1923TIP3    H2 5711   5.132   5.549   5.724
 1924TIP3   OH2 5712   7.769   3.301   4.573
 1924TIP3    H1 5713   7.740   3.354   4.647
 1924TIP3    H2 5714   7.704   3.232   4.565
 1925TIP3   OH2 5715   7.559   5.885   6.595
 1925TIP3    H1 5716   7.476   5.930   6.582
 1925TIP3    H2 5717   7.555   5.852   6.684
 1926TIP3   OH2 5718   6.540   3.818   6.262
 1926TIP3    H1 5719   6.562   3.736   6.219
 1926TIP3    H2 5720   6.445   3.813   6.277
 1927TIP3   OH2 5721   0.392   4.228   5.081
 1927TIP3    H1 5722   0.484   4.217   5.056
 1927TIP3    H2 5723   0.395   4.284   5.158
 1928TIP3   OH2 5724   4.131   0.864   3.891
 1928TIP3    H1 5725   4.209   0.916   3.913
 1928TIP3    H2 5726   4.147   0.837   3.800
 1929TIP3   OH2 5727   7.108   0.339   3.277
 1929TIP3    H1 5728   7.039   0.396   3.244
 1929TIP3    H2 5729   7.153   0.308   3.199
 1930TIP3   OH2 5730   3.474   2.526   0.298
 1930TIP3    H1 5731   3.514   2.491   0.219
 1930TIP3    H2 5732   3.384   2.493   0.296
 1931TIP3   OH2 5733   8.216   0.085   3.990
 1931TIP3    H1 5734   8.187  -0.006   3.986
 1931TIP3    H2 5735   8.146   0.131   4.036
 1932TIP3   OH2 5736   1.598   5.532   4.118
 1932TIP3    H1 5737   1.534   5.495   4.057
 1932TIP3    H2 5738   1.661   5.461   4.132
 1933TIP3   OH2 5739   4.094   4.804   4.142
 1933TIP3    H1 5740   4.168   4.743   4.143
 1933TIP3    H2 5741   4.133   4.890   4.155
 1934TIP3   OH2 5742   5.855   3.755   3.592
 1934TIP3    H1 5743   5.812   3.839   3.580
 1934TIP3    H2 5744   5.803   3.710   3.658
 1935TIP3   OH2 5745   6.266   0.461   5.789
 1935TIP3    H1 5746   6.273   0.522   5.863
 1935TIP3    H2 5747   6.314   0.504   5.718
 1936TIP3   OH2 5748   6.339   1.685   0.638
 1936TIP3    H1 5749   6.258   1.718   0.601
 1936TIP3    H2 5750   6.397   1.672   0.563
 1937TIP3   OH2 5751   7.439   6.023   3.043
 1937TIP3    H1 5752   7.401   6.036   3.130
 1937TIP3    H2 5753   7.531   6.005   3.060
 1938TIP3   OH2 5754   6.364   3.491   3.631
 1938TIP3    H1 5755   6.318   3.475   3.713
 1938TIP3    H2 5756   6.301   3.541   3.578
 1939TIP3   OH2 5757   3.679   1.419   2.166
 1939TIP3    H1 5758   3.754   1.361   2.165
 1939TIP3    H2 5759   3.709   1.498   2.211
 1940TIP3   OH2 5760   8.273   6.327   0.826
 1940TIP3    H1 5761   8.328   6.339   0.749
 1940TIP3    H2 5762   8.318   6.374   0.895
 1941TIP3   OH2 5763   2.336   4.101   1.891
 1941TIP3    H1 5764   2.321   4.024   1.946
 1941TIP3    H2 5765   2.340   4.067   1.802
 1942TIP3   OH2 5766   2.310   1.647   3.386
 1942TIP3    H1 5767   2.241   1.585   3.409
 1942TIP3    H2 5768   2.350   1.609   3.307
 1943TIP3   OH2 5769   7.659   1.497   2.012
 1943TIP3    H1 5770   7.692   1.560   1.948
 1943TIP3    H2 5771   7.649   1.416   1.962
 1944TIP3   OH2 5772   8.087   3.694   6.456
 1944TIP3    H1 5773   8.144   3.690   6.532
 1944TIP3    H2 5774   8.146   3.707   6.382
 1945TIP3   OH2 5775   1.115   6.533   0.516
 1945TIP3    H1 5776   1.036   6.479   0.525
 1945TIP3    H2 5777   1.116   6.588   0.594
 1946TIP3   OH2 5778   7.965   7.841   6.313
 1946TIP3    H1 5779   8.017   7.903   6.365
 1946TIP3    H2 5780   7.914   7.897   6.254
 1947TIP3   OH2 5781   0.911   6.059   2.179
 1947TIP3    H1 5782   0.934   6.013   2.098
 1947TIP3    H2 5783   0.921   6.152   2.157
 1948TIP3   OH2 5784   6.085   1.734   2.793
 1948TIP3    H1 5785   6.146   1.668   2.827
 1948TIP3    H2 5786   6.005   1.722   2.844
 1949TIP3   OH2 5787   3.568   2.045   5.446
 1949TIP3    H1 5788   3.581   2.111   5.377
 1949TIP3    H2 5789   3.552   2.096   5.525
 1950TIP3   OH2 5790   1.102   6.309   5.580
 1950TIP3    H1 5791   1.172   6.259   5.536
 1950TIP3    H2 5792   1.135   6.399   5.582
 1951TIP3   OH2 5793   1.767   5.432   1.193
 1951TIP3    H1 5794   1.684   5.474   1.214
 1951TIP3    H2 5795   1.828   5.505   1.181
 1952TIP3   OH2 5796   5.236   3.943   1.391
 1952TIP3    H1 5797   5.221   3.906   1.303
 1952TIP3    H2 5798   5.323   3.912   1.415
 1953TIP3   OH2 5799   3.313   3.415   6.617
 1953TIP3    H1 5800   3.259   3.336   6.616
 1953TIP3    H2 5801   3.391   3.391   6.667
 1954TIP3   OH2 5802   7.274   5.612   4.342
 1954TIP3    H1 5803   7.295   5.668   4.267
 1954TIP3    H2 5804   7.183   5.632   4.363
 1955TIP3   OH2 5805   1.759   2.516   6.610
 1955TIP3    H1 5806   1.732   2.603   6.639
 1955TIP3    H2 5807   1.765   2.524   6.514
 1956TIP3   OH2 5808   4.860   0.273   1.271
 1956TIP3    H1 5809   4.946   0.295   1.235
 1956TIP3    H2 5810   4.880   0.223   1.351
 1957TIP3   OH2 5811   4.627   0.099   5.380
 1957TIP3    H1 5812   4.571   0.027   5.410
 1957TIP3    H2 5813   4.617   0.099   5.285
 1958TIP3   OH2 5814   5.626   1.272   2.137
 1958TIP3    H1 5815   5.629   1.190   2.187
 1958TIP3    H2 5816   5.683   1.332   2.185
 1959TIP3   OH2 5817   3.808   0.169   1.926
 1959TIP3    H1 5818   3.876   0.235   1.936
 1959TIP3    H2 5819   3.855   0.086   1.919
 1960TIP3   OH2 5820   0.872   1.818   6.123
 1960TIP3    H1 5821   0.803   1.874   6.087
 1960TIP3    H2 5822   0.950   1.840   6.072
 1961TIP3   OH2 5823   7.988   1.503   4.144
 1961TIP3    H1 5824   8.071   1.550   4.145
 1961TIP3    H2 5825   7.927   1.563   4.101
 1962TIP3   OH2 5826   3.254   4.343   6.238
 1962TIP3    H1 5827   3.319   4.292   6.287
 1962TIP3    H2 5828   3.229   4.414   6.297
 1963TIP3   OH2 5829   1.107   7.643   1.774
 1963TIP3    H1 5830   1.129   7.593   1.852
 1963TIP3    H2 5831   1.019   7.613   1.750
 1964TIP3   OH2 5832   0.243   2.278   1.633
 1964TIP3    H1 5833   0.191   2.358   1.618
 1964TIP3    H2 5834   0.189   2.226   1.692
 1965TIP3   OH2 5835   4.658   6.986   3.420
 1965TIP3    H1 5836   4.636   6.924   3.490
 1965TIP3    H2 5837   4.574   7.003   3.377
 1966TIP3   OH2 5838   2.952   3.866   0.107
 1966TIP3    H1 5839   2.911   3.793   0.152
 1966TIP3    H2 5840   2.942   3.845   0.014
 1967TIP3   OH2 5841   6.072   2.811   2.534
 1967TIP3    H1 5842   6.013   2.886   2.533
 1967TIP3    H2 5843   6.080   2.788   2.626
 1968TIP3   OH2 5844   0.474   4.942   1.415
 1968TIP3    H1 5845   0.400   4.960   1.474
 1968TIP3    H2 5846   0.436   4.887   1.346
 1969TIP3   OH2 5847   6.465   4.522   5.999
 1969TIP3    H1 5848   6.383   4.568   6.018
 1969TIP3    H2 5849   6.439   4.449   5.943
 1970TIP3   OH2 5850   0.024   3.504   2.264
 1970TIP3    H1 5851   0.018   3.596   2.237
 1970TIP3    H2 5852   0.110   3.476   2.232
 1971TIP3   OH2 5853   5.956   4.623   5.776
 1971TIP3    H1 5854   5.947   4.630   5.871
 1971TIP3    H2 5855   5.867   4.633   5.742
 1972TIP3   OH2 5856   6.315   1.359   1.152
 1972TIP3    H1 5857   6.281   1.322   1.233
 1972TIP3    H2 5858   6.238   1.392   1.106
 1973TIP3   OH2 5859   3.681   1.998   6.542
 1973TIP3    H1 5860   3.679   2.039   6.629
 1973TIP3    H2 5861   3.639   1.913   6.555
 1974TIP3   OH2 5862   5.223   1.560   4.077
 1974TIP3    H1 5863   5.189   1.529   3.993
 1974TIP3    H2 5864   5.302   1.508   4.091
 1975TIP3   OH2 5865   2.956   1.230   1.417
 1975TIP3    H1 5866   2.901   1.166   1.371
 1975TIP3    H2 5867   2.996   1.281   1.347
 1976TIP3   OH2 5868   4.801   2.924   0.486
 1976TIP3    H1 5869   4.817   2.996   0.426
 1976TIP3    H2 5870   4.791   2.847   0.429
 1977TIP3   OH2 5871   1.354   4.490   4.927
 1977TIP3    H1 5872   1.295   4.558   4.896
 1977TIP3    H2 5873   1.307   4.449   5.000
 1978TIP3   OH2 5874   5.928   5.640   0.111
 1978TIP3    H1 5875   5.995   5.707   0.124
 1978TIP3    H2 5876   5.848   5.689   0.095
 1979TIP3   OH2 5877   1.747   6.083   1.565
 1979TIP3    H1 5878   1.790   6.053   1.485
 1979TIP3    H2 5879   1.680   6.144   1.535
 1980TIP3   OH2 5880   4.184   7.570   0.857
 1980TIP3    H1 5881   4.248   7.577   0.928
 1980TIP3    H2 5882   4.230   7.601   0.779
 1981TIP3   OH2 5883   7.134   5.619   4.685
 1981TIP3    H1 5884   7.208   5.678   4.699
 1981TIP3    H2 5885   7.094   5.651   4.604
 1982TIP3   OH2 5886   6.233   7.807   2.732
 1982TIP3    H1 5887   6.145   7.819   2.696
 1982TIP3    H2 5888   6.290   7.809   2.655
 1983TIP3   OH2 5889   2.501   4.335   1.891
 1983TIP3    H1 5890   2.450   4.254   1.887
 1983TIP3    H2 5891   2.465   4.390   1.821
 1984TIP3   OH2 5892   7.961   3.094   4.215
 1984TIP3    H1 5893   7.954   3.160   4.146
 1984TIP3    H2 5894   7.932   3.138   4.294
 1985TIP3   OH2 5895   0.310   7.803   1.778
 1985TIP3    H1 5896   0.217   7.792   1.758
 1985TIP3    H2 5897   0.354   7.798   1.694
 1986TIP3   OH2 5898   7.919   0.538   0.668
 1986TIP3    H1 5899   7.978   0.550   0.743
 1986TIP3    H2 5900   7.849   0.483   0.703
 1987TIP3   OH2 5901   3.098   0.509   0.914
 1987TIP3    H1 5902   3.179   0.492   0.866
 1987TIP3    H2 5903   3.034   0.531   0.847
 1988TIP3   OH2 5904   6.253   0.083   4.366
 1988TIP3    H1 5905   6.304   0.105   4.444
 1988TIP3    H2 5906   6.170   0.051   4.400
 1989TIP3   OH2 5907   1.898   5.321   2.922
 1989TIP3    H1 5908   1.813   5.278   2.929
 1989TIP3    H2 5909   1.926   5.305   2.832
 1990TIP3   OH2 5910   8.195   5.805   6.671
 1990TIP3    H1 5911   8.224   5.792   6.581
 1990TIP3    H2 5912   8.151   5.890   6.670
 1991TIP3   OH2 5913   1.363   3.456   0.861
 1991TIP3    H1 5914   1.384   3.369   0.826
 1991TIP3    H2 5915   1.423   3.515   0.815
 1992TIP3   OH2 5916   7.734   4.474   5.477
 1992TIP3    H1 5917   7.776   4.515   5.402
 1992TIP3    H2 5918   7.796   4.406   5.505
 1993TIP3   OH2 5919   7.491   1.737   3.603
 1993TIP3    H1 5920   7.490   1.771   3.692
 1993TIP3    H2 5921   7.583   1.746   3.576
 1994TIP3   OH2 5922   0.659   7.138   5.555
 1994TIP3    H1 5923   0.702   7.142   5.470
 1994TIP3    H2 5924   0.574   7.178   5.541
 1995TIP3   OH2 5925   2.085   0.371   1.630
 1995TIP3    H1 5926   2.115   0.441   1.573
 1995TIP3    H2 5927   2.154   0.363   1.696
 1996TIP3   OH2 5928   4.304   4.023   0.133
 1996TIP3    H1 5929   4.394   4.046   0.110
 1996TIP3    H2 5930   4.264   3.997   0.050
 1997TIP3   OH2 5931   7.193   6.270   3.153
 1997TIP3    H1 5932   7.276   6.225   3.171
 1997TIP3    H2 5933   7.126   6.205   3.174
 1998TIP3   OH2 5934   4.533   1.803   6.197
 1998TIP3    H1 5935   4.461   1.842   6.247
 1998TIP3    H2 5936   4.607   1.805   6.257
 1999TIP3   OH2 5937   7.529   4.062   1.887
 1999TIP3    H1 5938   7.565   4.134   1.940
 1999TIP3    H2 5939   7.436   4.084   1.877
 2000TIP3   OH2 5940   4.918   3.840   0.581
 2000TIP3    H1 5941   4.937   3.888   0.662
 2000TIP3    H2 5942   4.853   3.894   0.536
 2001TIP3   OH2 5943   7.005   0.196   2.748
 2001TIP3    H1 5944   6.956   0.138   2.690
 2001TIP3    H2 5945   6.998   0.156   2.835
 2002TIP3   OH2 5946   3.513   0.716   3.131
 2002TIP3    H1 5947   3.527   0.811   3.130
 2002TIP3    H2 5948   3.542   0.687   3.044
 2003TIP3   OH2 5949   8.114  -0.032   2.558
 2003TIP3    H1 5950   8.197   0.017   2.553
 2003TIP3    H2 5951   8.047   0.036   2.567
 2004TIP3   OH2 5952   6.379   2.831   5.972
 2004TIP3    H1 5953   6.474   2.839   5.976
 2004TIP3    H2 5954   6.347   2.909   6.017
 2005TIP3   OH2 5955   1.339   5.297   0.768
 2005TIP3    H1 5956   1.382   5.368   0.719
 2005TIP3    H2 5957   1.388   5.292   0.850
 2006TIP3   OH2 5958   2.464   1.322   2.819
 2006TIP3    H1 5959   2.493   1.291   2.905
 2006TIP3    H2 5960   2.369   1.321   2.823
 2007TIP3   OH2 5961   3.905   1.224   6.344
 2007TIP3    H1 5962   3.917   1.313   6.311
 2007TIP3    H2 5963   3.934   1.168   6.272
 2008TIP3   OH2 5964   1.461   7.559   0.119
 2008TIP3    H1 5965   1.412   7.609   0.184
 2008TIP3    H2 5966   1.552   7.582   0.134
 2009TIP3   OH2 5967   4.248   1.578   2.321
 2009TIP3    H1 5968   4.158   1.574   2.352
 2009TIP3    H2 5969   4.267   1.672   2.315
 2010TIP3   OH2 5970   2.603   2.039   2.699
 2010TIP3    H1 5971   2.549   2.085   2.764
 2010TIP3    H2 5972   2.544   1.972   2.663
 2011TIP3   OH2 5973   5.997   0.943   2.424
 2011TIP3    H1 5974   6.074   0.963   2.370
 2011TIP3    H2 5975   5.988   0.848   2.419
 2012TIP3   OH2 5976   1.908   2.784   6.360
 2012TIP3    H1 5977   1.980   2.785   6.423
 2012TIP3    H2 5978   1.884   2.691   6.354
 2013TIP3   OH2 5979   2.374   5.433   3.332
 2013TIP3    H1 5980   2.345   5.367   3.269
 2013TIP3    H2 5981   2.302   5.496   3.334
 2014TIP3   OH2 5982   5.250   0.261   6.207
 2014TIP3    H1 5983   5.265   0.169   6.185
 2014TIP3    H2 5984   5.235   0.260   6.302
 2015TIP3   OH2 5985   5.206   5.444   4.303
 2015TIP3    H1 5986   5.270   5.398   4.356
 2015TIP3    H2 5987   5.257   5.486   4.234
 2016TIP3   OH2 5988   3.049   3.722   0.623
 2016TIP3    H1 5989   2.995   3.675   0.560
 2016TIP3    H2 5990   3.091   3.791   0.571
 2017TIP3   OH2 5991   4.511   7.586   2.043
 2017TIP3    H1 5992   4.603   7.582   2.069
 2017TIP3    H2 5993   4.479   7.497   2.054
 2018TIP3   OH2 5994   2.079   2.873   0.857
 2018TIP3    H1 5995   2.094   2.839   0.769
 2018TIP3    H2 5996   2.062   2.967   0.844
 2019TIP3   OH2 5997   2.927   7.374   5.744
 2019TIP3    H1 5998   2.974   7.327   5.812
 2019TIP3    H2 5999   2.878   7.306   5.698
 2020TIP3   OH2 6000   4.269   1.132   6.182
 2020TIP3    H1 6001   4.344   1.165   6.133
 2020TIP3    H2 6002   4.307   1.087   6.258
 2021TIP3   OH2 6003   6.025   6.263   4.723
 2021TIP3    H1 6004   6.042   6.350   4.759
 2021TIP3    H2 6005   5.963   6.223   4.784
 2022TIP3   OH2 6006   0.150   2.847   4.635
 2022TIP3    H1 6007   0.164   2.925   4.581
 2022TIP3    H2 6008   0.160   2.878   4.725
 2023TIP3   OH2 6009   1.851   2.007   3.763
 2023TIP3    H1 6010   1.924   2.057   3.727
 2023TIP3    H2 6011   1.853   1.924   3.714
 2024TIP3   OH2 6012   1.516   3.754   1.220
 2024TIP3    H1 6013   1.531   3.788   1.309
 2024TIP3    H2 6014   1.487   3.830   1.170
 2025TIP3   OH2 6015   3.980   3.553   6.658
 2025TIP3    H1 6016   3.981   3.487   6.589
 2025TIP3    H2 6017   4.032   3.625   6.622
 2026TIP3   OH2 6018   4.726   0.097   1.900
 2026TIP3    H1 6019   4.655   0.035   1.882
 2026TIP3    H2 6020   4.787   0.086   1.827
 2027TIP3   OH2 6021   2.898   7.034   4.774
 2027TIP3    H1 6022   2.989   7.022   4.746
 2027TIP3    H2 6023   2.854   7.067   4.696
 2028TIP3   OH2 6024   7.385   1.406   2.831
 2028TIP3    H1 6025   7.480   1.417   2.827
 2028TIP3    H2 6026   7.372   1.339   2.899
 2029TIP3   OH2 6027   0.071   7.717   1.736
 2029TIP3    H1 6028   0.054   7.637   1.786
 2029TIP3    H2 6029   0.027   7.786   1.786
 2030TIP3   OH2 6030   5.170   1.686   0.342
 2030TIP3    H1 6031   5.239   1.622   0.361
 2030TIP3    H2 6032   5.163   1.686   0.246
 2031TIP3   OH2 6033   1.680   3.408   3.303
 2031TIP3    H1 6034   1.733   3.394   3.225
 2031TIP3    H2 6035   1.664   3.320   3.338
 2032TIP3   OH2 6036   4.375   5.956   3.066
 2032TIP3    H1 6037   4.317   5.919   3.132
 2032TIP3    H2 6038   4.425   6.023   3.112
 2033TIP3   OH2 6039   4.151   3.412   4.641
 2033TIP3    H1 6040   4.112   3.333   4.678
 2033TIP3    H2 6041   4.137   3.404   4.547
 2034TIP3   OH2 6042   4.943   0.218   3.426
 2034TIP3    H1 6043   5.024   0.261   3.399
 2034TIP3    H2 6044   4.959   0.125   3.413
 2035TIP3   OH2 6045   6.389   0.918   1.071
 2035TIP3    H1 6046   6.413   0.956   0.986
 2035TIP3    H2 6047   6.321   0.977   1.104
 2036TIP3   OH2 6048   0.672   0.864   5.503
 2036TIP3    H1 6049   0.611   0.892   5.571
 2036TIP3    H2 6050   0.718   0.788   5.540
 2037TIP3   OH2 6051   4.188   2.043   2.324
 2037TIP3    H1 6052   4.209   2.113   2.262
 2037TIP3    H2 6053   4.129   2.083   2.387
 2038TIP3   OH2 6054   7.701   6.301   5.340
 2038TIP3    H1 6055   7.630   6.346   5.388
 2038TIP3    H2 6056   7.659   6.222   5.305
 2039TIP3   OH2 6057   2.606   7.921   2.456
 2039TIP3    H1 6058   2.538   7.940   2.522
 2039TIP3    H2 6059   2.661   7.854   2.497
 2040TIP3   OH2 6060   0.535   5.019   2.113
 2040TIP3    H1 6061   0.459   5.044   2.167
 2040TIP3    H2 6062   0.500   5.015   2.024
 2041TIP3   OH2 6063   3.097   7.188   3.768
 2041TIP3    H1 6064   3.176   7.166   3.817
 2041TIP3    H2 6065   3.120   7.268   3.720
 2042TIP3   OH2 6066   0.716   4.842   1.399
 2042TIP3    H1 6067   0.733   4.922   1.348
 2042TIP3    H2 6068   0.634   4.861   1.445
 2043TIP3   OH2 6069   5.749   1.339   4.468
 2043TIP3    H1 6070   5.704   1.387   4.538
 2043TIP3    H2 6071   5.823   1.396   4.445
 2044TIP3   OH2 6072   4.915   4.784   6.257
 2044TIP3    H1 6073   4.842   4.791   6.319
 2044TIP3    H2 6074   4.893   4.847   6.188
 2045TIP3   OH2 6075   2.736   3.236   1.409
 2045TIP3    H1 6076   2.790   3.306   1.446
 2045TIP3    H2 6077   2.669   3.220   1.475
 2046TIP3   OH2 6078   6.491   5.483   4.505
 2046TIP3    H1 6079   6.456   5.567   4.475
 2046TIP3    H2 6080   6.452   5.471   4.591
 2047TIP3   OH2 6081   6.794   6.472   2.038
 2047TIP3    H1 6082   6.736   6.421   1.982
 2047TIP3    H2 6083   6.745   6.552   2.058
 2048TIP3   OH2 6084   0.036   3.439   5.488
 2048TIP3    H1 6085   0.126   3.443   5.522
 2048TIP3    H2 6086   0.036   3.498   5.413
 2049TIP3   OH2 6087   3.806   5.484   0.706
 2049TIP3    H1 6088   3.886   5.486   0.654
 2049TIP3    H2 6089   3.764   5.569   0.688
 2050TIP3   OH2 6090   2.374   2.327   5.704
 2050TIP3    H1 6091   2.361   2.405   5.650
 2050TIP3    H2 6092   2.385   2.361   5.793
 2051TIP3   OH2 6093   0.090   7.909   2.796
 2051TIP3    H1 6094   0.068   7.855   2.720
 2051TIP3    H2 6095   0.184   7.923   2.790
 2052TIP3   OH2 6096   4.886   1.064   1.913
 2052TIP3    H1 6097   4.971   1.062   1.869
 2052TIP3    H2 6098   4.889   0.988   1.972
 2053TIP3   OH2 6099   1.470   2.547   5.301
 2053TIP3    H1 6100   1.442   2.635   5.326
 2053TIP3    H2 6101   1.407   2.519   5.235
 2054TIP3   OH2 6102   7.225   1.507   5.844
 2054TIP3    H1 6103   7.269   1.487   5.762
 2054TIP3    H2 6104   7.272   1.456   5.910
 2055TIP3   OH2 6105   2.200   2.654   0.681
 2055TIP3    H1 6106   2.214   2.701   0.598
 2055TIP3    H2 6107   2.168   2.568   0.654
 2056TIP3   OH2 6108   6.371   6.215   5.841
 2056TIP3    H1 6109   6.402   6.200   5.752
 2056TIP3    H2 6110   6.435   6.170   5.897
 2057TIP3   OH2 6111   4.052   6.856   5.456
 2057TIP3    H1 6112   4.127   6.903   5.492
 2057TIP3    H2 6113   4.055   6.770   5.498
 2058TIP3   OH2 6114   8.419   4.007   2.682
 2058TIP3    H1 6115   8.422   3.921   2.639
 2058TIP3    H2 6116   8.342   4.003   2.738
 2059TIP3   OH2 6117   0.790   4.875   0.352
 2059TIP3    H1 6118   0.835   4.956   0.379
 2059TIP3    H2 6119   0.801   4.816   0.427
 2060TIP3   OH2 6120   8.285   3.749   2.789
 2060TIP3    H1 6121   8.371   3.749   2.831
 2060TIP3    H2 6122   8.276   3.661   2.753
 2061TIP3   OH2 6123   4.076   0.692   6.295
 2061TIP3    H1 6124   4.136   0.661   6.228
 2061TIP3    H2 6125   3.989   0.688   6.254
 2062TIP3   OH2 6126   4.066   4.704   6.396
 2062TIP3    H1 6127   3.972   4.716   6.399
 2062TIP3    H2 6128   4.093   4.702   6.488
 2063TIP3   OH2 6129   6.486  -0.001   3.529
 2063TIP3    H1 6130   6.561  -0.046   3.567
 2063TIP3    H2 6131   6.523   0.074   3.483
 2064TIP3   OH2 6132   6.296   2.834   2.150
 2064TIP3    H1 6133   6.345   2.769   2.101
 2064TIP3    H2 6134   6.336   2.918   2.126
 2065TIP3   OH2 6135   4.919   5.309   1.589
 2065TIP3    H1 6136   4.919   5.219   1.555
 2065TIP3    H2 6137   4.950   5.362   1.515
 2066TIP3   OH2 6138   0.256   5.002   1.656
 2066TIP3    H1 6139   0.170   4.964   1.671
 2066TIP3    H2 6140   0.243   5.064   1.584
 2067TIP3   OH2 6141   3.222   1.697   2.032
 2067TIP3    H1 6142   3.248   1.746   2.110
 2067TIP3    H2 6143   3.247   1.606   2.051
 2068TIP3   OH2 6144   1.413   4.277   5.653
 2068TIP3    H1 6145   1.417   4.277   5.748
 2068TIP3    H2 6146   1.375   4.362   5.630
 2069TIP3   OH2 6147   4.470   3.410   1.956
 2069TIP3    H1 6148   4.552   3.459   1.954
 2069TIP3    H2 6149   4.495   3.319   1.939
 2070TIP3   OH2 6150   5.727   6.069   3.640
 2070TIP3    H1 6151   5.692   5.980   3.642
 2070TIP3    H2 6152   5.677   6.112   3.569
 2071TIP3   OH2 6153   2.725   1.556   3.607
 2071TIP3    H1 6154   2.736   1.630   3.547
 2071TIP3    H2 6155   2.722   1.480   3.549
 2072TIP3   OH2 6156   5.093   7.250   1.719
 2072TIP3    H1 6157   5.110   7.267   1.626
 2072TIP3    H2 6158   5.176   7.269   1.762
 2073TIP3   OH2 6159   3.635   1.688   5.791
 2073TIP3    H1 6160   3.722   1.709   5.758
 2073TIP3    H2 6161   3.636   1.718   5.882
 2074TIP3   OH2 6162   0.359   0.886   1.023
 2074TIP3    H1 6163   0.310   0.933   0.955
 2074TIP3    H2 6164   0.314   0.909   1.104
 2075TIP3   OH2 6165   8.029   1.640   0.391
 2075TIP3    H1 6166   8.092   1.710   0.376
 2075TIP3    H2 6167   7.982   1.633   0.307
 2076TIP3   OH2 6168   2.610   5.220   5.426
 2076TIP3    H1 6169   2.561   5.266   5.358
 2076TIP3    H2 6170   2.546   5.206   5.496
 2077TIP3   OH2 6171   4.255   0.603   3.394
 2077TIP3    H1 6172   4.280   0.576   3.305
 2077TIP3    H2 6173   4.318   0.559   3.451
 2078TIP3   OH2 6174   7.477   4.230   0.970
 2078TIP3    H1 6175   7.502   4.163   1.033
 2078TIP3    H2 6176   7.555   4.285   0.961
 2079TIP3   OH2 6177   6.885   5.681   5.071
 2079TIP3    H1 6178   6.856   5.709   4.984
 2079TIP3    H2 6179   6.954   5.617   5.054
 2080TIP3   OH2 6180   4.805   0.178   4.347
 2080TIP3    H1 6181   4.869   0.117   4.310
 2080TIP3    H2 6182   4.767   0.131   4.421
 2081TIP3   OH2 6183   6.300   7.414   4.801
 2081TIP3    H1 6184   6.312   7.490   4.857
 2081TIP3    H2 6185   6.206   7.410   4.784
 2082TIP3   OH2 6186   1.217   3.848   1.485
 2082TIP3    H1 6187   1.232   3.942   1.471
 2082TIP3    H2 6188   1.129   3.832   1.451
 2083TIP3   OH2 6189   4.748   5.554   1.736
 2083TIP3    H1 6190   4.734   5.479   1.678
 2083TIP3    H2 6191   4.695   5.624   1.699
 2084TIP3   OH2 6192   0.441   4.687   5.558
 2084TIP3    H1 6193   0.501   4.732   5.617
 2084TIP3    H2 6194   0.420   4.605   5.602
 2085TIP3   OH2 6195   1.318   4.485   2.170
 2085TIP3    H1 6196   1.387   4.430   2.207
 2085TIP3    H2 6197   1.360   4.530   2.097
 2086TIP3   OH2 6198   1.757   5.474   0.874
 2086TIP3    H1 6199   1.833   5.513   0.917
 2086TIP3    H2 6200   1.682   5.510   0.919
 2087TIP3   OH2 6201   1.169   3.361   2.781
 2087TIP3    H1 6202   1.095   3.310   2.814
 2087TIP3    H2 6203   1.242   3.299   2.783
 2088TIP3   OH2 6204   2.397   5.073   2.145
 2088TIP3    H1 6205   2.434   5.140   2.202
 2088TIP3    H2 6206   2.452   4.996   2.159
 2089TIP3   OH2 6207   2.791   7.529   2.163
 2089TIP3    H1 6208   2.799   7.623   2.179
 2089TIP3    H2 6209   2.800   7.489   2.250
 2090TIP3   OH2 6210   7.077   5.366   6.330
 2090TIP3    H1 6211   6.986   5.383   6.306
 2090TIP3    H2 6212   7.123   5.357   6.246
 2091TIP3   OH2 6213   1.863   1.981   0.908
 2091TIP3    H1 6214   1.813   2.046   0.956
 2091TIP3    H2 6215   1.799   1.914   0.884
 2092TIP3   OH2 6216   3.124   0.650   4.626
 2092TIP3    H1 6217   3.131   0.643   4.531
 2092TIP3    H2 6218   3.206   0.613   4.659
 2093TIP3   OH2 6219   3.063   4.356   2.652
 2093TIP3    H1 6220   2.990   4.375   2.710
 2093TIP3    H2 6221   3.140   4.356   2.709
 2094TIP3   OH2 6222   4.006   6.990   2.874
 2094TIP3    H1 6223   3.988   7.033   2.957
 2094TIP3    H2 6224   3.945   6.916   2.871
 2095TIP3   OH2 6225   7.413   1.543   1.664
 2095TIP3    H1 6226   7.451   1.538   1.576
 2095TIP3    H2 6227   7.391   1.635   1.676
 2096TIP3   OH2 6228   8.340   5.325   1.944
 2096TIP3    H1 6229   8.256   5.327   1.990
 2096TIP3    H2 6230   8.382   5.245   1.975
 2097TIP3   OH2 6231   8.125   2.275   6.254
 2097TIP3    H1 6232   8.125   2.281   6.159
 2097TIP3    H2 6233   8.049   2.220   6.275
 2098TIP3   OH2 6234   6.842   1.215   0.241
 2098TIP3    H1 6235   6.849   1.297   0.192
 2098TIP3    H2 6236   6.924   1.169   0.222
 2099TIP3   OH2 6237   4.678   4.049   1.049
 2099TIP3    H1 6238   4.760   4.025   1.092
 2099TIP3    H2 6239   4.610   4.029   1.114
 2100TIP3   OH2 6240   4.337   1.610   6.470
 2100TIP3    H1 6241   4.419   1.572   6.439
 2100TIP3    H2 6242   4.358   1.702   6.488
 2101TIP3   OH2 6243   1.680   0.912   5.167
 2101TIP3    H1 6244   1.602   0.856   5.179
 2101TIP3    H2 6245   1.753   0.851   5.168
 2102TIP3   OH2 6246   2.108   3.700   2.806
 2102TIP3    H1 6247   2.104   3.725   2.714
 2102TIP3    H2 6248   2.022   3.723   2.841
 2103TIP3   OH2 6249   2.486   4.685   0.884
 2103TIP3    H1 6250   2.520   4.771   0.858
 2103TIP3    H2 6251   2.406   4.674   0.834
 2104TIP3   OH2 6252   2.725   2.804   2.242
 2104TIP3    H1 6253   2.774   2.847   2.311
 2104TIP3    H2 6254   2.791   2.757   2.191
 2105TIP3   OH2 6255   7.351   3.778   0.674
 2105TIP3    H1 6256   7.276   3.792   0.616
 2105TIP3    H2 6257   7.313   3.735   0.751
 2106TIP3   OH2 6258   1.812   3.766   0.667
 2106TIP3    H1 6259   1.907   3.757   0.675
 2106TIP3    H2 6260   1.781   3.676   0.652
 2107TIP3   OH2 6261   5.956   6.353   5.211
 2107TIP3    H1 6262   5.977   6.422   5.273
 2107TIP3    H2 6263   6.040   6.326   5.174
 2108TIP3   OH2 6264   3.548   4.145   5.640
 2108TIP3    H1 6265   3.457   4.166   5.663
 2108TIP3    H2 6266   3.556   4.052   5.660
 2109TIP3   OH2 6267   5.567   0.992   6.270
 2109TIP3    H1 6268   5.551   0.947   6.354
 2109TIP3    H2 6269   5.649   0.955   6.239
 2110TIP3   OH2 6270   2.500   4.144   5.772
 2110TIP3    H1 6271   2.567   4.154   5.840
 2110TIP3    H2 6272   2.417   4.148   5.820
 2111TIP3   OH2 6273   4.283   6.312   4.244
 2111TIP3    H1 6274   4.318   6.400   4.247
 2111TIP3    H2 6275   4.190   6.322   4.266
 2112TIP3   OH2 6276   5.370   6.747   0.203
 2112TIP3    H1 6277   5.358   6.759   0.109
 2112TIP3    H2 6278   5.452   6.792   0.223
 2113TIP3   OH2 6279   6.914   0.604   6.849
 2113TIP3    H1 6280   6.840   0.599   6.787
 2113TIP3    H2 6281   6.984   0.555   6.807
 2114TIP3   OH2 6282   0.993   4.941   0.691
 2114TIP3    H1 6283   0.908   4.902   0.709
 2114TIP3    H2 6284   1.046   4.868   0.659
 2115TIP3   OH2 6285   8.280   2.507   5.267
 2115TIP3    H1 6286   8.324   2.538   5.346
 2115TIP3    H2 6287   8.187   2.525   5.283
 2116TIP3   OH2 6288   0.484   0.796   4.676
 2116TIP3    H1 6289   0.512   0.813   4.766
 2116TIP3    H2 6290   0.440   0.711   4.680
 2117TIP3   OH2 6291   7.923   3.331   2.737
 2117TIP3    H1 6292   7.887   3.272   2.804
 2117TIP3    H2 6293   7.888   3.417   2.761
 2118TIP3   OH2 6294   2.786   2.959   3.502
 2118TIP3    H1 6295   2.780   2.938   3.409
 2118TIP3    H2 6296   2.855   2.901   3.535
 2119TIP3   OH2 6297   5.489   4.776   0.024
 2119TIP3    H1 6298   5.463   4.818   0.106
 2119TIP3    H2 6299   5.425   4.706   0.012
 2120TIP3   OH2 6300   5.724   6.335   4.593
 2120TIP3    H1 6301   5.727   6.301   4.682
 2120TIP3    H2 6302   5.632   6.356   4.578
 2121TIP3   OH2 6303   1.079   3.399   6.720
 2121TIP3    H1 6304   0.989   3.391   6.689
 2121TIP3    H2 6305   1.076   3.473   6.781
 2122TIP3   OH2 6306   5.163   3.423   0.464
 2122TIP3    H1 6307   5.256   3.403   0.475
 2122TIP3    H2 6308   5.141   3.478   0.539
 2123TIP3   OH2 6309   6.121   6.649   6.501
 2123TIP3    H1 6310   6.182   6.638   6.574
 2123TIP3    H2 6311   6.046   6.594   6.524
 2124TIP3   OH2 6312   1.220   7.673   3.874
 2124TIP3    H1 6313   1.299   7.720   3.900
 2124TIP3    H2 6314   1.156   7.742   3.855
 2125TIP3   OH2 6315   3.878   1.561   0.683
 2125TIP3    H1 6316   3.860   1.503   0.609
 2125TIP3    H2 6317   3.797   1.562   0.734
 2126TIP3   OH2 6318   3.008   5.157   0.868
 2126TIP3    H1 6319   3.061   5.179   0.944
 2126TIP3    H2 6320   3.041   5.215   0.799
 2127TIP3   OH2 6321   0.105   3.673   4.366
 2127TIP3    H1 6322   0.071   3.589   4.336
 2127TIP3    H2 6323   0.146   3.653   4.450
 2128TIP3   OH2 6324   3.498   7.377   2.350
 2128TIP3    H1 6325   3.544   7.437   2.410
 2128TIP3    H2 6326   3.411   7.366   2.390
 2129TIP3   OH2 6327   2.716   4.537   0.919
 2129TIP3    H1 6328   2.753   4.570   1.000
 2129TIP3    H2 6329   2.638   4.591   0.904
 2130TIP3   OH2 6330   2.845   3.825   1.921
 2130TIP3    H1 6331   2.840   3.857   2.011
 2130TIP3    H2 6332   2.762   3.849   1.881
 2131TIP3   OH2 6333   6.688   2.885   2.481
 2131TIP3    H1 6334   6.671   2.793   2.503
 2131TIP3    H2 6335   6.643   2.935   2.549
 2132TIP3   OH2 6336   0.575   1.341   6.496
 2132TIP3    H1 6337   0.525   1.267   6.463
 2132TIP3    H2 6338   0.533   1.363   6.579
 2133TIP3   OH2 6339   6.101   0.363   3.597
 2133TIP3    H1 6340   6.179   0.318   3.631
 2133TIP3    H2 6341   6.055   0.394   3.675
 2134TIP3   OH2 6342   0.231   3.109   2.251
 2134TIP3    H1 6343   0.284   3.154   2.317
 2134TIP3    H2 6344   0.289   3.102   2.175
 2135TIP3   OH2 6345   8.059   7.928   5.964
 2135TIP3    H1 6346   7.977   7.885   5.984
 2135TIP3    H2 6347   8.042   8.021   5.978
 2136TIP3   OH2 6348   4.055   2.780   4.522
 2136TIP3    H1 6349   3.962   2.797   4.537
 2136TIP3    H2 6350   4.056   2.697   4.474
 2137TIP3   OH2 6351   3.705   6.520   1.410
 2137TIP3    H1 6352   3.699   6.583   1.338
 2137TIP3    H2 6353   3.721   6.436   1.367
 2138TIP3   OH2 6354   4.242   5.551   1.947
 2138TIP3    H1 6355   4.234   5.531   2.040
 2138TIP3    H2 6356   4.265   5.466   1.907
 2139TIP3   OH2 6357   7.858   6.193   5.859
 2139TIP3    H1 6358   7.906   6.115   5.832
 2139TIP3    H2 6359   7.766   6.169   5.849
 2140TIP3   OH2 6360   2.250   4.626   5.652
 2140TIP3    H1 6361   2.185   4.556   5.660
 2140TIP3    H2 6362   2.281   4.641   5.741
 2141TIP3   OH2 6363   0.986   0.457   5.045
 2141TIP3    H1 6364   1.012   0.472   4.954
 2141TIP3    H2 6365   1.057   0.404   5.082
 2142TIP3   OH2 6366   7.607   5.199   2.634
 2142TIP3    H1 6367   7.538   5.141   2.666
 2142TIP3    H2 6368   7.685   5.144   2.629
 2143TIP3   OH2 6369   7.906   4.372   2.142
 2143TIP3    H1 6370   7.927   4.288   2.101
 2143TIP3    H2 6371   7.966   4.434   2.101
 2144TIP3   OH2 6372   3.396   5.453   1.118
 2144TIP3    H1 6373   3.472   5.401   1.091
 2144TIP3    H2 6374   3.434   5.531   1.158
 2145TIP3   OH2 6375   4.039   1.028   3.492
 2145TIP3    H1 6376   4.062   0.938   3.467
 2145TIP3    H2 6377   4.088   1.044   3.572
 2146TIP3   OH2 6378   7.215   0.672   2.931
 2146TIP3    H1 6379   7.311   0.665   2.926
 2146TIP3    H2 6380   7.199   0.736   2.999
 2147TIP3   OH2 6381   5.695   0.567   3.928
 2147TIP3    H1 6382   5.762   0.629   3.956
 2147TIP3    H2 6383   5.616   0.621   3.916
 2148TIP3   OH2 6384   6.725   2.250   4.356
 2148TIP3    H1 6385   6.815   2.274   4.378
 2148TIP3    H2 6386   6.729   2.226   4.263
 2149TIP3   OH2 6387   0.007   7.645   3.683
 2149TIP3    H1 6388   0.033   7.637   3.775
 2149TIP3    H2 6389   0.009   7.739   3.666
 2150TIP3   OH2 6390   5.082   4.108   6.357
 2150TIP3    H1 6391   4.993   4.100   6.323
 2150TIP3    H2 6392   5.072   4.152   6.442
 2151TIP3   OH2 6393   1.165   4.759   1.453
 2151TIP3    H1 6394   1.161   4.849   1.421
 2151TIP3    H2 6395   1.074   4.730   1.454
 2152TIP3   OH2 6396   4.339   1.088   1.857
 2152TIP3    H1 6397   4.419   1.073   1.908
 2152TIP3    H2 6398   4.371   1.096   1.767
 2153TIP3   OH2 6399   3.633   2.585   3.985
 2153TIP3    H1 6400   3.619   2.632   3.903
 2153TIP3    H2 6401   3.545   2.580   4.025
 2154TIP3   OH2 6402   0.252   5.223   6.450
 2154TIP3    H1 6403   0.159   5.200   6.455
 2154TIP3    H2 6404   0.281   5.189   6.365
 2155TIP3   OH2 6405   5.314   0.815   6.159
 2155TIP3    H1 6406   5.390   0.769   6.195
 2155TIP3    H2 6407   5.263   0.747   6.116
 2156TIP3   OH2 6408   7.694   5.901   1.898
 2156TIP3    H1 6409   7.627   5.889   1.830
 2156TIP3    H2 6410   7.648   5.884   1.980
 2157TIP3   OH2 6411   0.288   6.037   6.623
 2157TIP3    H1 6412   0.326   5.954   6.651
 2157TIP3    H2 6413   0.203   6.013   6.586
 2158TIP3   OH2 6414   1.926   1.656   5.752
 2158TIP3    H1 6415   1.929   1.751   5.763
 2158TIP3    H2 6416   2.007   1.635   5.705
 2159TIP3   OH2 6417   7.066   3.934   3.474
 2159TIP3    H1 6418   7.005   3.861   3.462
 2159TIP3    H2 6419   7.077   3.971   3.387
 2160TIP3   OH2 6420   2.078   6.087   6.430
 2160TIP3    H1 6421   2.155   6.141   6.411
 2160TIP3    H2 6422   2.022   6.142   6.485
 2161TIP3   OH2 6423   7.017   2.189   4.100
 2161TIP3    H1 6424   7.059   2.266   4.138
 2161TIP3    H2 6425   6.924   2.214   4.093
 2162TIP3   OH2 6426   5.107   0.804   6.579
 2162TIP3    H1 6427   5.099   0.830   6.487
 2162TIP3    H2 6428   5.109   0.886   6.628
 2163TIP3   OH2 6429   0.618   7.059   6.127
 2163TIP3    H1 6430   0.573   7.003   6.064
 2163TIP3    H2 6431   0.699   7.084   6.083
 2164TIP3   OH2 6432   6.876   4.372   3.919
 2164TIP3    H1 6433   6.870   4.286   3.962
 2164TIP3    H2 6434   6.940   4.420   3.972
 2165TIP3   OH2 6435   4.346   7.437   6.037
 2165TIP3    H1 6436   4.419   7.377   6.023
 2165TIP3    H2 6437   4.386   7.524   6.036
 2166TIP3   OH2 6438   3.983   7.345   4.092
 2166TIP3    H1 6439   3.987   7.249   4.096
 2166TIP3    H2 6440   4.073   7.373   4.102
 2167TIP3   OH2 6441   8.005   2.123   4.947
 2167TIP3    H1 6442   7.965   2.206   4.921
 2167TIP3    H2 6443   7.962   2.101   5.030
 2168TIP3   OH2 6444   6.932   0.605   3.555
 2168TIP3    H1 6445   6.894   0.633   3.639
 2168TIP3    H2 6446   6.986   0.678   3.528
 2169TIP3   OH2 6447   6.650   6.973   5.607
 2169TIP3    H1 6448   6.603   6.953   5.526
 2169TIP3    H2 6449   6.627   6.902   5.667
 2170TIP3   OH2 6450   7.032   2.717   0.331
 2170TIP3    H1 6451   6.952   2.747   0.287
 2170TIP3    H2 6452   7.046   2.629   0.296
 2171TIP3   OH2 6453   0.910   7.347   6.493
 2171TIP3    H1 6454   0.833   7.402   6.509
 2171TIP3    H2 6455   0.876   7.259   6.482
 2172TIP3   OH2 6456   3.529   3.580   2.728
 2172TIP3    H1 6457   3.547   3.507   2.787
 2172TIP3    H2 6458   3.441   3.563   2.694
 2173TIP3   OH2 6459   6.944   5.416   1.958
 2173TIP3    H1 6460   6.968   5.404   2.050
 2173TIP3    H2 6461   6.851   5.395   1.955
 2174TIP3   OH2 6462   7.503   0.854   3.727
 2174TIP3    H1 6463   7.544   0.779   3.770
 2174TIP3    H2 6464   7.449   0.894   3.795
 2175TIP3   OH2 6465   6.496   3.669   0.866
 2175TIP3    H1 6466   6.433   3.620   0.919
 2175TIP3    H2 6467   6.531   3.735   0.926
 2176TIP3   OH2 6468   1.411   1.907   6.501
 2176TIP3    H1 6469   1.432   1.980   6.558
 2176TIP3    H2 6470   1.367   1.844   6.558
 2177TIP3   OH2 6471   4.051   1.993   5.135
 2177TIP3    H1 6472   3.997   1.992   5.215
 2177TIP3    H2 6473   3.996   2.036   5.070
 2178TIP3   OH2 6474   7.268   0.256   5.272
 2178TIP3    H1 6475   7.277   0.343   5.311
 2178TIP3    H2 6476   7.296   0.196   5.341
 2179TIP3   OH2 6477   4.094   2.889   0.983
 2179TIP3    H1 6478   4.169   2.894   1.043
 2179TIP3    H2 6479   4.133   2.878   0.897
 2180TIP3   OH2 6480   0.758   4.985   2.281
 2180TIP3    H1 6481   0.673   4.990   2.237
 2180TIP3    H2 6482   0.811   4.928   2.226
 2181TIP3   OH2 6483   5.526   5.661   0.326
 2181TIP3    H1 6484   5.621   5.657   0.327
 2181TIP3    H2 6485   5.498   5.570   0.316
 2182TIP3   OH2 6486   0.366   0.717   1.673
 2182TIP3    H1 6487   0.443   0.721   1.729
 2182TIP3    H2 6488   0.399   0.688   1.588
 2183TIP3   OH2 6489   8.377   4.554   1.450
 2183TIP3    H1 6490   8.291   4.527   1.417
 2183TIP3    H2 6491   8.393   4.496   1.525
 2184TIP3   OH2 6492   0.914   3.165   1.720
 2184TIP3    H1 6493   0.889   3.167   1.812
 2184TIP3    H2 6494   0.990   3.106   1.717
 2185TIP3   OH2 6495   5.637   7.314   2.169
 2185TIP3    H1 6496   5.595   7.285   2.088
 2185TIP3    H2 6497   5.726   7.278   2.164
 2186TIP3   OH2 6498   4.759   1.630   0.702
 2186TIP3    H1 6499   4.780   1.584   0.620
 2186TIP3    H2 6500   4.811   1.710   0.698
 2187TIP3   OH2 6501   2.688   4.582   3.977
 2187TIP3    H1 6502   2.756   4.555   4.038
 2187TIP3    H2 6503   2.606   4.575   4.026
 2188TIP3   OH2 6504   2.120   1.248   5.837
 2188TIP3    H1 6505   2.173   1.251   5.916
 2188TIP3    H2 6506   2.054   1.317   5.849
 2189TIP3   OH2 6507   3.931   1.958   2.563
 2189TIP3    H1 6508   4.022   1.974   2.587
 2189TIP3    H2 6509   3.895   2.045   2.545
 2190TIP3   OH2 6510   1.606   4.500   3.904
 2190TIP3    H1 6511   1.595   4.426   3.844
 2190TIP3    H2 6512   1.647   4.462   3.982
 2191TIP3   OH2 6513   0.946   5.602   1.706
 2191TIP3    H1 6514   0.859   5.632   1.678
 2191TIP3    H2 6515   0.968   5.533   1.644
 2192TIP3   OH2 6516   4.046   0.797   3.333
 2192TIP3    H1 6517   4.107   0.739   3.378
 2192TIP3    H2 6518   3.972   0.740   3.309
 2193TIP3   OH2 6519   4.333   5.159   5.815
 2193TIP3    H1 6520   4.262   5.104   5.783
 2193TIP3    H2 6521   4.312   5.175   5.907
 2194TIP3   OH2 6522   6.497   1.898   5.062
 2194TIP3    H1 6523   6.447   1.879   4.983
 2194TIP3    H2 6524   6.536   1.814   5.087
 2195TIP3   OH2 6525   4.380   5.578   0.919
 2195TIP3    H1 6526   4.414   5.659   0.882
 2195TIP3    H2 6527   4.323   5.543   0.850
 2196TIP3   OH2 6528   4.434   2.652   4.479
 2196TIP3    H1 6529   4.350   2.645   4.434
 2196TIP3    H2 6530   4.498   2.618   4.417
 2197TIP3   OH2 6531   3.307   0.628   1.390
 2197TIP3    H1 6532   3.376   0.591   1.445
 2197TIP3    H2 6533   3.346   0.704   1.349
 2198TIP3   OH2 6534   4.391   2.863   1.326
 2198TIP3    H1 6535   4.416   2.802   1.396
 2198TIP3    H2 6536   4.361   2.806   1.255
 2199TIP3   OH2 6537   7.263   0.765   4.913
 2199TIP3    H1 6538   7.318   0.782   4.989
 2199TIP3    H2 6539   7.178   0.801   4.937
 2200TIP3   OH2 6540   3.238   7.197   5.145
 2200TIP3    H1 6541   3.208   7.209   5.235
 2200TIP3    H2 6542   3.158   7.184   5.095
 2201TIP3   OH2 6543   4.656   7.825   1.408
 2201TIP3    H1 6544   4.562   7.838   1.401
 2201TIP3    H2 6545   4.681   7.781   1.327
 2202TIP3   OH2 6546   8.099   5.411   2.443
 2202TIP3    H1 6547   8.016   5.457   2.433
 2202TIP3    H2 6548   8.075   5.327   2.483
 2203TIP3   OH2 6549   6.000   6.257   0.277
 2203TIP3    H1 6550   5.964   6.298   0.356
 2203TIP3    H2 6551   5.977   6.318   0.206
 2204TIP3   OH2 6552   6.997   7.548   6.207
 2204TIP3    H1 6553   6.948   7.617   6.163
 2204TIP3    H2 6554   7.061   7.519   6.142
 2205TIP3   OH2 6555   6.053   4.266   0.110
 2205TIP3    H1 6556   6.128   4.215   0.080
 2205TIP3    H2 6557   6.036   4.234   0.198
 2206TIP3   OH2 6558   5.547   7.236   2.417
 2206TIP3    H1 6559   5.582   7.249   2.329
 2206TIP3    H2 6560   5.575   7.314   2.466
 2207TIP3   OH2 6561   7.534   7.808   0.948
 2207TIP3    H1 6562   7.578   7.876   0.897
 2207TIP3    H2 6563   7.559   7.825   1.038
 2208TIP3   OH2 6564   0.061   3.428   4.291
 2208TIP3    H1 6565  -0.007   3.407   4.226
 2208TIP3    H2 6566   0.081   3.343   4.332
 2209TIP3   OH2 6567   6.097   4.373   4.485
 2209TIP3    H1 6568   6.066   4.392   4.397
 2209TIP3    H2 6569   6.175   4.428   4.497
 2210TIP3   OH2 6570   8.137   0.653   6.583
 2210TIP3    H1 6571   8.078   0.632   6.656
 2210TIP3    H2 6572   8.108   0.739   6.553
 2211TIP3   OH2 6573   1.243   4.722   6.385
 2211TIP3    H1 6574   1.188   4.695   6.312
 2211TIP3    H2 6575   1.221   4.662   6.456
 2212TIP3   OH2 6576   2.887   2.705   5.281
 2212TIP3    H1 6577   2.825   2.676   5.214
 2212TIP3    H2 6578   2.973   2.677   5.248
 2213TIP3   OH2 6579   3.775   2.425   6.619
 2213TIP3    H1 6580   3.777   2.409   6.713
 2213TIP3    H2 6581   3.685   2.406   6.593
 2214TIP3   OH2 6582   2.408   5.711   5.016
 2214TIP3    H1 6583   2.339   5.646   5.028
 2214TIP3    H2 6584   2.361   5.793   5.005
 2215TIP3   OH2 6585   0.417   5.885   4.724
 2215TIP3    H1 6586   0.467   5.822   4.775
 2215TIP3    H2 6587   0.455   5.880   4.636
 2216TIP3   OH2 6588   4.261   3.272   1.185
 2216TIP3    H1 6589   4.241   3.189   1.228
 2216TIP3    H2 6590   4.356   3.270   1.173
 2217TIP3   OH2 6591   5.297   7.321   1.891
 2217TIP3    H1 6592   5.359   7.249   1.888
 2217TIP3    H2 6593   5.348   7.396   1.923
 2218TIP3   OH2 6594   3.175   4.464   6.616
 2218TIP3    H1 6595   3.197   4.551   6.648
 2218TIP3    H2 6596   3.251   4.410   6.639
 2219TIP3   OH2 6597   0.940   4.042   0.896
 2219TIP3    H1 6598   0.934   4.002   0.983
 2219TIP3    H2 6599   1.019   4.095   0.900
 2220TIP3   OH2 6600   7.963   7.131   3.515
 2220TIP3    H1 6601   7.915   7.186   3.452
 2220TIP3    H2 6602   8.053   7.163   3.510
 2221TIP3   OH2 6603   5.457   4.694   3.228
 2221TIP3    H1 6604   5.504   4.615   3.254
 2221TIP3    H2 6605   5.420   4.727   3.310
 2222TIP3   OH2 6606   0.616   6.313   3.401
 2222TIP3    H1 6607   0.574   6.238   3.443
 2222TIP3    H2 6608   0.710   6.294   3.406
 2223TIP3   OH2 6609   1.031   7.417   5.632
 2223TIP3    H1 6610   1.065   7.347   5.577
 2223TIP3    H2 6611   1.082   7.412   5.713
 2224TIP3   OH2 6612   0.846   5.920   0.697
 2224TIP3    H1 6613   0.782   5.858   0.732
 2224TIP3    H2 6614   0.894   5.870   0.631
 2225TIP3   OH2 6615   7.430   4.205   4.015
 2225TIP3    H1 6616   7.423   4.211   4.110
 2225TIP3    H2 6617   7.390   4.122   3.993
 2226TIP3   OH2 6618   0.564   6.763   3.553
 2226TIP3    H1 6619   0.563   6.855   3.578
 2226TIP3    H2 6620   0.482   6.750   3.505
 2227TIP3   OH2 6621   2.568   5.917   0.372
 2227TIP3    H1 6622   2.645   5.963   0.338
 2227TIP3    H2 6623   2.496   5.944   0.315
 2228TIP3   OH2 6624   5.223   2.427   0.654
 2228TIP3    H1 6625   5.213   2.422   0.559
 2228TIP3    H2 6626   5.208   2.337   0.684
 2229TIP3   OH2 6627   4.224   2.744   2.718
 2229TIP3    H1 6628   4.199   2.783   2.802
 2229TIP3    H2 6629   4.320   2.742   2.720
 2230TIP3   OH2 6630   7.633   5.842   5.536
 2230TIP3    H1 6631   7.668   5.931   5.537
 2230TIP3    H2 6632   7.547   5.851   5.496
 2231TIP3   OH2 6633   7.163   2.986   0.176
 2231TIP3    H1 6634   7.157   2.902   0.222
 2231TIP3    H2 6635   7.205   3.045   0.239
 2232TIP3   OH2 6636   6.631   1.593   1.691
 2232TIP3    H1 6637   6.625   1.557   1.779
 2232TIP3    H2 6638   6.715   1.561   1.657
 2233TIP3   OH2 6639   7.098   1.567   5.226
 2233TIP3    H1 6640   7.058   1.588   5.141
 2233TIP3    H2 6641   7.058   1.484   5.252
 2234TIP3   OH2 6642   7.478   3.494   0.356
 2234TIP3    H1 6643   7.400   3.451   0.392
 2234TIP3    H2 6644   7.446   3.539   0.278
 2235TIP3   OH2 6645   4.551   0.096   6.302
 2235TIP3    H1 6646   4.568   0.005   6.281
 2235TIP3    H2 6647   4.581   0.145   6.225
 2236TIP3   OH2 6648   2.839   6.875   2.187
 2236TIP3    H1 6649   2.762   6.912   2.143
 2236TIP3    H2 6650   2.819   6.782   2.194
 2237TIP3   OH2 6651   4.308   4.991   1.715
 2237TIP3    H1 6652   4.354   5.072   1.735
 2237TIP3    H2 6653   4.329   4.932   1.788
 2238TIP3   OH2 6654   6.613   4.030   3.100
 2238TIP3    H1 6655   6.593   3.941   3.130
 2238TIP3    H2 6656   6.593   4.028   3.006
 2239TIP3   OH2 6657   6.587   6.172   0.810
 2239TIP3    H1 6658   6.561   6.090   0.851
 2239TIP3    H2 6659   6.674   6.154   0.773
 2240TIP3   OH2 6660   2.821   3.833   3.917
 2240TIP3    H1 6661   2.750   3.851   3.856
 2240TIP3    H2 6662   2.789   3.866   4.001
 2241TIP3   OH2 6663   6.165   5.318   1.013
 2241TIP3    H1 6664   6.194   5.274   0.933
 2241TIP3    H2 6665   6.245   5.338   1.060
 2242TIP3   OH2 6666   8.369   2.733   0.562
 2242TIP3    H1 6667   8.391   2.811   0.511
 2242TIP3    H2 6668   8.410   2.748   0.647
 2243TIP3   OH2 6669   6.453   2.605   2.047
 2243TIP3    H1 6670   6.506   2.575   2.121
 2243TIP3    H2 6671   6.405   2.527   2.018
 2244TIP3   OH2 6672   1.472   1.650   3.881
 2244TIP3    H1 6673   1.562   1.682   3.872
 2244TIP3    H2 6674   1.460   1.638   3.975
 2245TIP3   OH2 6675   5.210   4.620   0.795
 2245TIP3    H1 6676   5.230   4.654   0.708
 2245TIP3    H2 6677   5.211   4.696   0.852
 2246TIP3   OH2 6678   5.269   0.542   3.170
 2246TIP3    H1 6679   5.329   0.478   3.132
 2246TIP3    H2 6680   5.186   0.495   3.176
 2247TIP3   OH2 6681   6.591   3.294   4.396
 2247TIP3    H1 6682   6.557   3.375   4.432
 2247TIP3    H2 6683   6.552   3.225   4.449
 2248TIP3   OH2 6684   6.562  -0.007   2.885
 2248TIP3    H1 6685   6.553   0.069   2.827
 2248TIP3    H2 6686   6.637   0.015   2.941
 2249TIP3   OH2 6687   5.119   1.048   4.973
 2249TIP3    H1 6688   5.157   0.985   4.912
 2249TIP3    H2 6689   5.053   1.094   4.921
 2250TIP3   OH2 6690   5.526   6.314   6.613
 2250TIP3    H1 6691   5.568   6.349   6.535
 2250TIP3    H2 6692   5.433   6.306   6.589
 2251TIP3   OH2 6693   1.988   0.583   2.096
 2251TIP3    H1 6694   2.014   0.623   2.179
 2251TIP3    H2 6695   1.900   0.549   2.113
 2252TIP3   OH2 6696   4.469   6.104   6.824
 2252TIP3    H1 6697   4.400   6.145   6.771
 2252TIP3    H2 6698   4.450   6.133   6.913
 2253TIP3   OH2 6699   2.645   0.684   3.151
 2253TIP3    H1 6700   2.673   0.760   3.202
 2253TIP3    H2 6701   2.719   0.665   3.094
 2254TIP3   OH2 6702   0.100   0.182   0.221
 2254TIP3    H1 6703   0.048   0.196   0.141
 2254TIP3    H2 6704   0.118   0.270   0.253
 2255TIP3   OH2 6705   2.571   6.474   5.921
 2255TIP3    H1 6706   2.503   6.536   5.893
 2255TIP3    H2 6707   2.652   6.524   5.919
 2256TIP3   OH2 6708   0.513   0.674   2.965
 2256TIP3    H1 6709   0.511   0.721   3.048
 2256TIP3    H2 6710   0.603   0.683   2.934
 2257TIP3   OH2 6711   4.430   0.051   3.396
 2257TIP3    H1 6712   4.377  -0.001   3.456
 2257TIP3    H2 6713   4.400   0.141   3.408
 2258TIP3   OH2 6714   0.867   2.075   6.295
 2258TIP3    H1 6715   0.895   1.997   6.246
 2258TIP3    H2 6716   0.930   2.142   6.269
 2259TIP3   OH2 6717   7.496   1.958   3.308
 2259TIP3    H1 6718   7.551   1.888   3.342
 2259TIP3    H2 6719   7.525   1.971   3.218
 2260TIP3   OH2 6720   7.139   7.170   1.449
 2260TIP3    H1 6721   7.181   7.236   1.504
 2260TIP3    H2 6722   7.170   7.189   1.360
 2261TIP3   OH2 6723   6.660   3.083   1.951
 2261TIP3    H1 6724   6.653   3.021   2.024
 2261TIP3    H2 6725   6.754   3.085   1.931
 2262TIP3   OH2 6726   4.682   5.630   4.931
 2262TIP3    H1 6727   4.635   5.609   4.851
 2262TIP3    H2 6728   4.745   5.559   4.942
 2263TIP3   OH2 6729   7.450   7.402   3.666
 2263TIP3    H1 6730   7.359   7.423   3.645
 2263TIP3    H2 6731   7.469   7.324   3.614
 2264TIP3   OH2 6732   5.979   1.979   6.339
 2264TIP3    H1 6733   6.004   1.948   6.426
 2264TIP3    H2 6734   5.992   1.903   6.282
 2265TIP3   OH2 6735   2.155   7.538   3.192
 2265TIP3    H1 6736   2.084   7.489   3.150
 2265TIP3    H2 6737   2.224   7.542   3.125
 2266TIP3   OH2 6738   8.084   4.751   4.403
 2266TIP3    H1 6739   8.060   4.809   4.475
 2266TIP3    H2 6740   8.006   4.696   4.391
 2267TIP3   OH2 6741   5.873   1.351   4.115
 2267TIP3    H1 6742   5.898   1.361   4.206
 2267TIP3    H2 6743   5.804   1.417   4.101
 2268TIP3   OH2 6744   7.196   7.150   2.105
 2268TIP3    H1 6745   7.103   7.159   2.128
 2268TIP3    H2 6746   7.199   7.167   2.011
 2269TIP3   OH2 6747   3.671   3.050   3.337
 2269TIP3    H1 6748   3.648   3.134   3.376
 2269TIP3    H2 6749   3.706   2.998   3.409
 2270TIP3   OH2 6750   0.959   5.564   3.158
 2270TIP3    H1 6751   0.977   5.644   3.207
 2270TIP3    H2 6752   0.902   5.592   3.086
 2271TIP3   OH2 6753   3.305   0.641   0.494
 2271TIP3    H1 6754   3.241   0.575   0.520
 2271TIP3    H2 6755   3.252   0.714   0.461
 2272TIP3   OH2 6756   7.745   5.703   2.292
 2272TIP3    H1 6757   7.835   5.711   2.259
 2272TIP3    H2 6758   7.694   5.762   2.235
 2273TIP3   OH2 6759   3.594   7.857   5.031
 2273TIP3    H1 6760   3.592   7.947   5.000
 2273TIP3    H2 6761   3.616   7.805   4.954
 2274TIP3   OH2 6762   6.854   5.875   2.427
 2274TIP3    H1 6763   6.842   5.780   2.419
 2274TIP3    H2 6764   6.768   5.912   2.406
 2275TIP3   OH2 6765   5.461   3.984   4.467
 2275TIP3    H1 6766   5.547   3.975   4.509
 2275TIP3    H2 6767   5.476   4.048   4.397
 2276TIP3   OH2 6768   3.425   6.055   3.674
 2276TIP3    H1 6769   3.425   5.971   3.629
 2276TIP3    H2 6770   3.517   6.072   3.692
 2277TIP3   OH2 6771   5.840   4.924   3.670
 2277TIP3    H1 6772   5.772   4.968   3.721
 2277TIP3    H2 6773   5.795   4.851   3.627
 2278TIP3   OH2 6774   4.077   3.546   5.879
 2278TIP3    H1 6775   4.000   3.577   5.926
 2278TIP3    H2 6776   4.118   3.625   5.845
 2279TIP3   OH2 6777   4.119   5.351   3.512
 2279TIP3    H1 6778   4.126   5.426   3.571
 2279TIP3    H2 6779   4.026   5.344   3.493
 2280TIP3   OH2 6780   5.350   2.426   3.468
 2280TIP3    H1 6781   5.300   2.350   3.499
 2280TIP3    H2 6782   5.337   2.426   3.373
 2281TIP3   OH2 6783   1.189   1.552   0.441
 2281TIP3    H1 6784   1.270   1.599   0.462
 2281TIP3    H2 6785   1.181   1.486   0.510
 2282TIP3   OH2 6786   0.676   0.723   3.386
 2282TIP3    H1 6787   0.766   0.709   3.359
 2282TIP3    H2 6788   0.656   0.648   3.442
 2283TIP3   OH2 6789   3.982   4.206   0.011
 2283TIP3    H1 6790   4.057   4.250   0.053
 2283TIP3    H2 6791   3.948   4.272  -0.049
 2284TIP3   OH2 6792   6.526   1.751   2.087
 2284TIP3    H1 6793   6.608   1.725   2.044
 2284TIP3    H2 6794   6.537   1.724   2.178
 2285TIP3   OH2 6795   6.171   0.228   3.118
 2285TIP3    H1 6796   6.118   0.234   3.038
 2285TIP3    H2 6797   6.107   0.224   3.189
 2286TIP3   OH2 6798   0.817   2.399   6.230
 2286TIP3    H1 6799   0.783   2.373   6.316
 2286TIP3    H2 6800   0.903   2.357   6.224
 2287TIP3   OH2 6801   5.391  -0.006   4.717
 2287TIP3    H1 6802   5.303   0.025   4.735
 2287TIP3    H2 6803   5.447   0.049   4.772
 2288TIP3   OH2 6804   1.760   7.432   3.250
 2288TIP3    H1 6805   1.684   7.439   3.192
 2288TIP3    H2 6806   1.830   7.401   3.194
 2289TIP3   OH2 6807   5.038   2.286   5.681
 2289TIP3    H1 6808   4.973   2.268   5.749
 2289TIP3    H2 6809   5.100   2.214   5.687
 2290TIP3   OH2 6810   2.590   3.122   4.271
 2290TIP3    H1 6811   2.563   3.175   4.346
 2290TIP3    H2 6812   2.524   3.053   4.265
 2291TIP3   OH2 6813   5.051   2.977   3.543
 2291TIP3    H1 6814   4.964   2.961   3.580
 2291TIP3    H2 6815   5.095   2.892   3.548
 2292TIP3   OH2 6816   0.696   1.152   6.184
 2292TIP3    H1 6817   0.763   1.152   6.116
 2292TIP3    H2 6818   0.687   1.243   6.210
 2293TIP3   OH2 6819   6.625   3.441   5.322
 2293TIP3    H1 6820   6.592   3.378   5.385
 2293TIP3    H2 6821   6.573   3.520   5.338
 2294TIP3   OH2 6822   7.027   3.163   3.403
 2294TIP3    H1 6823   6.952   3.222   3.413
 2294TIP3    H2 6824   7.031   3.114   3.485
 2295TIP3   OH2 6825   4.703   5.221   2.309
 2295TIP3    H1 6826   4.779   5.229   2.367
 2295TIP3    H2 6827   4.649   5.153   2.349
 2296TIP3   OH2 6828   6.976   1.582   1.422
 2296TIP3    H1 6829   6.969   1.674   1.398
 2296TIP3    H2 6830   7.065   1.557   1.398
 2297TIP3   OH2 6831   4.332   0.388   5.944
 2297TIP3    H1 6832   4.268   0.319   5.927
 2297TIP3    H2 6833   4.278   0.464   5.970
 2298TIP3   OH2 6834   7.868   7.581   5.715
 2298TIP3    H1 6835   7.852   7.504   5.769
 2298TIP3    H2 6836   7.852   7.655   5.773
 2299TIP3   OH2 6837   4.624   0.841   4.681
 2299TIP3    H1 6838   4.659   0.927   4.706
 2299TIP3    H2 6839   4.530   0.854   4.676
 2300TIP3   OH2 6840   5.167   4.780   0.535
 2300TIP3    H1 6841   5.246   4.770   0.481
 2300TIP3    H2 6842   5.114   4.703   0.514
 2301TIP3   OH2 6843   4.301   5.004   0.602
 2301TIP3    H1 6844   4.286   4.911   0.589
 2301TIP3    H2 6845   4.349   5.010   0.685
 2302TIP3   OH2 6846   4.563   0.310   6.100
 2302TIP3    H1 6847   4.559   0.365   6.178
 2302TIP3    H2 6848   4.487   0.337   6.048
 2303TIP3   OH2 6849   0.493   7.510   1.117
 2303TIP3    H1 6850   0.461   7.586   1.166
 2303TIP3    H2 6851   0.436   7.439   1.144
 2304TIP3   OH2 6852   5.172   6.161   3.902
 2304TIP3    H1 6853   5.092   6.210   3.923
 2304TIP3    H2 6854   5.155   6.124   3.816
 2305TIP3   OH2 6855   2.723   5.583   0.601
 2305TIP3    H1 6856   2.714   5.677   0.616
 2305TIP3    H2 6857   2.799   5.575   0.543
 2306TIP3   OH2 6858   6.588   4.043   5.717
 2306TIP3    H1 6859   6.670   4.046   5.767
 2306TIP3    H2 6860   6.520   4.066   5.781
 2307TIP3   OH2 6861   0.132   6.840   1.393
 2307TIP3    H1 6862   0.117   6.910   1.329
 2307TIP3    H2 6863   0.183   6.775   1.345
 2308TIP3   OH2 6864   2.433   0.610   1.609
 2308TIP3    H1 6865   2.423   0.649   1.696
 2308TIP3    H2 6866   2.501   0.544   1.620
 2309TIP3   OH2 6867   5.656   7.417   2.582
 2309TIP3    H1 6868   5.637   7.433   2.675
 2309TIP3    H2 6869   5.751   7.425   2.575
 2310TIP3   OH2 6870   4.806   2.395   1.671
 2310TIP3    H1 6871   4.732   2.437   1.714
 2310TIP3    H2 6872   4.853   2.351   1.742
 2311TIP3   OH2 6873   5.980   3.154   5.348
 2311TIP3    H1 6874   5.909   3.198   5.302
 2311TIP3    H2 6875   5.964   3.061   5.333
 2312TIP3   OH2 6876   7.164   7.511   4.474
 2312TIP3    H1 6877   7.129   7.449   4.410
 2312TIP3    H2 6878   7.238   7.466   4.513
 2313TIP3   OH2 6879   4.006   5.668   0.152
 2313TIP3    H1 6880   4.086   5.636   0.193
 2313TIP3    H2 6881   3.946   5.593   0.154
 2314TIP3   OH2 6882   5.899   5.422   1.879
 2314TIP3    H1 6883   5.818   5.467   1.905
 2314TIP3    H2 6884   5.875   5.329   1.879
 2315TIP3   OH2 6885   1.309   4.237   3.768
 2315TIP3    H1 6886   1.343   4.170   3.827
 2315TIP3    H2 6887   1.324   4.202   3.680
 2316TIP3   OH2 6888   6.004   1.452   3.107
 2316TIP3    H1 6889   5.919   1.408   3.115
 2316TIP3    H2 6890   6.062   1.403   3.165
 2317TIP3   OH2 6891   2.708   4.819   6.444
 2317TIP3    H1 6892   2.623   4.791   6.409
 2317TIP3    H2 6893   2.757   4.738   6.457
 2318TIP3   OH2 6894   7.433   4.546   1.416
 2318TIP3    H1 6895   7.450   4.452   1.403
 2318TIP3    H2 6896   7.352   4.562   1.368
 2319TIP3   OH2 6897   5.993   3.748   0.822
 2319TIP3    H1 6898   6.074   3.779   0.863
 2319TIP3    H2 6899   6.008   3.654   0.807
 2320TIP3   OH2 6900   1.121   5.782   2.295
 2320TIP3    H1 6901   1.139   5.821   2.381
 2320TIP3    H2 6902   1.066   5.706   2.315
 2321TIP3   OH2 6903   0.501   0.963   1.467
 2321TIP3    H1 6904   0.549   0.983   1.547
 2321TIP3    H2 6905   0.497   0.867   1.465
 2322TIP3   OH2 6906   4.745   1.859   5.955
 2322TIP3    H1 6907   4.785   1.875   6.041
 2322TIP3    H2 6908   4.652   1.880   5.968
 2323TIP3   OH2 6909   0.063   6.689   3.404
 2323TIP3    H1 6910   0.053   6.656   3.493
 2323TIP3    H2 6911  -0.023   6.679   3.365
 2324TIP3   OH2 6912   2.660   6.834   3.228
 2324TIP3    H1 6913   2.718   6.905   3.203
 2324TIP3    H2 6914   2.708   6.786   3.295
 2325TIP3   OH2 6915   2.358   0.892   1.037
 2325TIP3    H1 6916   2.374   0.799   1.024
 2325TIP3    H2 6917   2.268   0.905   1.007
 2326TIP3   OH2 6918   1.352   5.521   5.509
 2326TIP3    H1 6919   1.401   5.575   5.447
 2326TIP3    H2 6920   1.361   5.566   5.593
 2327TIP3   OH2 6921   6.363   2.853   4.093
 2327TIP3    H1 6922   6.445   2.867   4.045
 2327TIP3    H2 6923   6.347   2.936   4.137
 2328TIP3   OH2 6924   7.446   2.422   6.379
 2328TIP3    H1 6925   7.429   2.392   6.468
 2328TIP3    H2 6926   7.363   2.407   6.333
 2329TIP3   OH2 6927   3.974   5.216   5.216
 2329TIP3    H1 6928   4.042   5.221   5.283
 2329TIP3    H2 6929   4.021   5.222   5.133
 2330TIP3   OH2 6930   8.247   3.086   4.427
 2330TIP3    H1 6931   8.204   3.030   4.363
 2330TIP3    H2 6932   8.187   3.159   4.439
 2331TIP3   OH2 6933   1.812   4.066   0.164
 2331TIP3    H1 6934   1.770   4.052   0.079
 2331TIP3    H2 6935   1.797   4.159   0.183
 2332TIP3   OH2 6936   7.370   3.692   2.644
 2332TIP3    H1 6937   7.374   3.763   2.580
 2332TIP3    H2 6938   7.286   3.649   2.627
 2333TIP3   OH2 6939   5.464   5.779   1.475
 2333TIP3    H1 6940   5.549   5.793   1.517
 2333TIP3    H2 6941   5.404   5.761   1.547
 2334TIP3   OH2 6942   6.219   1.279   3.612
 2334TIP3    H1 6943   6.220   1.192   3.571
 2334TIP3    H2 6944   6.126   1.301   3.618
 2335TIP3   OH2 6945   4.842   3.577   3.772
 2335TIP3    H1 6946   4.799   3.542   3.694
 2335TIP3    H2 6947   4.773   3.628   3.816
 2336TIP3   OH2 6948   5.324   6.971   4.225
 2336TIP3    H1 6949   5.368   7.056   4.214
 2336TIP3    H2 6950   5.394   6.911   4.250
 2337TIP3   OH2 6951   4.947   7.828   3.536
 2337TIP3    H1 6952   4.942   7.837   3.631
 2337TIP3    H2 6953   5.035   7.795   3.519
 2338TIP3   OH2 6954   7.539   0.219   4.672
 2338TIP3    H1 6955   7.542   0.124   4.683
 2338TIP3    H2 6956   7.525   0.232   4.578
 2339TIP3   OH2 6957   1.472   7.045   1.651
 2339TIP3    H1 6958   1.469   6.957   1.689
 2339TIP3    H2 6959   1.548   7.042   1.592
 2340TIP3   OH2 6960   1.981   4.989   0.206
 2340TIP3    H1 6961   1.905   4.998   0.263
 2340TIP3    H2 6962   2.028   4.913   0.239
 2341TIP3   OH2 6963   6.888   6.686   0.191
 2341TIP3    H1 6964   6.968   6.635   0.182
 2341TIP3    H2 6965   6.917   6.770   0.227
 2342TIP3   OH2 6966   4.210   2.645   5.230
 2342TIP3    H1 6967   4.217   2.633   5.324
 2342TIP3    H2 6968   4.284   2.596   5.194
 2343TIP3   OH2 6969   5.501   7.884   2.086
 2343TIP3    H1 6970   5.438   7.865   2.155
 2343TIP3    H2 6971   5.577   7.831   2.107
 2344TIP3   OH2 6972   3.050   5.420   5.512
 2344TIP3    H1 6973   3.003   5.337   5.519
 2344TIP3    H2 6974   3.083   5.437   5.600
 2345TIP3   OH2 6975   7.691   6.449   6.168
 2345TIP3    H1 6976   7.687   6.530   6.116
 2345TIP3    H2 6977   7.783   6.425   6.168
 2346TIP3   OH2 6978   4.024   0.860   5.923
 2346TIP3    H1 6979   4.119   0.866   5.918
 2346TIP3    H2 6980   4.007   0.766   5.929
 2347TIP3   OH2 6981   6.627   0.476   4.713
 2347TIP3    H1 6982   6.546   0.513   4.679
 2347TIP3    H2 6983   6.600   0.418   4.784
 2348TIP3   OH2 6984   5.069   6.471   4.752
 2348TIP3    H1 6985   5.066   6.377   4.734
 2348TIP3    H2 6986   5.133   6.506   4.690
 2349TIP3   OH2 6987   1.416   0.881   2.425
 2349TIP3    H1 6988   1.433   0.801   2.374
 2349TIP3    H2 6989   1.502   0.923   2.432
 2350TIP3   OH2 6990   8.007   0.236   4.029
 2350TIP3    H1 6991   7.966   0.322   4.027
 2350TIP3    H2 6992   7.980   0.195   3.947
 2351TIP3   OH2 6993   2.581   2.423   1.156
 2351TIP3    H1 6994   2.597   2.503   1.107
 2351TIP3    H2 6995   2.600   2.446   1.247
 2352TIP3   OH2 6996   4.380   5.305   0.690
 2352TIP3    H1 6997   4.423   5.297   0.605
 2352TIP3    H2 6998   4.298   5.351   0.672
 2353TIP3   OH2 6999   5.247   5.582   1.179
 2353TIP3    H1 7000   5.156   5.610   1.189
 2353TIP3    H2 7001   5.285   5.642   1.115
 2354TIP3   OH2 7002   5.178   1.077   3.212
 2354TIP3    H1 7003   5.248   1.132   3.248
 2354TIP3    H2 7004   5.219   0.992   3.198
 2355TIP3   OH2 7005   2.955   2.206   5.877
 2355TIP3    H1 7006   3.014   2.156   5.934
 2355TIP3    H2 7007   2.913   2.269   5.935
 2356TIP3   OH2 7008   2.923   1.457   1.606
 2356TIP3    H1 7009   2.830   1.464   1.625
 2356TIP3    H2 7010   2.934   1.370   1.569
 2357TIP3   OH2 7011   0.847   3.074   5.896
 2357TIP3    H1 7012   0.857   3.110   5.808
 2357TIP3    H2 7013   0.847   2.979   5.883
 2358TIP3   OH2 7014   3.744   7.231   5.164
 2358TIP3    H1 7015   3.728   7.245   5.257
 2358TIP3    H2 7016   3.838   7.212   5.158
 2359TIP3   OH2 7017   7.066   3.966   6.582
 2359TIP3    H1 7018   7.020   3.930   6.657
 2359TIP3    H2 7019   7.018   4.046   6.560
 2360TIP3   OH2 7020   0.642   2.092   4.046
 2360TIP3    H1 7021   0.612   2.149   4.117
 2360TIP3    H2 7022   0.579   2.020   4.045
 2361TIP3   OH2 7023   2.198   3.033   3.027
 2361TIP3    H1 7024   2.231   2.944   3.021
 2361TIP3    H2 7025   2.122   3.035   2.968
 2362TIP3   OH2 7026   3.674   1.323   3.216
 2362TIP3    H1 7027   3.756   1.342   3.261
 2362TIP3    H2 7028   3.635   1.252   3.266
 2363TIP3   OH2 7029   8.344   2.521   4.626
 2363TIP3    H1 7030   8.387   2.440   4.653
 2363TIP3    H2 7031   8.408   2.590   4.642
 2364TIP3   OH2 7032   8.016   0.728   2.798
 2364TIP3    H1 7033   8.009   0.730   2.703
 2364TIP3    H2 7034   8.037   0.818   2.822
 2365TIP3   OH2 7035   1.885   6.664   5.842
 2365TIP3    H1 7036   1.944   6.634   5.911
 2365TIP3    H2 7037   1.809   6.606   5.849
 2366TIP3   OH2 7038   1.629   4.154   2.876
 2366TIP3    H1 7039   1.724   4.163   2.872
 2366TIP3    H2 7040   1.599   4.173   2.787
 2367TIP3   OH2 7041   2.276   5.351   1.510
 2367TIP3    H1 7042   2.189   5.391   1.500
 2367TIP3    H2 7043   2.337   5.419   1.481
 2368TIP3   OH2 7044   5.036   6.932   1.249
 2368TIP3    H1 7045   4.983   6.873   1.196
 2368TIP3    H2 7046   4.975   6.970   1.312
 2369TIP3   OH2 7047   6.523   3.701   6.870
 2369TIP3    H1 7048   6.549   3.693   6.779
 2369TIP3    H2 7049   6.499   3.612   6.896
 2370TIP3   OH2 7050   5.026   4.708   2.064
 2370TIP3    H1 7051   5.044   4.766   2.139
 2370TIP3    H2 7052   5.102   4.718   2.007
 2371TIP3   OH2 7053   6.248   7.335   6.766
 2371TIP3    H1 7054   6.249   7.338   6.670
 2371TIP3    H2 7055   6.264   7.243   6.787
 2372TIP3   OH2 7056   3.697   2.869   5.554
 2372TIP3    H1 7057   3.614   2.833   5.522
 2372TIP3    H2 7058   3.679   2.962   5.568
 2373TIP3   OH2 7059   0.163   6.202   1.227
 2373TIP3    H1 7060   0.230   6.141   1.198
 2373TIP3    H2 7061   0.209   6.285   1.239
 2374TIP3   OH2 7062   4.893   0.889   3.671
 2374TIP3    H1 7063   4.899   0.890   3.767
 2374TIP3    H2 7064   4.809   0.930   3.652
 2375TIP3   OH2 7065   4.386   2.326   4.254
 2375TIP3    H1 7066   4.446   2.357   4.322
 2375TIP3    H2 7067   4.431   2.252   4.214
 2376TIP3   OH2 7068   2.985   6.904   3.923
 2376TIP3    H1 7069   2.912   6.920   3.982
 2376TIP3    H2 7070   2.979   6.974   3.858
 2377TIP3   OH2 7071   4.760   1.736   4.381
 2377TIP3    H1 7072   4.824   1.712   4.314
 2377TIP3    H2 7073   4.757   1.832   4.379
 2378TIP3   OH2 7074   5.830   5.343   6.304
 2378TIP3    H1 7075   5.873   5.264   6.337
 2378TIP3    H2 7076   5.902   5.400   6.277
 2379TIP3   OH2 7077   4.908   6.662   1.253
 2379TIP3    H1 7078   4.868   6.595   1.199
 2379TIP3    H2 7079   4.843   6.680   1.321
 2380TIP3   OH2 7080   4.495   5.193   1.788
 2380TIP3    H1 7081   4.509   5.220   1.879
 2380TIP3    H2 7082   4.443   5.264   1.750
 2381TIP3   OH2 7083   0.191   1.780   6.874
 2381TIP3    H1 7084   0.214   1.871   6.895
 2381TIP3    H2 7085   0.231   1.765   6.788
 2382TIP3   OH2 7086   5.333   5.122   1.586
 2382TIP3    H1 7087   5.390   5.172   1.528
 2382TIP3    H2 7088   5.392   5.061   1.631
 2383TIP3   OH2 7089   4.847   3.935   1.255
 2383TIP3    H1 7090   4.913   4.003   1.245
 2383TIP3    H2 7091   4.857   3.905   1.345
 2384TIP3   OH2 7092   0.042   0.736   1.407
 2384TIP3    H1 7093   0.024   0.693   1.490
 2384TIP3    H2 7094   0.054   0.665   1.344
 2385TIP3   OH2 7095   2.459   5.457   5.986
 2385TIP3    H1 7096   2.541   5.494   6.018
 2385TIP3    H2 7097   2.434   5.513   5.912
 2386TIP3   OH2 7098   2.510   4.969   6.121
 2386TIP3    H1 7099   2.587   4.954   6.066
 2386TIP3    H2 7100   2.441   4.995   6.059
 2387TIP3   OH2 7101   5.391   5.624   1.705
 2387TIP3    H1 7102   5.365   5.687   1.772
 2387TIP3    H2 7103   5.328   5.553   1.713
 2388TIP3   OH2 7104   2.140   3.790   1.363
 2388TIP3    H1 7105   2.232   3.780   1.387
 2388TIP3    H2 7106   2.129   3.885   1.351
 2389TIP3   OH2 7107   4.173   6.504   0.307
 2389TIP3    H1 7108   4.245   6.441   0.313
 2389TIP3    H2 7109   4.210   6.585   0.341
 2390TIP3   OH2 7110   0.939   0.974   4.745
 2390TIP3    H1 7111   0.891   0.909   4.797
 2390TIP3    H2 7112   1.015   0.997   4.799
 2391TIP3   OH2 7113   6.309   2.902   0.238
 2391TIP3    H1 7114   6.323   2.864   0.324
 2391TIP3    H2 7115   6.229   2.860   0.206
 2392TIP3   OH2 7116   7.934   1.310   5.579
 2392TIP3    H1 7117   7.898   1.272   5.658
 2392TIP3    H2 7118   7.900   1.256   5.508
 2393TIP3   OH2 7119   7.091   1.270   5.673
 2393TIP3    H1 7120   7.170   1.285   5.724
 2393TIP3    H2 7121   7.059   1.358   5.652
 2394TIP3   OH2 7122   6.103   7.302   3.545
 2394TIP3    H1 7123   6.115   7.263   3.458
 2394TIP3    H2 7124   6.009   7.316   3.552
 2395TIP3   OH2 7125   6.660   7.665   6.366
 2395TIP3    H1 7126   6.725   7.734   6.365
 2395TIP3    H2 7127   6.710   7.584   6.353
 2396TIP3   OH2 7128   3.516   1.770   2.496
 2396TIP3    H1 7129   3.479   1.715   2.427
 2396TIP3    H2 7130   3.462   1.752   2.573
 2397TIP3   OH2 7131   5.732   3.211   5.959
 2397TIP3    H1 7132   5.697   3.267   5.889
 2397TIP3    H2 7133   5.802   3.161   5.918
 2398TIP3   OH2 7134   8.060   7.574   5.383
 2398TIP3    H1 7135   8.131   7.518   5.416
 2398TIP3    H2 7136   8.064   7.564   5.288
 2399TIP3   OH2 7137   5.969   6.955   6.018
 2399TIP3    H1 7138   5.940   7.043   5.995
 2399TIP3    H2 7139   5.954   6.948   6.112
 2400TIP3   OH2 7140   4.742   6.093   4.172
 2400TIP3    H1 7141   4.730   6.173   4.120
 2400TIP3    H2 7142   4.800   6.119   4.243
 2401TIP3   OH2 7143   7.171   6.282   1.818
 2401TIP3    H1 7144   7.187   6.228   1.741
 2401TIP3    H2 7145   7.251   6.333   1.829
 2402TIP3   OH2 7146   3.112   2.460   2.780
 2402TIP3    H1 7147   3.197   2.479   2.740
 2402TIP3    H2 7148   3.128   2.383   2.835
 2403TIP3   OH2 7149   1.152   1.691   0.845
 2403TIP3    H1 7150   1.180   1.732   0.763
 2403TIP3    H2 7151   1.226   1.637   0.871
 2404TIP3   OH2 7152   3.088   0.145   2.683
 2404TIP3    H1 7153   3.089   0.107   2.595
 2404TIP3    H2 7154   3.056   0.234   2.669
 2405TIP3   OH2 7155   4.349   7.702   5.238
 2405TIP3    H1 7156   4.386   7.695   5.326
 2405TIP3    H2 7157   4.293   7.779   5.241
 2406TIP3   OH2 7158   0.476   3.790   3.543
 2406TIP3    H1 7159   0.509   3.723   3.603
 2406TIP3    H2 7160   0.457   3.743   3.463
 2407TIP3   OH2 7161   7.678   0.547   5.694
 2407TIP3    H1 7162   7.592   0.544   5.652
 2407TIP3    H2 7163   7.662   0.588   5.779
 2408TIP3   OH2 7164   1.386   4.763   2.558
 2408TIP3    H1 7165   1.351   4.758   2.647
 2408TIP3    H2 7166   1.318   4.722   2.504
 2409TIP3   OH2 7167   2.805   7.607   3.860
 2409TIP3    H1 7168   2.714   7.630   3.843
 2409TIP3    H2 7169   2.807   7.512   3.859
 2410TIP3   OH2 7170   7.031   3.911   4.551
 2410TIP3    H1 7171   6.946   3.946   4.524
 2410TIP3    H2 7172   7.010   3.842   4.614
 2411TIP3   OH2 7173   5.618   6.986   1.051
 2411TIP3    H1 7174   5.544   7.047   1.049
 2411TIP3    H2 7175   5.593   6.916   0.991
 2412TIP3   OH2 7176   0.097   3.703   0.070
 2412TIP3    H1 7177   0.088   3.664   0.157
 2412TIP3    H2 7178   0.121   3.794   0.086
 2413TIP3   OH2 7179   3.720   0.728   3.488
 2413TIP3    H1 7180   3.765   0.760   3.566
 2413TIP3    H2 7181   3.633   0.767   3.492
 2414TIP3   OH2 7182   0.540   5.817   2.353
 2414TIP3    H1 7183   0.568   5.901   2.315
 2414TIP3    H2 7184   0.548   5.831   2.448
 2415TIP3   OH2 7185   3.033   6.847   5.695
 2415TIP3    H1 7186   2.999   6.883   5.777
 2415TIP3    H2 7187   3.118   6.810   5.718
 2416TIP3   OH2 7188   1.773   5.982   2.735
 2416TIP3    H1 7189   1.836   5.951   2.800
 2416TIP3    H2 7190   1.806   5.946   2.652
 2417TIP3   OH2 7191   5.297   0.345   0.099
 2417TIP3    H1 7192   5.228   0.308   0.155
 2417TIP3    H2 7193   5.276   0.439   0.096
 2418TIP3   OH2 7194   3.988   4.529   4.690
 2418TIP3    H1 7195   4.054   4.497   4.629
 2418TIP3    H2 7196   3.919   4.463   4.689
 2419TIP3   OH2 7197   3.955   3.121   5.209
 2419TIP3    H1 7198   3.915   3.087   5.129
 2419TIP3    H2 7199   4.039   3.074   5.215
 2420TIP3   OH2 7200   3.365   5.770   3.525
 2420TIP3    H1 7201   3.419   5.774   3.446
 2420TIP3    H2 7202   3.298   5.837   3.512
 2421TIP3   OH2 7203   2.177   7.155   6.460
 2421TIP3    H1 7204   2.111   7.094   6.425
 2421TIP3    H2 7205   2.237   7.170   6.387
 2422TIP3   OH2 7206   5.345   6.363   2.142
 2422TIP3    H1 7207   5.254   6.383   2.118
 2422TIP3    H2 7208   5.347   6.373   2.237
 2423TIP3   OH2 7209   6.974   6.081   3.237
 2423TIP3    H1 7210   6.964   6.006   3.179
 2423TIP3    H2 7211   6.901   6.075   3.298
 2424TIP3   OH2 7212   7.080   1.990   6.747
 2424TIP3    H1 7213   7.074   1.915   6.807
 2424TIP3    H2 7214   7.133   1.958   6.675
 2425TIP3   OH2 7215   4.473   0.251   1.381
 2425TIP3    H1 7216   4.388   0.289   1.360
 2425TIP3    H2 7217   4.501   0.296   1.460
 2426TIP3   OH2 7218   7.086   1.750   5.450
 2426TIP3    H1 7219   7.113   1.834   5.412
 2426TIP3    H2 7220   7.120   1.684   5.389
 2427TIP3   OH2 7221   3.183   1.837   6.106
 2427TIP3    H1 7222   3.230   1.820   6.025
 2427TIP3    H2 7223   3.221   1.777   6.170
 2428TIP3   OH2 7224   5.788   4.026   1.739
 2428TIP3    H1 7225   5.860   4.051   1.682
 2428TIP3    H2 7226   5.807   3.936   1.765
 2429TIP3   OH2 7227   0.294   0.568   5.006
 2429TIP3    H1 7228   0.261   0.571   5.095
 2429TIP3    H2 7229   0.378   0.614   5.010
 2430TIP3   OH2 7230   1.717   7.399   0.798
 2430TIP3    H1 7231   1.745   7.397   0.707
 2430TIP3    H2 7232   1.799   7.405   0.848
 2431TIP3   OH2 7233   8.038   7.545   0.163
 2431TIP3    H1 7234   8.096   7.565   0.090
 2431TIP3    H2 7235   8.004   7.457   0.144
 2432TIP3   OH2 7236   4.767   4.147   4.001
 2432TIP3    H1 7237   4.826   4.222   3.999
 2432TIP3    H2 7238   4.737   4.141   4.091
 2433TIP3   OH2 7239   1.218   2.511   0.509
 2433TIP3    H1 7240   1.288   2.565   0.544
 2433TIP3    H2 7241   1.261   2.453   0.446
 2434TIP3   OH2 7242   3.570   1.735   6.073
 2434TIP3    H1 7243   3.622   1.682   6.132
 2434TIP3    H2 7244   3.485   1.691   6.070
 2435TIP3   OH2 7245   0.774   6.246   4.076
 2435TIP3    H1 7246   0.766   6.201   4.160
 2435TIP3    H2 7247   0.868   6.265   4.069
 2436TIP3   OH2 7248   8.222   0.861   3.482
 2436TIP3    H1 7249   8.130   0.835   3.482
 2436TIP3    H2 7250   8.236   0.903   3.397
 2437TIP3   OH2 7251   2.088   0.466   4.022
 2437TIP3    H1 7252   2.148   0.394   4.041
 2437TIP3    H2 7253   2.113   0.535   4.084
 2438TIP3   OH2 7254   5.905   4.171   3.141
 2438TIP3    H1 7255   5.884   4.098   3.083
 2438TIP3    H2 7256   5.922   4.131   3.226
 2439TIP3   OH2 7257   6.390   1.773   0.385
 2439TIP3    H1 7258   6.461   1.806   0.330
 2439TIP3    H2 7259   6.314   1.769   0.326
 2440TIP3   OH2 7260   0.201   1.201   5.725
 2440TIP3    H1 7261   0.287   1.160   5.723
 2440TIP3    H2 7262   0.188   1.224   5.817
 2441TIP3   OH2 7263   1.184   5.697   0.608
 2441TIP3    H1 7264   1.126   5.738   0.544
 2441TIP3    H2 7265   1.135   5.621   0.639
 2442TIP3   OH2 7266   3.395   2.553   3.170
 2442TIP3    H1 7267   3.305   2.524   3.159
 2442TIP3    H2 7268   3.444   2.509   3.101
 2443TIP3   OH2 7269   5.286   1.280   2.676
 2443TIP3    H1 7270   5.302   1.230   2.596
 2443TIP3    H2 7271   5.312   1.221   2.747
 2444TIP3   OH2 7272   4.176   1.408   3.211
 2444TIP3    H1 7273   4.092   1.373   3.241
 2444TIP3    H2 7274   4.179   1.386   3.118
 2445TIP3   OH2 7275   7.469   5.563   5.585
 2445TIP3    H1 7276   7.510   5.487   5.543
 2445TIP3    H2 7277   7.469   5.541   5.678
 2446TIP3   OH2 7278   3.516   4.898   5.234
 2446TIP3    H1 7279   3.578   4.939   5.294
 2446TIP3    H2 7280   3.556   4.910   5.147
 2447TIP3   OH2 7281   3.723   5.778   4.168
 2447TIP3    H1 7282   3.713   5.773   4.263
 2447TIP3    H2 7283   3.814   5.750   4.152
 2448TIP3   OH2 7284   4.808   4.942   2.166
 2448TIP3    H1 7285   4.880   4.887   2.196
 2448TIP3    H2 7286   4.729   4.892   2.186
 2449TIP3   OH2 7287   7.939   5.087   3.993
 2449TIP3    H1 7288   8.002   5.138   4.043
 2449TIP3    H2 7289   7.954   5.114   3.902
 2450TIP3   OH2 7290   3.911   1.597   1.536
 2450TIP3    H1 7291   4.005   1.593   1.518
 2450TIP3    H2 7292   3.870   1.559   1.459
 2451TIP3   OH2 7293   4.563   3.598   3.290
 2451TIP3    H1 7294   4.637   3.576   3.233
 2451TIP3    H2 7295   4.486   3.566   3.243
 2452TIP3   OH2 7296   6.022   3.862   2.045
 2452TIP3    H1 7297   5.976   3.821   2.119
 2452TIP3    H2 7298   6.115   3.854   2.067
 2453TIP3   OH2 7299   8.200   5.127   1.355
 2453TIP3    H1 7300   8.222   5.036   1.374
 2453TIP3    H2 7301   8.239   5.177   1.427
 2454TIP3   OH2 7302   0.214   0.443   0.214
 2454TIP3    H1 7303   0.241   0.508   0.149
 2454TIP3    H2 7304   0.127   0.471   0.241
 2455TIP3   OH2 7305   8.244   0.794   4.968
 2455TIP3    H1 7306   8.196   0.869   4.934
 2455TIP3    H2 7307   8.296   0.830   5.040
 2456TIP3   OH2 7308   2.461   7.006   4.325
 2456TIP3    H1 7309   2.477   7.084   4.377
 2456TIP3    H2 7310   2.547   6.970   4.307
 2457TIP3   OH2 7311   2.758   2.366   1.943
 2457TIP3    H1 7312   2.757   2.277   1.909
 2457TIP3    H2 7313   2.844   2.400   1.920
 2458TIP3   OH2 7314   3.130   6.668   3.028
 2458TIP3    H1 7315   3.034   6.673   3.025
 2458TIP3    H2 7316   3.150   6.577   3.010
 2459TIP3   OH2 7317   2.812   1.299   0.580
 2459TIP3    H1 7318   2.902   1.265   0.586
 2459TIP3    H2 7319   2.823   1.392   0.561
 2460TIP3   OH2 7320   2.272   3.302   5.430
 2460TIP3    H1 7321   2.218   3.332   5.503
 2460TIP3    H2 7322   2.362   3.317   5.459
 2461TIP3   OH2 7323   7.495   4.217   0.322
 2461TIP3    H1 7324   7.438   4.141   0.336
 2461TIP3    H2 7325   7.527   4.207   0.232
 2462TIP3   OH2 7326   5.700   6.117   1.490
 2462TIP3    H1 7327   5.619   6.138   1.445
 2462TIP3    H2 7328   5.744   6.202   1.500
 2463TIP3   OH2 7329   6.472   1.085   6.370
 2463TIP3    H1 7330   6.560   1.084   6.331
 2463TIP3    H2 7331   6.465   1.000   6.413
 2464TIP3   OH2 7332   0.249   6.360   5.209
 2464TIP3    H1 7333   0.210   6.283   5.250
 2464TIP3    H2 7334   0.187   6.385   5.141
 2465TIP3   OH2 7335   6.498   5.183   3.047
 2465TIP3    H1 7336   6.541   5.187   2.962
 2465TIP3    H2 7337   6.522   5.264   3.091
 2466TIP3   OH2 7338   7.456   2.489   1.094
 2466TIP3    H1 7339   7.362   2.481   1.111
 2466TIP3    H2 7340   7.472   2.583   1.089
 2467TIP3   OH2 7341   6.172   2.649   2.361
 2467TIP3    H1 7342   6.126   2.709   2.420
 2467TIP3    H2 7343   6.210   2.706   2.294
 2468TIP3   OH2 7344   5.192   6.178   5.248
 2468TIP3    H1 7345   5.243   6.218   5.178
 2468TIP3    H2 7346   5.104   6.168   5.211
 2469TIP3   OH2 7347   6.484   3.427   0.571
 2469TIP3    H1 7348   6.391   3.414   0.585
 2469TIP3    H2 7349   6.496   3.522   0.572
 2470TIP3   OH2 7350   2.828   3.160   2.008
 2470TIP3    H1 7351   2.894   3.130   1.945
 2470TIP3    H2 7352   2.744   3.139   1.965
 2471TIP3   OH2 7353   6.002   5.131   6.276
 2471TIP3    H1 7354   5.999   5.052   6.222
 2471TIP3    H2 7355   6.095   5.143   6.296
 2472TIP3   OH2 7356   6.747   2.818   3.355
 2472TIP3    H1 7357   6.841   2.809   3.371
 2472TIP3    H2 7358   6.706   2.774   3.430
 2473TIP3   OH2 7359   6.202   5.520   0.659
 2473TIP3    H1 7360   6.215   5.432   0.693
 2473TIP3    H2 7361   6.231   5.515   0.568
 2474TIP3   OH2 7362   4.064   7.213   1.695
 2474TIP3    H1 7363   3.984   7.182   1.736
 2474TIP3    H2 7364   4.130   7.146   1.717
 2475TIP3   OH2 7365   4.371   4.711   1.071
 2475TIP3    H1 7366   4.280   4.689   1.092
 2475TIP3    H2 7367   4.421   4.636   1.104
 2476TIP3   OH2 7368   6.948   1.276   4.039
 2476TIP3    H1 7369   6.970   1.276   3.945
 2476TIP3    H2 7370   6.982   1.193   4.071
 2477TIP3   OH2 7371   2.668   2.643   5.105
 2477TIP3    H1 7372   2.608   2.569   5.100
 2477TIP3    H2 7373   2.618   2.711   5.150
 2478TIP3   OH2 7374   0.660   3.447   6.732
 2478TIP3    H1 7375   0.726   3.447   6.662
 2478TIP3    H2 7376   0.632   3.356   6.739
 2479TIP3   OH2 7377   5.529   0.774   3.974
 2479TIP3    H1 7378   5.502   0.830   4.047
 2479TIP3    H2 7379   5.547   0.835   3.902
 2480TIP3   OH2 7380   5.647   2.856   2.744
 2480TIP3    H1 7381   5.660   2.788   2.677
 2480TIP3    H2 7382   5.552   2.864   2.751
 2481TIP3   OH2 7383   6.701   7.537   6.787
 2481TIP3    H1 7384   6.606   7.533   6.795
 2481TIP3    H2 7385   6.733   7.529   6.877
 2482TIP3   OH2 7386   0.849   6.828   2.373
 2482TIP3    H1 7387   0.838   6.859   2.462
 2482TIP3    H2 7388   0.815   6.738   2.374
 2483TIP3   OH2 7389   0.403   3.798   6.512
 2483TIP3    H1 7390   0.437   3.764   6.595
 2483TIP3    H2 7391   0.430   3.889   6.510
 2484TIP3   OH2 7392   7.314   5.632   2.521
 2484TIP3    H1 7393   7.390   5.598   2.474
 2484TIP3    H2 7394   7.333   5.725   2.535
 2485TIP3   OH2 7395   7.080   3.926   1.021
 2485TIP3    H1 7396   7.073   3.939   1.115
 2485TIP3    H2 7397   6.995   3.953   0.986
 2486TIP3   OH2 7398   1.431   6.783   1.076
 2486TIP3    H1 7399   1.525   6.780   1.093
 2486TIP3    H2 7400   1.419   6.856   1.016
 2487TIP3   OH2 7401   4.270   3.281   3.399
 2487TIP3    H1 7402   4.265   3.333   3.318
 2487TIP3    H2 7403   4.355   3.305   3.437
 2488TIP3   OH2 7404   3.695   6.549   2.071
 2488TIP3    H1 7405   3.657   6.502   2.146
 2488TIP3    H2 7406   3.653   6.511   1.994
 2489TIP3   OH2 7407   1.736   6.758   2.200
 2489TIP3    H1 7408   1.712   6.679   2.151
 2489TIP3    H2 7409   1.817   6.734   2.246
 2490TIP3   OH2 7410   6.855   0.207   6.101
 2490TIP3    H1 7411   6.878   0.272   6.168
 2490TIP3    H2 7412   6.787   0.153   6.142
 2491TIP3   OH2 7413   7.666   1.033   3.146
 2491TIP3    H1 7414   7.753   1.002   3.171
 2491TIP3    H2 7415   7.634   1.080   3.223
 2492TIP3   OH2 7416   7.770   1.627   4.475
 2492TIP3    H1 7417   7.755   1.666   4.561
 2492TIP3    H2 7418   7.791   1.701   4.419
 2493TIP3   OH2 7419   4.552   2.085   5.782
 2493TIP3    H1 7420   4.590   2.172   5.768
 2493TIP3    H2 7421   4.536   2.081   5.876
 2494TIP3   OH2 7422   7.864   6.793   1.835
 2494TIP3    H1 7423   7.789   6.740   1.808
 2494TIP3    H2 7424   7.940   6.744   1.806
 2495TIP3   OH2 7425   4.139   3.786   5.748
 2495TIP3    H1 7426   4.056   3.756   5.711
 2495TIP3    H2 7427   4.124   3.878   5.769
 2496TIP3   OH2 7428   0.884   0.425   0.351
 2496TIP3    H1 7429   0.944   0.494   0.379
 2496TIP3    H2 7430   0.897   0.418   0.257
 2497TIP3   OH2 7431   5.334   6.276   5.034
 2497TIP3    H1 7432   5.322   6.257   4.941
 2497TIP3    H2 7433   5.382   6.358   5.036
 2498TIP3   OH2 7434   0.994   1.999   0.024
 2498TIP3    H1 7435   0.940   1.936  -0.023
 2498TIP3    H2 7436   1.052   1.945   0.078
 2499TIP3   OH2 7437   4.613   2.369   0.165
 2499TIP3    H1 7438   4.574   2.283   0.183
 2499TIP3    H2 7439   4.604   2.379   0.070
 2500TIP3   OH2 7440   4.635   6.944   2.289
 2500TIP3    H1 7441   4.612   7.031   2.257
 2500TIP3    H2 7442   4.569   6.924   2.355
 2501TIP3   OH2 7443   2.041   0.891   4.265
 2501TIP3    H1 7444   2.104   0.958   4.237
 2501TIP3    H2 7445   1.982   0.880   4.190
 2502TIP3   OH2 7446  -0.008   7.193   5.671
 2502TIP3    H1 7447   0.066   7.220   5.726
 2502TIP3    H2 7448   0.022   7.113   5.628
 2503TIP3   OH2 7449   7.232   4.647   2.150
 2503TIP3    H1 7450   7.291   4.711   2.190
 2503TIP3    H2 7451   7.222   4.579   2.216
 2504TIP3   OH2 7452   2.506   2.766   6.761
 2504TIP3    H1 7453   2.495   2.814   6.679
 2504TIP3    H2 7454   2.529   2.677   6.733
 2505TIP3   OH2 7455   1.862   0.375   5.507
 2505TIP3    H1 7456   1.857   0.452   5.564
 2505TIP3    H2 7457   1.929   0.397   5.443
 2506TIP3   OH2 7458   0.486   7.319   3.523
 2506TIP3    H1 7459   0.417   7.354   3.580
 2506TIP3    H2 7460   0.567   7.335   3.571
 2507TIP3   OH2 7461   6.070   4.113   0.424
 2507TIP3    H1 7462   6.001   4.097   0.488
 2507TIP3    H2 7463   6.049   4.055   0.350
 2508TIP3   OH2 7464   4.048   4.042   5.870
 2508TIP3    H1 7465   3.958   4.058   5.840
 2508TIP3    H2 7466   4.099   4.112   5.832
 2509TIP3   OH2 7467   4.381   5.448   2.738
 2509TIP3    H1 7468   4.440   5.380   2.707
 2509TIP3    H2 7469   4.299   5.402   2.759
 2510TIP3   OH2 7470   6.093   5.505   3.857
 2510TIP3    H1 7471   6.007   5.469   3.880
 2510TIP3    H2 7472   6.111   5.470   3.770
 2511TIP3   OH2 7473   7.111   3.809   0.578
 2511TIP3    H1 7474   7.086   3.732   0.628
 2511TIP3    H2 7475   7.034   3.832   0.527
 2512TIP3   OH2 7476   0.540   1.935   4.781
 2512TIP3    H1 7477   0.596   1.885   4.839
 2512TIP3    H2 7478   0.564   1.906   4.693
 2513TIP3   OH2 7479   3.371   7.638   6.685
 2513TIP3    H1 7480   3.436   7.631   6.616
 2513TIP3    H2 7481   3.287   7.643   6.638
 2514TIP3   OH2 7482   6.698   1.893   4.229
 2514TIP3    H1 7483   6.676   1.956   4.160
 2514TIP3    H2 7484   6.643   1.919   4.303
 2515TIP3   OH2 7485   5.168   3.796   0.491
 2515TIP3    H1 7486   5.164   3.882   0.448
 2515TIP3    H2 7487   5.094   3.796   0.551
 2516TIP3   OH2 7488   6.014   7.126   5.377
 2516TIP3    H1 7489   5.962   7.168   5.308
 2516TIP3    H2 7490   5.950   7.082   5.432
 2517TIP3   OH2 7491   1.511   5.987   4.107
 2517TIP3    H1 7492   1.445   6.042   4.151
 2517TIP3    H2 7493   1.564   6.049   4.057
 2518TIP3   OH2 7494   7.016   2.693   6.093
 2518TIP3    H1 7495   7.103   2.655   6.109
 2518TIP3    H2 7496   6.982   2.711   6.181
 2519TIP3   OH2 7497   0.254   1.791   1.167
 2519TIP3    H1 7498   0.290   1.753   1.247
 2519TIP3    H2 7499   0.165   1.758   1.162
 2520TIP3   OH2 7500   2.607   5.983   3.114
 2520TIP3    H1 7501   2.522   5.991   3.070
 2520TIP3    H2 7502   2.601   5.900   3.162
 2521TIP3   OH2 7503   0.398   5.278   4.810
 2521TIP3    H1 7504   0.360   5.192   4.792
 2521TIP3    H2 7505   0.491   5.262   4.823
 2522TIP3   OH2 7506   2.813   3.534   5.710
 2522TIP3    H1 7507   2.823   3.492   5.625
 2522TIP3    H2 7508   2.735   3.589   5.701
 2523TIP3   OH2 7509   3.015   6.194   2.533
 2523TIP3    H1 7510   2.939   6.232   2.575
 2523TIP3    H2 7511   2.997   6.100   2.529
 2524TIP3   OH2 7512   1.702   1.534   0.406
 2524TIP3    H1 7513   1.786   1.579   0.418
 2524TIP3    H2 7514   1.668   1.569   0.324
 2525TIP3   OH2 7515   4.355   4.503   4.955
 2525TIP3    H1 7516   4.380   4.437   4.890
 2525TIP3    H2 7517   4.330   4.579   4.903
 2526TIP3   OH2 7518   4.602   3.274   2.192
 2526TIP3    H1 7519   4.551   3.352   2.216
 2526TIP3    H2 7520   4.536   3.206   2.179
 2527TIP3   OH2 7521   7.642   0.549   2.294
 2527TIP3    H1 7522   7.734   0.573   2.289
 2527TIP3    H2 7523   7.601   0.622   2.341
 2528TIP3   OH2 7524   1.813   5.776   2.550
 2528TIP3    H1 7525   1.809   5.702   2.611
 2528TIP3    H2 7526   1.755   5.750   2.478
 2529TIP3   OH2 7527   4.810   5.687   3.934
 2529TIP3    H1 7528   4.821   5.781   3.921
 2529TIP3    H2 7529   4.885   5.662   3.988
 2530TIP3   OH2 7530   1.326   3.910   1.731
 2530TIP3    H1 7531   1.352   3.998   1.705
 2530TIP3    H2 7532   1.276   3.876   1.657
 2531TIP3   OH2 7533   3.658   5.603   3.715
 2531TIP3    H1 7534   3.689   5.529   3.663
 2531TIP3    H2 7535   3.738   5.647   3.744
 2532TIP3   OH2 7536   0.750   6.792   4.149
 2532TIP3    H1 7537   0.792   6.795   4.063
 2532TIP3    H2 7538   0.822   6.781   4.211
 2533TIP3   OH2 7539   0.566   2.905   3.102
 2533TIP3    H1 7540   0.519   2.955   3.035
 2533TIP3    H2 7541   0.647   2.879   3.058
 2534TIP3   OH2 7542   4.653   5.800   3.145
 2534TIP3    H1 7543   4.720   5.812   3.078
 2534TIP3    H2 7544   4.570   5.798   3.097
 2535TIP3   OH2 7545   0.290   6.161   5.718
 2535TIP3    H1 7546   0.225   6.115   5.664
 2535TIP3    H2 7547   0.243   6.182   5.798
 2536TIP3   OH2 7548   7.337   0.918   2.284
 2536TIP3    H1 7549   7.371   0.864   2.355
 2536TIP3    H2 7550   7.244   0.927   2.302
 2537TIP3   OH2 7551   2.315   3.106   0.139
 2537TIP3    H1 7552   2.326   3.190   0.185
 2537TIP3    H2 7553   2.394   3.057   0.161
 2538TIP3   OH2 7554   7.971   7.720   1.548
 2538TIP3    H1 7555   8.052   7.770   1.557
 2538TIP3    H2 7556   7.903   7.787   1.541
 2539TIP3   OH2 7557   5.543   1.182   4.718
 2539TIP3    H1 7558   5.619   1.197   4.663
 2539TIP3    H2 7559   5.474   1.235   4.679
 2540TIP3   OH2 7560   0.507   2.064   0.911
 2540TIP3    H1 7561   0.511   2.131   0.843
 2540TIP3    H2 7562   0.420   2.024   0.900
 2541TIP3   OH2 7563   3.161   5.261   1.063
 2541TIP3    H1 7564   3.247   5.301   1.076
 2541TIP3    H2 7565   3.104   5.333   1.036
 2542TIP3   OH2 7566   0.518   0.815   3.833
 2542TIP3    H1 7567   0.533   0.906   3.858
 2542TIP3    H2 7568   0.422   0.808   3.826
 2543TIP3   OH2 7569   7.353   1.290   4.163
 2543TIP3    H1 7570   7.433   1.243   4.138
 2543TIP3    H2 7571   7.315   1.319   4.080
 2544TIP3   OH2 7572   5.070   4.491   0.993
 2544TIP3    H1 7573   5.142   4.520   0.938
 2544TIP3    H2 7574   5.031   4.571   1.027
 2545TIP3   OH2 7575   0.805   1.207   2.063
 2545TIP3    H1 7576   0.888   1.211   2.112
 2545TIP3    H2 7577   0.801   1.291   2.017
 2546TIP3   OH2 7578   5.948   2.447   1.297
 2546TIP3    H1 7579   5.868   2.472   1.250
 2546TIP3    H2 7580   5.988   2.381   1.240
 2547TIP3   OH2 7581   2.658   1.142   5.193
 2547TIP3    H1 7582   2.622   1.136   5.105
 2547TIP3    H2 7583   2.677   1.235   5.206
 2548TIP3   OH2 7584   5.028   2.439   6.397
 2548TIP3    H1 7585   4.955   2.494   6.368
 2548TIP3    H2 7586   5.023   2.361   6.342
 2549TIP3   OH2 7587   4.375   7.614   1.052
 2549TIP3    H1 7588   4.447   7.677   1.051
 2549TIP3    H2 7589   4.379   7.574   1.139
 2550TIP3   OH2 7590   2.892   1.493   3.159
 2550TIP3    H1 7591   2.799   1.489   3.135
 2550TIP3    H2 7592   2.928   1.409   3.131
 2551TIP3   OH2 7593   2.981   5.482   6.016
 2551TIP3    H1 7594   2.902   5.430   6.030
 2551TIP3    H2 7595   3.049   5.434   6.063
 2552TIP3   OH2 7596   1.216   4.629   2.392
 2552TIP3    H1 7597   1.176   4.702   2.344
 2552TIP3    H2 7598   1.261   4.578   2.326
 2553TIP3   OH2 7599   2.821   5.253   5.803
 2553TIP3    H1 7600   2.736   5.284   5.774
 2553TIP3    H2 7601   2.810   5.238   5.897
 2554TIP3   OH2 7602   7.414   5.296   3.297
 2554TIP3    H1 7603   7.452   5.220   3.340
 2554TIP3    H2 7604   7.381   5.350   3.369
 2555TIP3   OH2 7605   1.845   6.081   0.633
 2555TIP3    H1 7606   1.929   6.065   0.675
 2555TIP3    H2 7607   1.782   6.083   0.705
 2556TIP3   OH2 7608   1.717   4.501   6.228
 2556TIP3    H1 7609   1.806   4.535   6.233
 2556TIP3    H2 7610   1.662   4.576   6.249
 2557TIP3   OH2 7611   0.580   3.095   5.689
 2557TIP3    H1 7612   0.509   3.091   5.754
 2557TIP3    H2 7613   0.538   3.135   5.612
 2558TIP3   OH2 7614   2.833   3.394   2.419
 2558TIP3    H1 7615   2.758   3.445   2.387
 2558TIP3    H2 7616   2.811   3.304   2.395
 2559TIP3   OH2 7617   2.968   7.252   6.625
 2559TIP3    H1 7618   2.880   7.284   6.645
 2559TIP3    H2 7619   2.953   7.166   6.585
 2560TIP3   OH2 7620   6.259   3.485   6.885
 2560TIP3    H1 7621   6.230   3.424   6.818
 2560TIP3    H2 7622   6.346   3.454   6.911
 2561TIP3   OH2 7623   6.179   3.011   4.683
 2561TIP3    H1 7624   6.118   2.957   4.632
 2561TIP3    H2 7625   6.136   3.096   4.689
 2562TIP3   OH2 7626   3.007   2.057   1.050
 2562TIP3    H1 7627   2.987   1.963   1.047
 2562TIP3    H2 7628   3.039   2.078   0.962
 2563TIP3   OH2 7629   3.438   2.853   1.776
 2563TIP3    H1 7630   3.489   2.877   1.699
 2563TIP3    H2 7631   3.489   2.784   1.818
 2564TIP3   OH2 7632   6.582   7.558   1.238
 2564TIP3    H1 7633   6.671   7.574   1.267
 2564TIP3    H2 7634   6.546   7.498   1.303
 2565TIP3   OH2 7635   3.361   2.818   4.268
 2565TIP3    H1 7636   3.358   2.781   4.180
 2565TIP3    H2 7637   3.357   2.742   4.327
 2566TIP3   OH2 7638   6.143   3.148   2.879
 2566TIP3    H1 7639   6.187   3.228   2.909
 2566TIP3    H2 7640   6.210   3.080   2.882
 2567TIP3   OH2 7641   4.010   4.654   4.916
 2567TIP3    H1 7642   3.993   4.618   4.829
 2567TIP3    H2 7643   3.947   4.609   4.973
 2568TIP3   OH2 7644   3.071   4.285   1.457
 2568TIP3    H1 7645   3.040   4.215   1.399
 2568TIP3    H2 7646   3.163   4.296   1.434
 2569TIP3   OH2 7647   4.614   3.974   2.939
 2569TIP3    H1 7648   4.554   3.916   2.986
 2569TIP3    H2 7649   4.604   4.059   2.981
 2570TIP3   OH2 7650   2.046   1.633   0.140
 2570TIP3    H1 7651   2.108   1.662   0.206
 2570TIP3    H2 7652   2.008   1.553   0.175
 2571TIP3   OH2 7653   1.118   7.705   1.377
 2571TIP3    H1 7654   1.041   7.696   1.433
 2571TIP3    H2 7655   1.095   7.773   1.314
 2572TIP3   OH2 7656   7.892   3.589   2.887
 2572TIP3    H1 7657   7.872   3.653   2.955
 2572TIP3    H2 7658   7.952   3.528   2.929
 2573TIP3   OH2 7659   1.252   1.038   2.274
 2573TIP3    H1 7660   1.283   0.991   2.197
 2573TIP3    H2 7661   1.266   0.976   2.347
 2574TIP3   OH2 7662   2.563   6.040   2.438
 2574TIP3    H1 7663   2.626   6.069   2.504
 2574TIP3    H2 7664   2.477   6.061   2.477
 2575TIP3   OH2 7665   5.994   1.720   2.528
 2575TIP3    H1 7666   6.029   1.642   2.486
 2575TIP3    H2 7667   6.041   1.726   2.611
 2576TIP3   OH2 7668   6.695   3.162   3.892
 2576TIP3    H1 7669   6.784   3.149   3.924
 2576TIP3    H2 7670   6.644   3.178   3.971
 2577TIP3   OH2 7671   8.265   1.805   2.189
 2577TIP3    H1 7672   8.275   1.766   2.276
 2577TIP3    H2 7673   8.265   1.731   2.129
 2578TIP3   OH2 7674   0.816   3.765   1.829
 2578TIP3    H1 7675   0.900   3.729   1.802
 2578TIP3    H2 7676   0.817   3.761   1.925
 2579TIP3   OH2 7677   0.926   0.699   0.107
 2579TIP3    H1 7678   0.958   0.614   0.076
 2579TIP3    H2 7679   0.977   0.763   0.057
 2580TIP3   OH2 7680   2.585   0.277   6.297
 2580TIP3    H1 7681   2.614   0.216   6.229
 2580TIP3    H2 7682   2.650   0.347   6.297
 2581TIP3   OH2 7683   6.985   5.634   6.682
 2581TIP3    H1 7684   6.943   5.596   6.605
 2581TIP3    H2 7685   6.913   5.664   6.737
 2582TIP3   OH2 7686   5.252   5.308   0.795
 2582TIP3    H1 7687   5.228   5.394   0.761
 2582TIP3    H2 7688   5.333   5.323   0.844
 2583TIP3   OH2 7689   1.222   4.138   4.982
 2583TIP3    H1 7690   1.216   4.233   4.996
 2583TIP3    H2 7691   1.196   4.100   5.066
 2584TIP3   OH2 7692   4.494   0.854   2.836
 2584TIP3    H1 7693   4.445   0.935   2.853
 2584TIP3    H2 7694   4.559   0.851   2.906
 2585TIP3   OH2 7695   3.130   5.679   1.450
 2585TIP3    H1 7696   3.041   5.661   1.481
 2585TIP3    H2 7697   3.144   5.614   1.380
 2586TIP3   OH2 7698   7.066   4.710   5.854
 2586TIP3    H1 7699   7.104   4.623   5.848
 2586TIP3    H2 7700   7.119   4.755   5.920
 2587TIP3   OH2 7701   5.613   2.207   2.225
 2587TIP3    H1 7702   5.704   2.202   2.195
 2587TIP3    H2 7703   5.596   2.300   2.235
 2588TIP3   OH2 7704   2.007   5.185   1.493
 2588TIP3    H1 7705   2.015   5.111   1.432
 2588TIP3    H2 7706   2.095   5.224   1.493
 2589TIP3   OH2 7707   3.263   1.686   5.598
 2589TIP3    H1 7708   3.228   1.666   5.512
 2589TIP3    H2 7709   3.334   1.622   5.611
 2590TIP3   OH2 7710   4.897   5.787   3.574
 2590TIP3    H1 7711   4.820   5.730   3.569
 2590TIP3    H2 7712   4.884   5.852   3.505
 2591TIP3   OH2 7713   4.175   3.500   5.320
 2591TIP3    H1 7714   4.163   3.415   5.363
 2591TIP3    H2 7715   4.266   3.524   5.338
 2592TIP3   OH2 7716   1.589   2.179   0.218
 2592TIP3    H1 7717   1.496   2.162   0.229
 2592TIP3    H2 7718   1.619   2.208   0.304
 2593TIP3   OH2 7719   7.929   4.104   1.056
 2593TIP3    H1 7720   7.990   4.053   1.003
 2593TIP3    H2 7721   7.943   4.073   1.146
 2594TIP3   OH2 7722   3.936   2.377   3.504
 2594TIP3    H1 7723   4.007   2.408   3.560
 2594TIP3    H2 7724   3.856   2.395   3.553
 2595TIP3   OH2 7725   7.454   5.420   4.774
 2595TIP3    H1 7726   7.407   5.376   4.845
 2595TIP3    H2 7727   7.465   5.353   4.707
 2596TIP3   OH2 7728   4.327   4.220   6.739
 2596TIP3    H1 7729   4.286   4.262   6.815
 2596TIP3    H2 7730   4.261   4.160   6.706
 2597TIP3   OH2 7731   0.955   4.181   6.026
 2597TIP3    H1 7732   0.965   4.136   6.110
 2597TIP3    H2 7733   0.863   4.169   6.003
 2598TIP3   OH2 7734   1.371   2.484   3.861
 2598TIP3    H1 7735   1.451   2.528   3.890
 2598TIP3    H2 7736   1.374   2.490   3.765
 2599TIP3   OH2 7737   1.965   3.660   3.695
 2599TIP3    H1 7738   2.019   3.684   3.771
 2599TIP3    H2 7739   2.012   3.588   3.653
 2600TIP3   OH2 7740   6.351   5.561   4.909
 2600TIP3    H1 7741   6.413   5.544   4.980
 2600TIP3    H2 7742   6.266   5.540   4.946
 2601TIP3   OH2 7743   6.771   5.223   3.527
 2601TIP3    H1 7744   6.731   5.142   3.558
 2601TIP3    H2 7745   6.803   5.202   3.439
 2602TIP3   OH2 7746   4.049   7.537   3.306
 2602TIP3    H1 7747   4.005   7.590   3.240
 2602TIP3    H2 7748   4.129   7.506   3.263
 2603TIP3   OH2 7749   3.053   2.180   1.852
 2603TIP3    H1 7750   3.116   2.229   1.800
 2603TIP3    H2 7751   2.989   2.245   1.880
 2604TIP3   OH2 7752   8.019   6.012   5.747
 2604TIP3    H1 7753   8.049   5.922   5.758
 2604TIP3    H2 7754   8.082   6.050   5.685
 2605TIP3   OH2 7755   5.847   6.052   6.612
 2605TIP3    H1 7756   5.841   5.979   6.552
 2605TIP3    H2 7757   5.932   6.041   6.656
 2606TIP3   OH2 7758   1.578   5.771   3.588
 2606TIP3    H1 7759   1.509   5.836   3.597
 2606TIP3    H2 7760   1.532   5.688   3.575
 2607TIP3   OH2 7761   7.841   6.376   5.100
 2607TIP3    H1 7762   7.819   6.328   5.179
 2607TIP3    H2 7763   7.935   6.363   5.089
 2608TIP3   OH2 7764   5.224   2.580   6.656
 2608TIP3    H1 7765   5.312   2.545   6.645
 2608TIP3    H2 7766   5.167   2.515   6.615
 2609TIP3   OH2 7767   0.783   7.103   6.424
 2609TIP3    H1 7768   0.759   7.035   6.486
 2609TIP3    H2 7769   0.732   7.083   6.345
 2610TIP3   OH2 7770   4.530   7.866   6.276
 2610TIP3    H1 7771   4.569   7.941   6.233
 2610TIP3    H2 7772   4.535   7.886   6.370
 2611TIP3   OH2 7773   0.421   6.038   4.313
 2611TIP3    H1 7774   0.338   5.992   4.305
 2611TIP3    H2 7775   0.435   6.075   4.226
 2612TIP3   OH2 7776   1.310   3.195   2.514
 2612TIP3    H1 7777   1.231   3.141   2.521
 2612TIP3    H2 7778   1.369   3.160   2.581
 2613TIP3   OH2 7779   2.203   0.043   0.303
 2613TIP3    H1 7780   2.231   0.036   0.212
 2613TIP3    H2 7781   2.115   0.081   0.299
 2614TIP3   OH2 7782   5.385   1.880   2.427
 2614TIP3    H1 7783   5.336   1.907   2.505
 2614TIP3    H2 7784   5.453   1.947   2.417
 2615TIP3   OH2 7785   6.048   4.717   3.577
 2615TIP3    H1 7786   6.117   4.770   3.617
 2615TIP3    H2 7787   5.966   4.761   3.602
 2616TIP3   OH2 7788   1.656   2.254   4.530
 2616TIP3    H1 7789   1.716   2.188   4.566
 2616TIP3    H2 7790   1.678   2.259   4.437
 2617TIP3   OH2 7791   1.204   2.133   1.691
 2617TIP3    H1 7792   1.118   2.116   1.653
 2617TIP3    H2 7793   1.235   2.213   1.647
 2618TIP3   OH2 7794   1.946   1.137   6.582
 2618TIP3    H1 7795   2.032   1.100   6.560
 2618TIP3    H2 7796   1.888   1.061   6.585
 2619TIP3   OH2 7797   4.591   6.852   5.878
 2619TIP3    H1 7798   4.507   6.860   5.924
 2619TIP3    H2 7799   4.641   6.928   5.905
 2620TIP3   OH2 7800   5.245   5.208   5.447
 2620TIP3    H1 7801   5.191   5.242   5.377
 2620TIP3    H2 7802   5.185   5.195   5.521
 2621TIP3   OH2 7803   7.026   7.031   5.405
 2621TIP3    H1 7804   6.959   6.978   5.363
 2621TIP3    H2 7805   6.977   7.088   5.465
 2622TIP3   OH2 7806   2.938   6.928   5.202
 2622TIP3    H1 7807   2.963   6.908   5.292
 2622TIP3    H2 7808   2.928   7.023   5.200
 2623TIP3   OH2 7809   1.324   0.442   3.362
 2623TIP3    H1 7810   1.266   0.366   3.371
 2623TIP3    H2 7811   1.300   0.499   3.434
 2624TIP3   OH2 7812   0.565   6.450   6.171
 2624TIP3    H1 7813   0.492   6.396   6.143
 2624TIP3    H2 7814   0.629   6.388   6.207
 2625TIP3   OH2 7815   7.742   0.382   4.660
 2625TIP3    H1 7816   7.666   0.325   4.653
 2625TIP3    H2 7817   7.817   0.323   4.657
 2626TIP3   OH2 7818   3.072   4.831   4.066
 2626TIP3    H1 7819   3.107   4.920   4.066
 2626TIP3    H2 7820   3.045   4.816   3.976
 2627TIP3   OH2 7821   3.464   0.103   3.619
 2627TIP3    H1 7822   3.494   0.013   3.604
 2627TIP3    H2 7823   3.540   0.148   3.656
 2628TIP3   OH2 7824   0.241   5.145   3.423
 2628TIP3    H1 7825   0.238   5.188   3.508
 2628TIP3    H2 7826   0.179   5.073   3.430
 2629TIP3   OH2 7827   2.986   1.806   3.635
 2629TIP3    H1 7828   2.910   1.789   3.690
 2629TIP3    H2 7829   2.950   1.815   3.547
 2630TIP3   OH2 7830   0.728   3.109   2.767
 2630TIP3    H1 7831   0.638   3.140   2.779
 2630TIP3    H2 7832   0.718   3.023   2.725
 2631TIP3   OH2 7833   5.064   2.414   1.410
 2631TIP3    H1 7834   5.090   2.432   1.501
 2631TIP3    H2 7835   5.004   2.340   1.417
 2632TIP3   OH2 7836   7.085   3.404   3.196
 2632TIP3    H1 7837   7.152   3.363   3.250
 2632TIP3    H2 7838   7.031   3.454   3.258
 2633TIP3   OH2 7839   4.211   3.929   6.054
 2633TIP3    H1 7840   4.162   3.957   6.132
 2633TIP3    H2 7841   4.166   3.972   5.982
 2634TIP3   OH2 7842   5.501   1.328   1.252
 2634TIP3    H1 7843   5.538   1.366   1.333
 2634TIP3    H2 7844   5.548   1.373   1.182
 2635TIP3   OH2 7845   4.446   1.879   5.957
 2635TIP3    H1 7846   4.384   1.952   5.955
 2635TIP3    H2 7847   4.443   1.846   6.047
 2636TIP3   OH2 7848   3.849   2.983   4.935
 2636TIP3    H1 7849   3.942   2.968   4.918
 2636TIP3    H2 7850   3.811   2.895   4.939
 2637TIP3   OH2 7851   1.529   6.547   6.250
 2637TIP3    H1 7852   1.447   6.596   6.252
 2637TIP3    H2 7853   1.535   6.516   6.159
 2638TIP3   OH2 7854   5.555   5.286   1.114
 2638TIP3    H1 7855   5.462   5.295   1.135
 2638TIP3    H2 7856   5.563   5.321   1.025
 2639TIP3   OH2 7857   1.442   7.549   2.530
 2639TIP3    H1 7858   1.435   7.491   2.606
 2639TIP3    H2 7859   1.479   7.494   2.461
 2640TIP3   OH2 7860   1.031   1.041   2.579
 2640TIP3    H1 7861   1.000   1.004   2.662
 2640TIP3    H2 7862   1.097   1.106   2.605
 2641TIP3   OH2 7863   4.604   2.057   3.912
 2641TIP3    H1 7864   4.673   2.076   3.974
 2641TIP3    H2 7865   4.605   1.962   3.902
 2642TIP3   OH2 7866   1.493   0.467   4.865
 2642TIP3    H1 7867   1.491   0.429   4.953
 2642TIP3    H2 7868   1.579   0.507   4.859
 2643TIP3   OH2 7869   2.100   0.024   3.980
 2643TIP3    H1 7870   2.032  -0.004   4.040
 2643TIP3    H2 7871   2.118  -0.054   3.927
 2644TIP3   OH2 7872   3.102   4.349   1.004
 2644TIP3    H1 7873   3.099   4.416   0.936
 2644TIP3    H2 7874   3.172   4.290   0.976
 2645TIP3   OH2 7875   6.915   6.710   2.401
 2645TIP3    H1 7876   6.898   6.623   2.365
 2645TIP3    H2 7877   6.965   6.755   2.333
 2646TIP3   OH2 7878   0.592   4.635   6.504
 2646TIP3    H1 7879   0.515   4.617   6.451
 2646TIP3    H2 7880   0.665   4.602   6.451
 2647TIP3   OH2 7881   3.681   4.693   6.028
 2647TIP3    H1 7882   3.598   4.693   6.076
 2647TIP3    H2 7883   3.703   4.785   6.018
 2648TIP3   OH2 7884   0.204   7.250   4.717
 2648TIP3    H1 7885   0.204   7.307   4.794
 2648TIP3    H2 7886   0.152   7.297   4.652
 2649TIP3   OH2 7887   3.781   4.431   0.864
 2649TIP3    H1 7888   3.692   4.460   0.884
 2649TIP3    H2 7889   3.778   4.402   0.773
 2650TIP3   OH2 7890   5.022   1.679   2.599
 2650TIP3    H1 7891   5.110   1.643   2.610
 2650TIP3    H2 7892   4.972   1.608   2.559
 2651TIP3   OH2 7893   4.886   0.510   4.569
 2651TIP3    H1 7894   4.940   0.563   4.627
 2651TIP3    H2 7895   4.883   0.560   4.487
 2652TIP3   OH2 7896   3.635   6.287   2.760
 2652TIP3    H1 7897   3.655   6.276   2.667
 2652TIP3    H2 7898   3.544   6.260   2.769
 2653TIP3   OH2 7899   7.935   5.545   3.314
 2653TIP3    H1 7900   7.896   5.628   3.340
 2653TIP3    H2 7901   7.869   5.480   3.337
 2654TIP3   OH2 7902   3.380   1.263   0.982
 2654TIP3    H1 7903   3.450   1.200   0.999
 2654TIP3    H2 7904   3.307   1.211   0.949
 2655TIP3   OH2 7905   7.456   1.633   0.709
 2655TIP3    H1 7906   7.386   1.673   0.657
 2655TIP3    H2 7907   7.473   1.549   0.666
 2656TIP3   OH2 7908   6.658   4.689   2.252
 2656TIP3    H1 7909   6.654   4.617   2.314
 2656TIP3    H2 7910   6.567   4.711   2.234
 2657TIP3   OH2 7911   3.713   0.296   3.123
 2657TIP3    H1 7912   3.671   0.356   3.185
 2657TIP3    H2 7913   3.687   0.209   3.153
 2658TIP3   OH2 7914   1.488   1.514   1.850
 2658TIP3    H1 7915   1.560   1.576   1.843
 2658TIP3    H2 7916   1.520   1.447   1.910
 2659TIP3   OH2 7917   1.340   7.341   0.292
 2659TIP3    H1 7918   1.257   7.388   0.282
 2659TIP3    H2 7919   1.407   7.409   0.296
 2660TIP3   OH2 7920   8.354   3.101   5.736
 2660TIP3    H1 7921   8.443   3.114   5.702
 2660TIP3    H2 7922   8.357   3.014   5.777
 2661TIP3   OH2 7923   6.895   4.768   3.753
 2661TIP3    H1 7924   6.817   4.731   3.794
 2661TIP3    H2 7925   6.960   4.698   3.757
 2662TIP3   OH2 7926   7.265   3.740   3.402
 2662TIP3    H1 7927   7.201   3.811   3.401
 2662TIP3    H2 7928   7.350   3.783   3.393
 2663TIP3   OH2 7929   3.513   4.238   2.794
 2663TIP3    H1 7930   3.443   4.182   2.760
 2663TIP3    H2 7931   3.486   4.327   2.772
 2664TIP3   OH2 7932   5.654   3.901   6.204
 2664TIP3    H1 7933   5.703   3.924   6.126
 2664TIP3    H2 7934   5.720   3.876   6.268
 2665TIP3   OH2 7935   6.184   5.572   5.604
 2665TIP3    H1 7936   6.230   5.538   5.527
 2665TIP3    H2 7937   6.253   5.616   5.655
 2666TIP3   OH2 7938   2.828   4.423   1.701
 2666TIP3    H1 7939   2.918   4.448   1.678
 2666TIP3    H2 7940   2.775   4.456   1.629
 2667TIP3   OH2 7941   8.037   7.552   3.007
 2667TIP3    H1 7942   8.004   7.485   2.947
 2667TIP3    H2 7943   8.106   7.596   2.957
 2668TIP3   OH2 7944   6.154   6.650   0.149
 2668TIP3    H1 7945   6.229   6.696   0.187
 2668TIP3    H2 7946   6.138   6.695   0.067
 2669TIP3   OH2 7947   1.427   5.556   6.336
 2669TIP3    H1 7948   1.444   5.650   6.331
 2669TIP3    H2 7949   1.381   5.544   6.418
 2670TIP3   OH2 7950   6.676   5.743   3.141
 2670TIP3    H1 7951   6.621   5.730   3.218
 2670TIP3    H2 7952   6.673   5.838   3.125
 2671TIP3   OH2 7953   4.928   5.720   2.070
 2671TIP3    H1 7954   4.887   5.634   2.077
 2671TIP3    H2 7955   5.021   5.704   2.088
 2672TIP3   OH2 7956   7.784   0.892   6.009
 2672TIP3    H1 7957   7.718   0.827   5.986
 2672TIP3    H2 7958   7.867   0.848   5.994
 2673TIP3   OH2 7959   4.336   0.786   6.358
 2673TIP3    H1 7960   4.338   0.787   6.453
 2673TIP3    H2 7961   4.254   0.740   6.336
 2674TIP3   OH2 7962   7.521   6.390   2.031
 2674TIP3    H1 7963   7.448   6.426   2.081
 2674TIP3    H2 7964   7.506   6.420   1.941
 2675TIP3   OH2 7965   3.327   7.660   2.813
 2675TIP3    H1 7966   3.263   7.701   2.871
 2675TIP3    H2 7967   3.410   7.705   2.833
 2676TIP3   OH2 7968   3.652   1.304   1.870
 2676TIP3    H1 7969   3.714   1.242   1.907
 2676TIP3    H2 7970   3.705   1.377   1.838
 2677TIP3   OH2 7971   1.246   0.795   0.586
 2677TIP3    H1 7972   1.263   0.738   0.661
 2677TIP3    H2 7973   1.330   0.838   0.569
 2678TIP3   OH2 7974   3.147   2.575   5.637
 2678TIP3    H1 7975   3.099   2.501   5.601
 2678TIP3    H2 7976   3.087   2.649   5.630
 2679TIP3   OH2 7977   1.483   7.727   6.042
 2679TIP3    H1 7978   1.401   7.776   6.048
 2679TIP3    H2 7979   1.517   7.748   5.955
 2680TIP3   OH2 7980   1.550   3.655   3.337
 2680TIP3    H1 7981   1.528   3.669   3.245
 2680TIP3    H2 7982   1.601   3.574   3.337
 2681TIP3   OH2 7983   3.212   3.909   3.621
 2681TIP3    H1 7984   3.125   3.872   3.607
 2681TIP3    H2 7985   3.200   3.970   3.694
 2682TIP3   OH2 7986   2.114   6.322   3.745
 2682TIP3    H1 7987   2.050   6.326   3.816
 2682TIP3    H2 7988   2.176   6.392   3.765
 2683TIP3   OH2 7989   4.416   3.093   2.756
 2683TIP3    H1 7990   4.426   3.019   2.817
 2683TIP3    H2 7991   4.346   3.146   2.794
 2684TIP3   OH2 7992   1.328   7.773   0.230
 2684TIP3    H1 7993   1.329   7.834   0.304
 2684TIP3    H2 7994   1.241   7.735   0.231
 2685TIP3   OH2 7995   6.457   5.278   0.272
 2685TIP3    H1 7996   6.449   5.346   0.206
 2685TIP3    H2 7997   6.517   5.214   0.234
 2686TIP3   OH2 7998   2.294   1.785   5.745
 2686TIP3    H1 7999   2.262   1.695   5.745
 2686TIP3    H2 8000   2.217   1.837   5.722
 2687TIP3   OH2 8001   7.372   6.875   3.507
 2687TIP3    H1 8002   7.345   6.879   3.599
 2687TIP3    H2 8003   7.315   6.810   3.467
 2688TIP3   OH2 8004   5.954   6.516   1.222
 2688TIP3    H1 8005   5.864   6.483   1.226
 2688TIP3    H2 8006   5.993   6.470   1.148
 2689TIP3   OH2 8007   1.317   6.823   5.352
 2689TIP3    H1 8008   1.237   6.790   5.393
 2689TIP3    H2 8009   1.337   6.903   5.400
 2690TIP3   OH2 8010   4.753   4.588   4.597
 2690TIP3    H1 8011   4.763   4.537   4.677
 2690TIP3    H2 8012   4.831   4.643   4.594
 2691TIP3   OH2 8013   1.074   5.171   0.811
 2691TIP3    H1 8014   1.168   5.168   0.795
 2691TIP3    H2 8015   1.038   5.097   0.761
 2692TIP3   OH2 8016   5.205   0.053   6.522
 2692TIP3    H1 8017   5.194   0.055   6.617
 2692TIP3    H2 8018   5.199  -0.039   6.499
 2693TIP3   OH2 8019   8.160   3.147   2.912
 2693TIP3    H1 8020   8.091   3.080   2.917
 2693TIP3    H2 8021   8.228   3.107   2.857
 2694TIP3   OH2 8022   1.087   5.933   2.793
 2694TIP3    H1 8023   1.013   5.872   2.791
 2694TIP3    H2 8024   1.079   5.983   2.712
 2695TIP3   OH2 8025   5.271   1.843   3.373
 2695TIP3    H1 8026   5.201   1.794   3.416
 2695TIP3    H2 8027   5.351   1.794   3.395
 2696TIP3   OH2 8028   2.467   0.831   6.313
 2696TIP3    H1 8029   2.425   0.803   6.394
 2696TIP3    H2 8030   2.557   0.799   6.320
 2697TIP3   OH2 8031   1.628   6.201   0.417
 2697TIP3    H1 8032   1.583   6.177   0.498
 2697TIP3    H2 8033   1.691   6.130   0.403
 2698TIP3   OH2 8034   6.829   7.697   6.061
 2698TIP3    H1 8035   6.876   7.779   6.074
 2698TIP3    H2 8036   6.753   7.721   6.008
 2699TIP3   OH2 8037   3.459   1.763   1.342
 2699TIP3    H1 8038   3.448   1.727   1.254
 2699TIP3    H2 8039   3.398   1.837   1.344
 2700TIP3   OH2 8040   0.657   1.703   3.435
 2700TIP3    H1 8041   0.637   1.720   3.342
 2700TIP3    H2 8042   0.604   1.626   3.457
 2701TIP3   OH2 8043   0.462   2.953   4.825
 2701TIP3    H1 8044   0.493   2.876   4.873
 2701TIP3    H2 8045   0.512   2.952   4.743
 2702TIP3   OH2 8046   3.021   5.664   3.626
 2702TIP3    H1 8047   2.934   5.697   3.648
 2702TIP3    H2 8048   3.004   5.592   3.565
 2703TIP3   OH2 8049   5.520   4.244   2.143
 2703TIP3    H1 8050   5.558   4.207   2.064
 2703TIP3    H2 8051   5.595   4.256   2.202
 2704TIP3   OH2 8052   8.206   0.860   3.893
 2704TIP3    H1 8053   8.266   0.852   3.966
 2704TIP3    H2 8054   8.221   0.781   3.840
 2705TIP3   OH2 8055   0.597   4.250   2.805
 2705TIP3    H1 8056   0.658   4.321   2.784
 2705TIP3    H2 8057   0.513   4.294   2.814
 2706TIP3   OH2 8058   6.181   4.406   1.294
 2706TIP3    H1 8059   6.236   4.378   1.367
 2706TIP3    H2 8060   6.201   4.343   1.224
 2707TIP3   OH2 8061   6.805   5.744   2.125
 2707TIP3    H1 8062   6.747   5.690   2.179
 2707TIP3    H2 8063   6.815   5.825   2.174
 2708TIP3   OH2 8064   5.070   1.777   1.754
 2708TIP3    H1 8065   5.079   1.796   1.847
 2708TIP3    H2 8066   5.120   1.847   1.711
 2709TIP3   OH2 8067   7.165   0.008   3.004
 2709TIP3    H1 8068   7.183  -0.067   2.947
 2709TIP3    H2 8069   7.251   0.031   3.040
 2710TIP3   OH2 8070   0.833   2.493   1.806
 2710TIP3    H1 8071   0.740   2.508   1.793
 2710TIP3    H2 8072   0.841   2.398   1.817
 2711TIP3   OH2 8073   6.915   6.458   2.308
 2711TIP3    H1 8074   6.958   6.376   2.333
 2711TIP3    H2 8075   6.890   6.445   2.217
 2712TIP3   OH2 8076   4.156   3.627   0.695
 2712TIP3    H1 8077   4.064   3.615   0.718
 2712TIP3    H2 8078   4.164   3.720   0.673
 2713TIP3   OH2 8079   3.764   1.657   2.897
 2713TIP3    H1 8080   3.730   1.725   2.839
 2713TIP3    H2 8081   3.690   1.635   2.953
 2714TIP3   OH2 8082   7.905   7.318   4.001
 2714TIP3    H1 8083   7.912   7.241   3.945
 2714TIP3    H2 8084   7.982   7.315   4.058
 2715TIP3   OH2 8085   1.764   3.942   3.627
 2715TIP3    H1 8086   1.686   3.922   3.678
 2715TIP3    H2 8087   1.837   3.934   3.689
 2716TIP3   OH2 8088   7.124   0.708   2.108
 2716TIP3    H1 8089   7.055   0.764   2.072
 2716TIP3    H2 8090   7.102   0.699   2.201
 2717TIP3   OH2 8091   1.700   0.621   2.951
 2717TIP3    H1 8092   1.794   0.613   2.937
 2717TIP3    H2 8093   1.660   0.587   2.870
 2718TIP3   OH2 8094   1.540   4.910   1.690
 2718TIP3    H1 8095   1.465   4.969   1.678
 2718TIP3    H2 8096   1.501   4.823   1.692
 2719TIP3   OH2 8097   1.850   6.388   0.473
 2719TIP3    H1 8098   1.828   6.299   0.502
 2719TIP3    H2 8099   1.904   6.375   0.396
 2720TIP3   OH2 8100   5.471   1.706   0.812
 2720TIP3    H1 8101   5.412   1.782   0.814
 2720TIP3    H2 8102   5.549   1.736   0.858
 2721TIP3   OH2 8103   1.378   6.652   2.423
 2721TIP3    H1 8104   1.471   6.646   2.400
 2721TIP3    H2 8105   1.378   6.669   2.517
 2722TIP3   OH2 8106   6.699   3.050   5.371
 2722TIP3    H1 8107   6.611   3.085   5.371
 2722TIP3    H2 8108   6.756   3.126   5.367
 2723TIP3   OH2 8109   3.725   4.824   5.462
 2723TIP3    H1 8110   3.651   4.807   5.404
 2723TIP3    H2 8111   3.796   4.771   5.426
 2724TIP3   OH2 8112   3.569   7.387   5.725
 2724TIP3    H1 8113   3.655   7.382   5.683
 2724TIP3    H2 8114   3.552   7.299   5.757
 2725TIP3   OH2 8115   3.501   1.922   1.551
 2725TIP3    H1 8116   3.564   1.992   1.563
 2725TIP3    H2 8117   3.538   1.868   1.481
 2726TIP3   OH2 8118   5.583   2.127   5.966
 2726TIP3    H1 8119   5.523   2.144   6.038
 2726TIP3    H2 8120   5.588   2.209   5.918
 2727TIP3   OH2 8121   4.002   3.138   6.450
 2727TIP3    H1 8122   3.914   3.116   6.419
 2727TIP3    H2 8123   4.058   3.071   6.411
 2728TIP3   OH2 8124   3.833   4.031   5.382
 2728TIP3    H1 8125   3.790   4.021   5.467
 2728TIP3    H2 8126   3.898   3.960   5.380
 2729TIP3   OH2 8127   7.971   4.727   1.425
 2729TIP3    H1 8128   7.986   4.633   1.430
 2729TIP3    H2 8129   7.962   4.755   1.516
 2730TIP3   OH2 8130   1.877   2.095   0.269
 2730TIP3    H1 8131   1.791   2.128   0.244
 2730TIP3    H2 8132   1.919   2.072   0.187
 2731TIP3   OH2 8133   3.689   7.113   6.770
 2731TIP3    H1 8134   3.670   7.205   6.791
 2731TIP3    H2 8135   3.608   7.067   6.790
 2732TIP3   OH2 8136   0.806   7.981   3.232
 2732TIP3    H1 8137   0.738   7.984   3.299
 2732TIP3    H2 8138   0.876   7.928   3.270
 2733TIP3   OH2 8139   0.931   6.225   4.870
 2733TIP3    H1 8140   0.883   6.237   4.789
 2733TIP3    H2 8141   1.014   6.184   4.844
 2734TIP3   OH2 8142   6.883   4.920   0.114
 2734TIP3    H1 8143   6.890   4.974   0.193
 2734TIP3    H2 8144   6.955   4.949   0.059
 2735TIP3   OH2 8145   6.288   3.684   4.711
 2735TIP3    H1 8146   6.290   3.588   4.715
 2735TIP3    H2 8147   6.198   3.705   4.686
 2736TIP3   OH2 8148   4.705   6.081   2.566
 2736TIP3    H1 8149   4.634   6.025   2.532
 2736TIP3    H2 8150   4.684   6.168   2.534
 2737TIP3   OH2 8151   2.006   5.822   0.856
 2737TIP3    H1 8152   2.074   5.883   0.827
 2737TIP3    H2 8153   2.051   5.738   0.863
 2738TIP3   OH2 8154   3.946   1.568   5.599
 2738TIP3    H1 8155   4.021   1.522   5.637
 2738TIP3    H2 8156   3.876   1.503   5.598
 2739TIP3   OH2 8157   4.611   4.535   1.193
 2739TIP3    H1 8158   4.544   4.554   1.259
 2739TIP3    H2 8159   4.689   4.511   1.245
 2740TIP3   OH2 8160   4.437   6.678   3.262
 2740TIP3    H1 8161   4.468   6.715   3.345
 2740TIP3    H2 8162   4.426   6.585   3.281
 2741TIP3   OH2 8163   5.691   4.441   3.755
 2741TIP3    H1 8164   5.766   4.420   3.812
 2741TIP3    H2 8165   5.616   4.437   3.814
 2742TIP3   OH2 8166   2.655   0.048   5.415
 2742TIP3    H1 8167   2.714   0.109   5.369
 2742TIP3    H2 8168   2.600   0.105   5.469
 2743TIP3   OH2 8169   1.466   1.151   0.627
 2743TIP3    H1 8170   1.532   1.084   0.648
 2743TIP3    H2 8171   1.513   1.217   0.577
 2744TIP3   OH2 8172   5.923   4.295   1.995
 2744TIP3    H1 8173   5.940   4.310   2.088
 2744TIP3    H2 8174   6.001   4.250   1.964
 2745TIP3   OH2 8175   1.081   5.580   6.492
 2745TIP3    H1 8176   1.084   5.631   6.411
 2745TIP3    H2 8177   1.002   5.526   6.483
 2746TIP3   OH2 8178   4.562   3.633   1.037
 2746TIP3    H1 8179   4.491   3.579   1.003
 2746TIP3    H2 8180   4.566   3.708   0.977
 2747TIP3   OH2 8181   8.157   1.580   6.008
 2747TIP3    H1 8182   8.205   1.525   6.069
 2747TIP3    H2 8183   8.066   1.553   6.017
 2748TIP3   OH2 8184   5.208   2.132   6.636
 2748TIP3    H1 8185   5.195   2.160   6.546
 2748TIP3    H2 8186   5.158   2.194   6.688
 2749TIP3   OH2 8187   2.533   1.246   3.742
 2749TIP3    H1 8188   2.479   1.184   3.791
 2749TIP3    H2 8189   2.595   1.192   3.693
 2750TIP3   OH2 8190   2.726   0.813   3.758
 2750TIP3    H1 8191   2.668   0.738   3.749
 2750TIP3    H2 8192   2.707   0.848   3.845
 2751TIP3   OH2 8193   2.886   0.923   3.309
 2751TIP3    H1 8194   2.912   0.913   3.400
 2751TIP3    H2 8195   2.793   0.897   3.307
 2752TIP3   OH2 8196   6.693   5.328   1.952
 2752TIP3    H1 8197   6.700   5.235   1.974
 2752TIP3    H2 8198   6.607   5.354   1.984
 2753TIP3   OH2 8199   3.607   1.109   5.011
 2753TIP3    H1 8200   3.539   1.057   5.054
 2753TIP3    H2 8201   3.679   1.048   4.997
 2754TIP3   OH2 8202   1.086   2.747   2.912
 2754TIP3    H1 8203   1.123   2.761   2.999
 2754TIP3    H2 8204   1.009   2.804   2.909
 2755TIP3   OH2 8205   4.860   0.089   5.520
 2755TIP3    H1 8206   4.781   0.114   5.473
 2755TIP3    H2 8207   4.833   0.021   5.580
 2756TIP3   OH2 8208   7.001   4.748   4.087
 2756TIP3    H1 8209   7.025   4.815   4.151
 2756TIP3    H2 8210   7.023   4.665   4.129
 2757TIP3   OH2 8211   8.209   5.927   0.742
 2757TIP3    H1 8212   8.198   5.997   0.807
 2757TIP3    H2 8213   8.266   5.966   0.676
 2758TIP3   OH2 8214   6.247   7.871   4.059
 2758TIP3    H1 8215   6.194   7.811   4.112
 2758TIP3    H2 8216   6.281   7.935   4.122
 2759TIP3   OH2 8217   2.816   1.244   4.912
 2759TIP3    H1 8218   2.745   1.287   4.862
 2759TIP3    H2 8219   2.856   1.184   4.849
 2760TIP3   OH2 8220   8.106   0.804   1.082
 2760TIP3    H1 8221   8.122   0.882   1.028
 2760TIP3    H2 8222   8.124   0.832   1.171
 2761TIP3   OH2 8223   0.399   3.786   4.456
 2761TIP3    H1 8224   0.404   3.827   4.369
 2761TIP3    H2 8225   0.382   3.859   4.515
 2762TIP3   OH2 8226   0.216   6.520   1.609
 2762TIP3    H1 8227   0.122   6.506   1.599
 2762TIP3    H2 8228   0.256   6.462   1.544
 2763TIP3   OH2 8229   3.934   3.106   4.408
 2763TIP3    H1 8230   3.963   3.161   4.481
 2763TIP3    H2 8231   3.844   3.133   4.393
 2764TIP3   OH2 8232   1.567   7.403   2.303
 2764TIP3    H1 8233   1.516   7.408   2.222
 2764TIP3    H2 8234   1.627   7.329   2.290
 2765TIP3   OH2 8235   0.169   7.014   0.084
 2765TIP3    H1 8236   0.227   7.090   0.094
 2765TIP3    H2 8237   0.187   6.982  -0.005
 2766TIP3   OH2 8238   7.378   6.330   1.386
 2766TIP3    H1 8239   7.369   6.236   1.367
 2766TIP3    H2 8240   7.382   6.371   1.299
 2767TIP3   OH2 8241   5.370   3.186   3.564
 2767TIP3    H1 8242   5.446   3.234   3.532
 2767TIP3    H2 8243   5.392   3.094   3.550
 2768TIP3   OH2 8244   8.033   5.783   0.136
 2768TIP3    H1 8245   8.024   5.712   0.072
 2768TIP3    H2 8246   8.095   5.844   0.096
 2769TIP3   OH2 8247   8.061   6.607   0.915
 2769TIP3    H1 8248   8.131   6.667   0.942
 2769TIP3    H2 8249   8.094   6.520   0.937
 2770TIP3   OH2 8250   3.715   6.087   3.612
 2770TIP3    H1 8251   3.742   6.027   3.681
 2770TIP3    H2 8252   3.796   6.133   3.587
 2771TIP3   OH2 8253   1.599   2.992   4.931
 2771TIP3    H1 8254   1.561   3.036   5.007
 2771TIP3    H2 8255   1.572   2.900   4.941
 2772TIP3   OH2 8256   0.660   4.054   0.821
 2772TIP3    H1 8257   0.752   4.031   0.832
 2772TIP3    H2 8258   0.659   4.149   0.822
 2773TIP3   OH2 8259   2.121   0.393   5.432
 2773TIP3    H1 8260   2.172   0.312   5.437
 2773TIP3    H2 8261   2.135   0.425   5.343
 2774TIP3   OH2 8262   0.942   2.135   3.127
 2774TIP3    H1 8263   1.010   2.076   3.158
 2774TIP3    H2 8264   0.960   2.144   3.033
 2775TIP3   OH2 8265   1.086   7.640   0.246
 2775TIP3    H1 8266   1.027   7.600   0.310
 2775TIP3    H2 8267   1.030   7.661   0.171
 2776TIP3   OH2 8268   3.262   3.198   5.813
 2776TIP3    H1 8269   3.304   3.116   5.787
 2776TIP3    H2 8270   3.312   3.266   5.767
 2777TIP3   OH2 8271   3.898   4.392   4.195
 2777TIP3    H1 8272   3.962   4.341   4.144
 2777TIP3    H2 8273   3.850   4.326   4.245
 2778TIP3   OH2 8274   3.813   4.713   6.289
 2778TIP3    H1 8275   3.808   4.621   6.313
 2778TIP3    H2 8276   3.817   4.713   6.193
 2779TIP3   OH2 8277   5.952   5.506   5.741
 2779TIP3    H1 8278   6.024   5.513   5.678
 2779TIP3    H2 8279   5.891   5.445   5.701
 2780TIP3   OH2 8280   5.911   6.422   0.504
 2780TIP3    H1 8281   5.820   6.392   0.514
 2780TIP3    H2 8282   5.964   6.352   0.542
 2781TIP3   OH2 8283   4.395   4.552   2.454
 2781TIP3    H1 8284   4.419   4.540   2.546
 2781TIP3    H2 8285   4.331   4.483   2.436
 2782TIP3   OH2 8286   7.971   2.127   2.217
 2782TIP3    H1 8287   8.003   2.214   2.241
 2782TIP3    H2 8288   8.040   2.090   2.163
 2783TIP3   OH2 8289   2.644   0.491   2.773
 2783TIP3    H1 8290   2.688   0.546   2.838
 2783TIP3    H2 8291   2.676   0.403   2.791
 2784TIP3   OH2 8292   5.956   4.404   0.662
 2784TIP3    H1 8293   5.931   4.319   0.626
 2784TIP3    H2 8294   5.943   4.465   0.589
 2785TIP3   OH2 8295   6.319   3.172   6.399
 2785TIP3    H1 8296   6.353   3.262   6.396
 2785TIP3    H2 8297   6.396   3.117   6.404
 2786TIP3   OH2 8298   8.086   7.702   2.009
 2786TIP3    H1 8299   8.127   7.686   2.094
 2786TIP3    H2 8300   8.071   7.615   1.973
 2787TIP3   OH2 8301   7.196   1.123   4.782
 2787TIP3    H1 8302   7.137   1.074   4.725
 2787TIP3    H2 8303   7.215   1.204   4.735
 2788TIP3   OH2 8304   0.297   0.562   2.048
 2788TIP3    H1 8305   0.263   0.617   1.978
 2788TIP3    H2 8306   0.264   0.474   2.028
 2789TIP3   OH2 8307   1.318   4.364   1.114
 2789TIP3    H1 8308   1.252   4.309   1.071
 2789TIP3    H2 8309   1.277   4.450   1.120
 2790TIP3   OH2 8310   3.751   5.766   5.566
 2790TIP3    H1 8311   3.750   5.750   5.660
 2790TIP3    H2 8312   3.810   5.700   5.531
 2791TIP3   OH2 8313   5.695   3.441   0.663
 2791TIP3    H1 8314   5.630   3.448   0.733
 2791TIP3    H2 8315   5.671   3.510   0.601
 2792TIP3   OH2 8316   7.273   2.802   3.115
 2792TIP3    H1 8317   7.321   2.843   3.043
 2792TIP3    H2 8318   7.215   2.871   3.148
 2793TIP3   OH2 8319   6.777   6.921   5.968
 2793TIP3    H1 8320   6.758   7.010   5.998
 2793TIP3    H2 8321   6.718   6.865   6.020
 2794TIP3   OH2 8322   7.315   2.449   3.134
 2794TIP3    H1 8323   7.403   2.441   3.096
 2794TIP3    H2 8324   7.260   2.474   3.060
 2795TIP3   OH2 8325   5.416   4.322   3.188
 2795TIP3    H1 8326   5.498   4.293   3.228
 2795TIP3    H2 8327   5.427   4.302   3.095
 2796TIP3   OH2 8328   8.100   0.055   3.419
 2796TIP3    H1 8329   8.046  -0.023   3.427
 2796TIP3    H2 8330   8.106   0.070   3.325
 2797TIP3   OH2 8331   0.176   5.823   4.977
 2797TIP3    H1 8332   0.171   5.834   5.072
 2797TIP3    H2 8333   0.218   5.903   4.946
 2798TIP3   OH2 8334   8.102   3.365   0.935
 2798TIP3    H1 8335   8.157   3.294   0.901
 2798TIP3    H2 8336   8.107   3.355   1.031
 2799TIP3   OH2 8337   4.457   4.095   2.734
 2799TIP3    H1 8338   4.479   4.044   2.656
 2799TIP3    H2 8339   4.446   4.029   2.803
 2800TIP3   OH2 8340   6.572   2.432   2.311
 2800TIP3    H1 8341   6.612   2.345   2.315
 2800TIP3    H2 8342   6.480   2.416   2.332
 2801TIP3   OH2 8343   7.943   5.901   0.359
 2801TIP3    H1 8344   7.958   5.851   0.279
 2801TIP3    H2 8345   7.888   5.844   0.413
 2802TIP3   OH2 8346   4.284   3.548   1.233
 2802TIP3    H1 8347   4.229   3.554   1.311
 2802TIP3    H2 8348   4.267   3.461   1.198
 2803TIP3   OH2 8349   5.287   7.706   6.711
 2803TIP3    H1 8350   5.331   7.782   6.673
 2803TIP3    H2 8351   5.231   7.743   6.779
 2804TIP3   OH2 8352   1.304   5.123   3.835
 2804TIP3    H1 8353   1.377   5.138   3.896
 2804TIP3    H2 8354   1.279   5.032   3.849
 2805TIP3   OH2 8355   6.111   1.394   0.513
 2805TIP3    H1 8356   6.095   1.476   0.466
 2805TIP3    H2 8357   6.052   1.331   0.471
 2806TIP3   OH2 8358   7.493   2.982   1.615
 2806TIP3    H1 8359   7.463   2.993   1.525
 2806TIP3    H2 8360   7.577   2.938   1.607
 2807TIP3   OH2 8361   5.025   3.240   5.585
 2807TIP3    H1 8362   5.116   3.226   5.612
 2807TIP3    H2 8363   5.032   3.274   5.496
 2808TIP3   OH2 8364   7.362   4.554   3.296
 2808TIP3    H1 8365   7.436   4.526   3.242
 2808TIP3    H2 8366   7.401   4.602   3.369
 2809TIP3   OH2 8367   5.935   7.027   2.536
 2809TIP3    H1 8368   6.000   6.957   2.532
 2809TIP3    H2 8369   5.854   6.987   2.504
 2810TIP3   OH2 8370   1.930   3.501   4.301
 2810TIP3    H1 8371   1.975   3.578   4.267
 2810TIP3    H2 8372   1.837   3.516   4.280
 2811TIP3   OH2 8373   2.211   7.299   1.643
 2811TIP3    H1 8374   2.153   7.311   1.718
 2811TIP3    H2 8375   2.173   7.227   1.594
 2812TIP3   OH2 8376   6.973   2.689   3.063
 2812TIP3    H1 8377   6.998   2.645   3.144
 2812TIP3    H2 8378   7.053   2.690   3.011
 2813TIP3   OH2 8379   0.022   5.796   0.524
 2813TIP3    H1 8380   0.070   5.835   0.451
 2813TIP3    H2 8381  -0.068   5.827   0.512
 2814TIP3   OH2 8382   6.415   6.788   3.042
 2814TIP3    H1 8383   6.411   6.732   2.964
 2814TIP3    H2 8384   6.486   6.850   3.024
 2815TIP3   OH2 8385   4.086   1.865   2.094
 2815TIP3    H1 8386   4.131   1.910   2.166
 2815TIP3    H2 8387   4.032   1.933   2.054
 2816TIP3   OH2 8388   6.189   6.947   6.476
 2816TIP3    H1 8389   6.182   6.996   6.394
 2816TIP3    H2 8390   6.160   6.859   6.455
 2817TIP3   OH2 8391   0.357   2.002   5.928
 2817TIP3    H1 8392   0.361   1.956   6.012
 2817TIP3    H2 8393   0.308   1.943   5.871
 2818TIP3   OH2 8394   2.647   2.879   4.877
 2818TIP3    H1 8395   2.693   2.928   4.945
 2818TIP3    H2 8396   2.567   2.849   4.919
 2819TIP3   OH2 8397   6.288   6.234   4.846
 2819TIP3    H1 8398   6.199   6.241   4.812
 2819TIP3    H2 8399   6.339   6.201   4.772
 2820TIP3   OH2 8400   4.195   2.354   3.921
 2820TIP3    H1 8401   4.163   2.295   3.989
 2820TIP3    H2 8402   4.288   2.333   3.914
 2821TIP3   OH2 8403   3.524   2.316   4.207
 2821TIP3    H1 8404   3.479   2.340   4.126
 2821TIP3    H2 8405   3.528   2.220   4.205
 2822TIP3   OH2 8406   5.921   7.011   6.271
 2822TIP3    H1 8407   5.991   7.070   6.299
 2822TIP3    H2 8408   5.840   7.058   6.289
 2823TIP3   OH2 8409   4.079   4.619   5.515
 2823TIP3    H1 8410   4.130   4.650   5.589
 2823TIP3    H2 8411   4.129   4.545   5.481
 2824TIP3   OH2 8412   7.660   3.825   3.044
 2824TIP3    H1 8413   7.673   3.920   3.041
 2824TIP3    H2 8414   7.742   3.790   3.077
 2825TIP3   OH2 8415   6.072   2.200   5.821
 2825TIP3    H1 8416   6.074   2.270   5.756
 2825TIP3    H2 8417   6.135   2.227   5.888
 2826TIP3   OH2 8418   0.424   1.150   4.693
 2826TIP3    H1 8419   0.517   1.172   4.685
 2826TIP3    H2 8420   0.381   1.234   4.710
 2827TIP3   OH2 8421   2.955   2.954   2.320
 2827TIP3    H1 8422   2.994   2.976   2.404
 2827TIP3    H2 8423   2.918   3.037   2.289
 2828TIP3   OH2 8424   4.293   2.789   4.941
 2828TIP3    H1 8425   4.366   2.837   4.901
 2828TIP3    H2 8426   4.327   2.701   4.956
 2829TIP3   OH2 8427   4.997   7.123   2.790
 2829TIP3    H1 8428   4.943   7.139   2.867
 2829TIP3    H2 8429   5.076   7.081   2.824
 2830TIP3   OH2 8430   7.558   5.726   3.489
 2830TIP3    H1 8431   7.635   5.733   3.545
 2830TIP3    H2 8432   7.512   5.809   3.500
 2831TIP3   OH2 8433   8.242   7.157   6.753
 2831TIP3    H1 8434   8.288   7.240   6.764
 2831TIP3    H2 8435   8.226   7.152   6.659
 2832TIP3   OH2 8436   2.961   7.103   1.496
 2832TIP3    H1 8437   2.975   7.196   1.479
 2832TIP3    H2 8438   2.942   7.066   1.410
 2833TIP3   OH2 8439   6.344   7.037   0.850
 2833TIP3    H1 8440   6.276   7.075   0.906
 2833TIP3    H2 8441   6.299   6.967   0.802
 2834TIP3   OH2 8442   1.868   3.612   0.201
 2834TIP3    H1 8443   1.823   3.691   0.173
 2834TIP3    H2 8444   1.921   3.586   0.126
 2835TIP3   OH2 8445   3.879   4.180   2.209
 2835TIP3    H1 8446   3.804   4.167   2.267
 2835TIP3    H2 8447   3.914   4.266   2.233
 2836TIP3   OH2 8448   7.419   5.599   0.592
 2836TIP3    H1 8449   7.379   5.543   0.526
 2836TIP3    H2 8450   7.353   5.608   0.661
 2837TIP3   OH2 8451   3.848   5.365   4.593
 2837TIP3    H1 8452   3.909   5.438   4.602
 2837TIP3    H2 8453   3.761   5.406   4.594
 2838TIP3   OH2 8454   4.340   5.907   4.488
 2838TIP3    H1 8455   4.393   5.980   4.455
 2838TIP3    H2 8456   4.383   5.829   4.453
 2839TIP3   OH2 8457   8.214   5.761   3.059
 2839TIP3    H1 8458   8.299   5.775   3.019
 2839TIP3    H2 8459   8.152   5.760   2.986
 2840TIP3   OH2 8460   1.079   5.676   4.067
 2840TIP3    H1 8461   1.130   5.741   4.113
 2840TIP3    H2 8462   1.115   5.592   4.094
 2841TIP3   OH2 8463   2.780   3.828   1.625
 2841TIP3    H1 8464   2.725   3.863   1.695
 2841TIP3    H2 8465   2.869   3.852   1.651
 2842TIP3   OH2 8466   1.016   0.728   1.440
 2842TIP3    H1 8467   1.004   0.663   1.509
 2842TIP3    H2 8468   0.927   0.753   1.416
 2843TIP3   OH2 8469   4.417   3.411   2.363
 2843TIP3    H1 8470   4.336   3.362   2.349
 2843TIP3    H2 8471   4.455   3.373   2.442
 2844TIP3   OH2 8472   4.352   2.856   2.043
 2844TIP3    H1 8473   4.405   2.791   2.089
 2844TIP3    H2 8474   4.262   2.828   2.059
 2845TIP3   OH2 8475   6.846   5.780   3.783
 2845TIP3    H1 8476   6.753   5.758   3.776
 2845TIP3    H2 8477   6.854   5.821   3.869
 2846TIP3   OH2 8478   3.857   4.692   1.188
 2846TIP3    H1 8479   3.821   4.646   1.264
 2846TIP3    H2 8480   3.874   4.781   1.219
 2847TIP3   OH2 8481   5.300   4.367   1.479
 2847TIP3    H1 8482   5.249   4.309   1.423
 2847TIP3    H2 8483   5.391   4.343   1.462
 2848TIP3   OH2 8484   2.493   2.777   0.396
 2848TIP3    H1 8485   2.529   2.697   0.436
 2848TIP3    H2 8486   2.411   2.791   0.443
 2849TIP3   OH2 8487   3.085   1.916   3.324
 2849TIP3    H1 8488   3.044   1.967   3.254
 2849TIP3    H2 8489   3.080   1.825   3.294
 2850TIP3   OH2 8490   7.978   7.391   2.559
 2850TIP3    H1 8491   7.898   7.344   2.532
 2850TIP3    H2 8492   8.017   7.334   2.625
 2851TIP3   OH2 8493   4.549   0.033   0.727
 2851TIP3    H1 8494   4.520   0.026   0.818
 2851TIP3    H2 8495   4.645   0.029   0.732
 2852TIP3   OH2 8496   1.595   6.575   4.400
 2852TIP3    H1 8497   1.563   6.656   4.440
 2852TIP3    H2 8498   1.683   6.564   4.436
 2853TIP3   OH2 8499   2.568   7.846   4.443
 2853TIP3    H1 8500   2.499   7.899   4.403
 2853TIP3    H2 8501   2.556   7.858   4.538
 2854TIP3   OH2 8502   2.375   1.896   4.594
 2854TIP3    H1 8503   2.404   1.824   4.650
 2854TIP3    H2 8504   2.336   1.854   4.518
 2855TIP3   OH2 8505   3.745   0.203   5.727
 2855TIP3    H1 8506   3.807   0.276   5.722
 2855TIP3    H2 8507   3.758   0.155   5.645
 2856TIP3   OH2 8508   5.904   7.459   5.944
 2856TIP3    H1 8509   5.864   7.544   5.958
 2856TIP3    H2 8510   5.953   7.442   6.024
 2857TIP3   OH2 8511   3.978   2.666   0.358
 2857TIP3    H1 8512   3.991   2.582   0.313
 2857TIP3    H2 8513   3.885   2.666   0.382
 2858TIP3   OH2 8514   7.082   3.016   3.634
 2858TIP3    H1 8515   7.140   3.014   3.710
 2858TIP3    H2 8516   7.110   2.942   3.580
 2859TIP3   OH2 8517   0.796   5.851   1.081
 2859TIP3    H1 8518   0.836   5.914   1.140
 2859TIP3    H2 8519   0.870   5.813   1.033
 2860TIP3   OH2 8520   1.080   0.325   0.915
 2860TIP3    H1 8521   1.071   0.412   0.954
 2860TIP3    H2 8522   1.174   0.315   0.900
 2861TIP3   OH2 8523   7.216   1.727   0.613
 2861TIP3    H1 8524   7.153   1.797   0.633
 2861TIP3    H2 8525   7.170   1.646   0.637
 2862TIP3   OH2 8526   4.607   2.527   5.408
 2862TIP3    H1 8527   4.529   2.489   5.449
 2862TIP3    H2 8528   4.680   2.480   5.447
 2863TIP3   OH2 8529   5.138   6.065   1.443
 2863TIP3    H1 8530   5.183   6.064   1.528
 2863TIP3    H2 8531   5.046   6.050   1.465
 2864TIP3   OH2 8532   4.221   6.716   2.604
 2864TIP3    H1 8533   4.211   6.794   2.659
 2864TIP3    H2 8534   4.291   6.667   2.646
 2865TIP3   OH2 8535   3.550   1.986   5.767
 2865TIP3    H1 8536   3.491   2.014   5.837
 2865TIP3    H2 8537   3.575   1.897   5.791
 2866TIP3   OH2 8538   6.800   0.902   0.653
 2866TIP3    H1 8539   6.719   0.926   0.608
 2866TIP3    H2 8540   6.777   0.907   0.746
 2867TIP3   OH2 8541   8.171   5.811   3.806
 2867TIP3    H1 8542   8.266   5.809   3.799
 2867TIP3    H2 8543   8.154   5.821   3.900
 2868TIP3   OH2 8544   1.757   2.010   1.902
 2868TIP3    H1 8545   1.766   2.080   1.838
 2868TIP3    H2 8546   1.836   2.015   1.956
 2869TIP3   OH2 8547   7.895   0.636   2.239
 2869TIP3    H1 8548   7.891   0.726   2.205
 2869TIP3    H2 8549   7.987   0.611   2.229
 2870TIP3   OH2 8550   1.622   6.375   3.668
 2870TIP3    H1 8551   1.673   6.406   3.593
 2870TIP3    H2 8552   1.611   6.452   3.723
 2871TIP3   OH2 8553   7.916   5.176   3.445
 2871TIP3    H1 8554   7.921   5.116   3.519
 2871TIP3    H2 8555   7.822   5.184   3.427
 2872TIP3   OH2 8556   2.444   3.362   1.682
 2872TIP3    H1 8557   2.459   3.454   1.704
 2872TIP3    H2 8558   2.462   3.357   1.588
 2873TIP3   OH2 8559   5.934   3.634   1.638
 2873TIP3    H1 8560   5.968   3.566   1.696
 2873TIP3    H2 8561   5.876   3.687   1.693
 2874TIP3   OH2 8562   5.881   3.991   4.834
 2874TIP3    H1 8563   5.945   4.026   4.772
 2874TIP3    H2 8564   5.916   3.906   4.860
 2875TIP3   OH2 8565   3.935   2.350   1.925
 2875TIP3    H1 8566   4.003   2.360   1.858
 2875TIP3    H2 8567   3.866   2.411   1.898
 2876TIP3   OH2 8568   3.193   1.206   5.170
 2876TIP3    H1 8569   3.245   1.223   5.091
 2876TIP3    H2 8570   3.257   1.201   5.240
 2877TIP3   OH2 8571   5.878   3.685   1.378
 2877TIP3    H1 8572   5.782   3.678   1.382
 2877TIP3    H2 8573   5.907   3.663   1.466
 2878TIP3   OH2 8574   5.891   2.068   0.366
 2878TIP3    H1 8575   5.974   2.109   0.339
 2878TIP3    H2 8576   5.824   2.132   0.343
 2879TIP3   OH2 8577   4.032   1.481   2.466
 2879TIP3    H1 8578   3.984   1.538   2.526
 2879TIP3    H2 8579   4.011   1.392   2.495
 2880TIP3   OH2 8580   5.743   0.703   6.368
 2880TIP3    H1 8581   5.829   0.731   6.335
 2880TIP3    H2 8582   5.712   0.641   6.302
 2881TIP3   OH2 8583   4.764   1.368   3.086
 2881TIP3    H1 8584   4.714   1.433   3.135
 2881TIP3    H2 8585   4.717   1.357   3.004
 2882TIP3   OH2 8586   3.830   1.482   4.510
 2882TIP3    H1 8587   3.893   1.540   4.466
 2882TIP3    H2 8588   3.831   1.510   4.601
 2883TIP3   OH2 8589   6.062   4.140   5.212
 2883TIP3    H1 8590   5.989   4.084   5.184
 2883TIP3    H2 8591   6.122   4.080   5.256
 2884TIP3   OH2 8592   6.312   5.764   3.508
 2884TIP3    H1 8593   6.250   5.833   3.530
 2884TIP3    H2 8594   6.261   5.698   3.462
 2885TIP3   OH2 8595   7.584   7.090   3.244
 2885TIP3    H1 8596   7.676   7.086   3.216
 2885TIP3    H2 8597   7.536   7.045   3.174
 2886TIP3   OH2 8598   4.721   2.633   5.177
 2886TIP3    H1 8599   4.661   2.582   5.232
 2886TIP3    H2 8600   4.740   2.711   5.229
 2887TIP3   OH2 8601   2.940   4.706   0.596
 2887TIP3    H1 8602   3.006   4.659   0.545
 2887TIP3    H2 8603   2.876   4.640   0.620
 2888TIP3   OH2 8604   7.029   1.290   5.278
 2888TIP3    H1 8605   6.975   1.248   5.345
 2888TIP3    H2 8606   6.984   1.270   5.196
 2889TIP3   OH2 8607   0.684   2.698   0.096
 2889TIP3    H1 8608   0.697   2.689   0.002
 2889TIP3    H2 8609   0.590   2.713   0.105
 2890TIP3   OH2 8610   0.723   5.559   1.369
 2890TIP3    H1 8611   0.687   5.552   1.457
 2890TIP3    H2 8612   0.646   5.567   1.312
 2891TIP3   OH2 8613   6.680   3.972   3.602
 2891TIP3    H1 8614   6.723   3.960   3.517
 2891TIP3    H2 8615   6.586   3.964   3.583
 2892TIP3   OH2 8616   7.418   4.692   3.517
 2892TIP3    H1 8617   7.400   4.688   3.611
 2892TIP3    H2 8618   7.504   4.734   3.511
 2893TIP3   OH2 8619   2.293   5.646   4.014
 2893TIP3    H1 8620   2.260   5.735   4.015
 2893TIP3    H2 8621   2.232   5.597   4.070
 2894TIP3   OH2 8622   3.439   6.778   4.041
 2894TIP3    H1 8623   3.503   6.711   4.017
 2894TIP3    H2 8624   3.389   6.738   4.113
 2895TIP3   OH2 8625  -0.043   3.365   2.528
 2895TIP3    H1 8626  -0.039   3.420   2.450
 2895TIP3    H2 8627   0.045   3.372   2.566
 2896TIP3   OH2 8628   1.251   0.035   3.704
 2896TIP3    H1 8629   1.258  -0.060   3.707
 2896TIP3    H2 8630   1.321   0.063   3.645
 2897TIP3   OH2 8631   4.242   1.235   2.518
 2897TIP3    H1 8632   4.322   1.273   2.483
 2897TIP3    H2 8633   4.255   1.233   2.612
 2898TIP3   OH2 8634   0.691   4.282   3.111
 2898TIP3    H1 8635   0.626   4.344   3.143
 2898TIP3    H2 8636   0.671   4.272   3.018
 2899TIP3   OH2 8637   4.714   5.634   0.462
 2899TIP3    H1 8638   4.659   5.579   0.406
 2899TIP3    H2 8639   4.799   5.590   0.463
 2900TIP3   OH2 8640   2.052   0.350   2.368
 2900TIP3    H1 8641   2.025   0.334   2.459
 2900TIP3    H2 8642   2.146   0.335   2.368
 2901TIP3   OH2 8643   6.841   7.120   0.069
 2901TIP3    H1 8644   6.799   7.132  -0.017
 2901TIP3    H2 8645   6.849   7.209   0.104
 2902TIP3   OH2 8646   0.589   6.111   1.414
 2902TIP3    H1 8647   0.671   6.065   1.398
 2902TIP3    H2 8648   0.537   6.095   1.335
 2903TIP3   OH2 8649   0.895   7.522   0.885
 2903TIP3    H1 8650   0.828   7.455   0.896
 2903TIP3    H2 8651   0.971   7.475   0.850
 2904TIP3   OH2 8652   4.175   2.634   3.981
 2904TIP3    H1 8653   4.085   2.663   3.970
 2904TIP3    H2 8654   4.174   2.542   3.957
 2905TIP3   OH2 8655   0.370   4.493   6.871
 2905TIP3    H1 8656   0.277   4.488   6.849
 2905TIP3    H2 8657   0.415   4.494   6.786
 2906TIP3   OH2 8658   6.288   2.578   4.782
 2906TIP3    H1 8659   6.327   2.502   4.739
 2906TIP3    H2 8660   6.196   2.576   4.756
 2907TIP3   OH2 8661   7.853   1.090   0.230
 2907TIP3    H1 8662   7.859   1.161   0.167
 2907TIP3    H2 8663   7.840   1.133   0.314
 2908TIP3   OH2 8664   1.679   3.339   0.860
 2908TIP3    H1 8665   1.675   3.267   0.923
 2908TIP3    H2 8666   1.680   3.418   0.915
 2909TIP3   OH2 8667   0.705   4.190   0.231
 2909TIP3    H1 8668   0.667   4.176   0.144
 2909TIP3    H2 8669   0.777   4.252   0.216
 2910TIP3   OH2 8670   2.804   3.208   3.561
 2910TIP3    H1 8671   2.892   3.244   3.551
 2910TIP3    H2 8672   2.814   3.114   3.549
 2911TIP3   OH2 8673   5.694   4.151   1.965
 2911TIP3    H1 8674   5.701   4.124   1.874
 2911TIP3    H2 8675   5.771   4.205   1.980
 2912TIP3   OH2 8676   2.118   4.095   1.070
 2912TIP3    H1 8677   2.183   4.093   0.999
 2912TIP3    H2 8678   2.077   4.009   1.067
 2913TIP3   OH2 8679   6.970   7.721   2.060
 2913TIP3    H1 8680   6.901   7.781   2.088
 2913TIP3    H2 8681   6.939   7.685   1.977
 2914TIP3   OH2 8682   1.174   0.426   2.334
 2914TIP3    H1 8683   1.254   0.419   2.282
 2914TIP3    H2 8684   1.201   0.468   2.415
 2915TIP3   OH2 8685   5.810   1.731   0.439
 2915TIP3    H1 8686   5.780   1.778   0.361
 2915TIP3    H2 8687   5.814   1.798   0.508
 2916TIP3   OH2 8688   6.729   3.298   1.271
 2916TIP3    H1 8689   6.680   3.371   1.232
 2916TIP3    H2 8690   6.690   3.288   1.358
 2917TIP3   OH2 8691   8.023   4.682   4.780
 2917TIP3    H1 8692   7.991   4.638   4.859
 2917TIP3    H2 8693   8.000   4.774   4.793
 2918TIP3   OH2 8694   2.832   2.662   6.292
 2918TIP3    H1 8695   2.840   2.755   6.275
 2918TIP3    H2 8696   2.918   2.626   6.269
 2919TIP3   OH2 8697   7.699   4.844   1.810
 2919TIP3    H1 8698   7.630   4.788   1.774
 2919TIP3    H2 8699   7.714   4.910   1.743
 2920TIP3   OH2 8700   4.336   6.846   6.588
 2920TIP3    H1 8701   4.418   6.800   6.602
 2920TIP3    H2 8702   4.299   6.858   6.676
 2921TIP3   OH2 8703   5.602   4.614   2.992
 2921TIP3    H1 8704   5.635   4.535   3.036
 2921TIP3    H2 8705   5.577   4.673   3.063
 2922TIP3   OH2 8706   4.033   2.276   5.349
 2922TIP3    H1 8707   4.041   2.297   5.257
 2922TIP3    H2 8708   3.995   2.354   5.389
 2923TIP3   OH2 8709   8.076   2.148   2.752
 2923TIP3    H1 8710   8.060   2.113   2.664
 2923TIP3    H2 8711   8.007   2.213   2.765
 2924TIP3   OH2 8712   3.825   2.399   0.617
 2924TIP3    H1 8713   3.849   2.315   0.577
 2924TIP3    H2 8714   3.866   2.397   0.703
 2925TIP3   OH2 8715   6.697   6.819   3.638
 2925TIP3    H1 8716   6.608   6.788   3.623
 2925TIP3    H2 8717   6.732   6.760   3.705
 2926TIP3   OH2 8718   2.071   2.215   3.400
 2926TIP3    H1 8719   1.985   2.231   3.362
 2926TIP3    H2 8720   2.130   2.270   3.348
 2927TIP3   OH2 8721   4.816   6.592   0.943
 2927TIP3    H1 8722   4.759   6.611   0.868
 2927TIP3    H2 8723   4.882   6.662   0.941
 2928TIP3   OH2 8724   7.428   7.582   1.305
 2928TIP3    H1 8725   7.340   7.560   1.335
 2928TIP3    H2 8726   7.478   7.501   1.316
 2929TIP3   OH2 8727   3.065   3.780   5.245
 2929TIP3    H1 8728   3.111   3.830   5.312
 2929TIP3    H2 8729   3.132   3.760   5.180
 2930TIP3   OH2 8730   7.777   6.290   1.314
 2930TIP3    H1 8731   7.832   6.246   1.379
 2930TIP3    H2 8732   7.721   6.220   1.279
 2931TIP3   OH2 8733   6.814   4.281   0.847
 2931TIP3    H1 8734   6.845   4.369   0.869
 2931TIP3    H2 8735   6.718   4.288   0.849
 2932TIP3   OH2 8736   1.870   1.893   4.311
 2932TIP3    H1 8737   1.915   1.844   4.379
 2932TIP3    H2 8738   1.936   1.952   4.276
 2933TIP3   OH2 8739   1.170   2.891   4.427
 2933TIP3    H1 8740   1.237   2.958   4.422
 2933TIP3    H2 8741   1.217   2.809   4.414
 2934TIP3   OH2 8742   0.897   2.622   6.065
 2934TIP3    H1 8743   0.849   2.578   6.137
 2934TIP3    H2 8744   0.859   2.585   5.986
 2935TIP3   OH2 8745   5.689   3.562   1.020
 2935TIP3    H1 8746   5.702   3.656   1.024
 2935TIP3    H2 8747   5.632   3.549   0.944
 2936TIP3   OH2 8748   2.479   1.161   2.330
 2936TIP3    H1 8749   2.567   1.137   2.359
 2936TIP3    H2 8750   2.459   1.101   2.258
 2937TIP3   OH2 8751   1.571   1.025   6.107
 2937TIP3    H1 8752   1.562   0.953   6.044
 2937TIP3    H2 8753   1.635   1.083   6.066
 2938TIP3   OH2 8754   2.579   5.126   1.573
 2938TIP3    H1 8755   2.660   5.175   1.555
 2938TIP3    H2 8756   2.599   5.074   1.650
 2939TIP3   OH2 8757   3.881   4.847   0.514
 2939TIP3    H1 8758   3.959   4.793   0.497
 2939TIP3    H2 8759   3.915   4.923   0.561
 2940TIP3   OH2 8760   4.904   1.467   2.424
 2940TIP3    H1 8761   4.967   1.420   2.369
 2940TIP3    H2 8762   4.835   1.403   2.442
 2941TIP3   OH2 8763   3.964   0.340   5.454
 2941TIP3    H1 8764   3.982   0.398   5.379
 2941TIP3    H2 8765   4.044   0.343   5.507
 2942TIP3   OH2 8766   4.695   4.352   5.455
 2942TIP3    H1 8767   4.641   4.356   5.534
 2942TIP3    H2 8768   4.667   4.428   5.403
 2943TIP3   OH2 8769   1.198   4.546   1.696
 2943TIP3    H1 8770   1.246   4.605   1.638
 2943TIP3    H2 8771   1.145   4.492   1.637
 2944TIP3   OH2 8772   4.682   4.422   4.397
 2944TIP3    H1 8773   4.734   4.352   4.435
 2944TIP3    H2 8774   4.685   4.493   4.461
 2945TIP3   OH2 8775   0.464   3.048   3.597
 2945TIP3    H1 8776   0.454   3.009   3.510
 2945TIP3    H2 8777   0.399   3.118   3.600
 2946TIP3   OH2 8778   5.219   5.738   2.140
 2946TIP3    H1 8779   5.296   5.691   2.174
 2946TIP3    H2 8780   5.208   5.812   2.200
 2947TIP3   OH2 8781   1.742   1.649   4.198
 2947TIP3    H1 8782   1.690   1.619   4.272
 2947TIP3    H2 8783   1.805   1.710   4.236
 2948TIP3   OH2 8784   1.961   7.283   2.084
 2948TIP3    H1 8785   1.984   7.212   2.024
 2948TIP3    H2 8786   2.039   7.338   2.087
 2949TIP3   OH2 8787   4.286   0.336   2.994
 2949TIP3    H1 8788   4.376   0.350   3.024
 2949TIP3    H2 8789   4.295   0.289   2.911
 2950TIP3   OH2 8790   1.129   5.511   1.903
 2950TIP3    H1 8791   1.064   5.542   1.841
 2950TIP3    H2 8792   1.184   5.451   1.852
 2951TIP3   OH2 8793   6.048   5.868   2.202
 2951TIP3    H1 8794   6.048   5.835   2.292
 2951TIP3    H2 8795   5.990   5.944   2.205
 2952TIP3   OH2 8796   6.356   5.446   1.143
 2952TIP3    H1 8797   6.362   5.494   1.061
 2952TIP3    H2 8798   6.415   5.492   1.202
 2953TIP3   OH2 8799   7.155   6.701   2.195
 2953TIP3    H1 8800   7.224   6.662   2.142
 2953TIP3    H2 8801   7.164   6.659   2.280
 2954TIP3   OH2 8802   7.195   0.821   4.650
 2954TIP3    H1 8803   7.229   0.757   4.588
 2954TIP3    H2 8804   7.214   0.784   4.736
 2955TIP3   OH2 8805   3.283   4.984   1.050
 2955TIP3    H1 8806   3.306   5.041   1.124
 2955TIP3    H2 8807   3.189   4.999   1.038
 2956TIP3   OH2 8808   4.133   1.506   0.509
 2956TIP3    H1 8809   4.073   1.436   0.534
 2956TIP3    H2 8810   4.192   1.516   0.585
 2957TIP3   OH2 8811   5.709   6.654   1.764
 2957TIP3    H1 8812   5.743   6.673   1.676
 2957TIP3    H2 8813   5.641   6.589   1.750
 2958TIP3   OH2 8814   1.637   6.746   2.637
 2958TIP3    H1 8815   1.732   6.755   2.637
 2958TIP3    H2 8816   1.619   6.684   2.567
 2959TIP3   OH2 8817   4.492   0.407   0.786
 2959TIP3    H1 8818   4.525   0.467   0.853
 2959TIP3    H2 8819   4.437   0.461   0.730
 2960TIP3   OH2 8820   8.036   7.947   3.548
 2960TIP3    H1 8821   8.038   7.852   3.545
 2960TIP3    H2 8822   7.947   7.970   3.521
 2961TIP3   OH2 8823   0.431   3.871   3.092
 2961TIP3    H1 8824   0.485   3.918   3.028
 2961TIP3    H2 8825   0.369   3.936   3.124
 2962TIP3   OH2 8826   5.426   2.404   6.620
 2962TIP3    H1 8827   5.419   2.345   6.695
 2962TIP3    H2 8828   5.519   2.425   6.615
 2963TIP3   OH2 8829   7.318   5.210   3.056
 2963TIP3    H1 8830   7.338   5.227   3.148
 2963TIP3    H2 8831   7.386   5.257   3.008
 2964TIP3   OH2 8832   3.893   4.993   5.954
 2964TIP3    H1 8833   3.837   5.055   6.000
 2964TIP3    H2 8834   3.937   4.944   6.024
 2965TIP3   OH2 8835   7.682   2.755   4.195
 2965TIP3    H1 8836   7.701   2.816   4.266
 2965TIP3    H2 8837   7.768   2.724   4.166
 2966TIP3   OH2 8838   5.701   6.729   4.099
 2966TIP3    H1 8839   5.788   6.765   4.117
 2966TIP3    H2 8840   5.719   6.646   4.053
 2967TIP3   OH2 8841   7.889   7.752   1.149
 2967TIP3    H1 8842   7.843   7.799   1.218
 2967TIP3    H2 8843   7.879   7.807   1.071
 2968TIP3   OH2 8844   1.468   3.634   3.079
 2968TIP3    H1 8845   1.377   3.603   3.079
 2968TIP3    H2 8846   1.503   3.605   2.995
 2969TIP3   OH2 8847   1.087   6.948   4.049
 2969TIP3    H1 8848   1.058   6.859   4.030
 2969TIP3    H2 8849   1.134   6.975   3.971
 2970TIP3   OH2 8850   0.885   5.271   2.498
 2970TIP3    H1 8851   0.830   5.287   2.575
 2970TIP3    H2 8852   0.924   5.185   2.515
 2971TIP3   OH2 8853   0.795   1.664   6.358
 2971TIP3    H1 8854   0.830   1.675   6.446
 2971TIP3    H2 8855   0.862   1.701   6.301
 2972TIP3   OH2 8856   0.613   1.020   2.170
 2972TIP3    H1 8857   0.677   1.081   2.134
 2972TIP3    H2 8858   0.613   1.037   2.264
 2973TIP3   OH2 8859   8.053   4.922   2.087
 2973TIP3    H1 8860   8.064   4.835   2.048
 2973TIP3    H2 8861   7.966   4.950   2.060
 2974TIP3   OH2 8862   7.994   4.283   0.735
 2974TIP3    H1 8863   8.062   4.279   0.801
 2974TIP3    H2 8864   8.020   4.219   0.669
 2975TIP3   OH2 8865   7.586   5.266   1.998
 2975TIP3    H1 8866   7.588   5.170   1.998
 2975TIP3    H2 8867   7.630   5.291   2.079
 2976TIP3   OH2 8868   4.992   2.617   2.783
 2976TIP3    H1 8869   4.981   2.522   2.795
 2976TIP3    H2 8870   4.983   2.630   2.689
 2977TIP3   OH2 8871   8.155   0.341   4.314
 2977TIP3    H1 8872   8.218   0.408   4.287
 2977TIP3    H2 8873   8.198   0.258   4.292
 2978TIP3   OH2 8874   1.427   6.008   6.133
 2978TIP3    H1 8875   1.437   6.077   6.199
 2978TIP3    H2 8876   1.333   6.001   6.119
 2979TIP3   OH2 8877   2.026   6.135   5.470
 2979TIP3    H1 8878   2.089   6.091   5.414
 2979TIP3    H2 8879   2.072   6.149   5.553
 2980TIP3   OH2 8880   3.016   7.376   1.447
 2980TIP3    H1 8881   3.042   7.436   1.378
 2980TIP3    H2 8882   3.058   7.410   1.526
 2981TIP3   OH2 8883   1.656   4.334   4.124
 2981TIP3    H1 8884   1.615   4.319   4.209
 2981TIP3    H2 8885   1.667   4.246   4.087
 2982TIP3   OH2 8886   0.459   1.877   5.101
 2982TIP3    H1 8887   0.494   1.953   5.055
 2982TIP3    H2 8888   0.460   1.807   5.035
 2983TIP3   OH2 8889   1.002   3.777   0.729
 2983TIP3    H1 8890   0.959   3.725   0.797
 2983TIP3    H2 8891   1.009   3.865   0.767
 2984TIP3   OH2 8892   1.679   2.826   6.890
 2984TIP3    H1 8893   1.691   2.793   6.801
 2984TIP3    H2 8894   1.715   2.915   6.887
 2985TIP3   OH2 8895   4.307   5.831   5.679
 2985TIP3    H1 8896   4.297   5.747   5.633
 2985TIP3    H2 8897   4.379   5.874   5.632
 2986TIP3   OH2 8898   6.219   2.363   5.555
 2986TIP3    H1 8899   6.294   2.423   5.560
 2986TIP3    H2 8900   6.166   2.396   5.482
 2987TIP3   OH2 8901   7.321   0.026   3.387
 2987TIP3    H1 8902   7.367   0.099   3.345
 2987TIP3    H2 8903   7.346   0.032   3.479
 2988TIP3   OH2 8904   1.951   4.264   1.473
 2988TIP3    H1 8905   1.905   4.299   1.549
 2988TIP3    H2 8906   1.902   4.298   1.398
 2989TIP3   OH2 8907   2.555   7.442   0.599
 2989TIP3    H1 8908   2.592   7.357   0.575
 2989TIP3    H2 8909   2.470   7.444   0.556
 2990TIP3   OH2 8910   6.813   1.752   0.804
 2990TIP3    H1 8911   6.876   1.776   0.872
 2990TIP3    H2 8912   6.749   1.697   0.849
 2991TIP3   OH2 8913   6.537   6.397   4.868
 2991TIP3    H1 8914   6.606   6.417   4.804
 2991TIP3    H2 8915   6.462   6.374   4.814
 2992TIP3   OH2 8916   1.228   4.092   5.276
 2992TIP3    H1 8917   1.214   4.157   5.345
 2992TIP3    H2 8918   1.322   4.097   5.257
 2993TIP3   OH2 8919   7.103   5.926   5.307
 2993TIP3    H1 8920   7.108   5.834   5.331
 2993TIP3    H2 8921   7.016   5.954   5.333
 2994TIP3   OH2 8922   2.509   3.394   5.048
 2994TIP3    H1 8923   2.536   3.354   5.131
 2994TIP3    H2 8924   2.510   3.488   5.065
 2995TIP3   OH2 8925   3.734   6.152   6.685
 2995TIP3    H1 8926   3.799   6.129   6.751
 2995TIP3    H2 8927   3.779   6.141   6.601
 2996TIP3   OH2 8928   5.461   6.185   6.041
 2996TIP3    H1 8929   5.384   6.129   6.028
 2996TIP3    H2 8930   5.455   6.251   5.972
 2997TIP3   OH2 8931   6.029   2.435   5.050
 2997TIP3    H1 8932   6.058   2.469   4.966
 2997TIP3    H2 8933   6.107   2.396   5.089
 2998TIP3   OH2 8934   7.266   1.768   2.030
 2998TIP3    H1 8935   7.256   1.677   2.004
 2998TIP3    H2 8936   7.344   1.769   2.086
 2999TIP3   OH2 8937   4.413   3.634   2.143
 2999TIP3    H1 8938   4.347   3.688   2.102
 2999TIP3    H2 8939   4.382   3.544   2.131
 3000TIP3   OH2 8940   4.913   6.463   4.369
 3000TIP3    H1 8941   4.928   6.377   4.330
 3000TIP3    H2 8942   4.856   6.446   4.444
 3001TIP3   OH2 8943   7.909   7.499   6.172
 3001TIP3    H1 8944   7.818   7.529   6.174
 3001TIP3    H2 8945   7.960   7.574   6.202
 3002TIP3   OH2 8946   6.799   5.883   5.230
 3002TIP3    H1 8947   6.837   5.812   5.178
 3002TIP3    H2 8948   6.840   5.874   5.316
 3003TIP3   OH2 8949   0.664   3.396   2.264
 3003TIP3    H1 8950   0.615   3.335   2.319
 3003TIP3    H2 8951   0.723   3.441   2.326
 3004TIP3   OH2 8952   4.979   2.940   4.521
 3004TIP3    H1 8953   4.912   2.881   4.556
 3004TIP3    H2 8954   5.028   2.969   4.598
 3005TIP3   OH2 8955   3.295   3.105   6.242
 3005TIP3    H1 8956   3.288   3.026   6.188
 3005TIP3    H2 8957   3.283   3.177   6.180
 3006TIP3   OH2 8958   3.722   7.902   0.133
 3006TIP3    H1 8959   3.817   7.900   0.119
 3006TIP3    H2 8960   3.702   7.817   0.172
 3007TIP3   OH2 8961   6.181   7.607   3.316
 3007TIP3    H1 8962   6.191   7.582   3.408
 3007TIP3    H2 8963   6.086   7.612   3.302
 3008TIP3   OH2 8964   6.036   0.543   5.035
 3008TIP3    H1 8965   5.962   0.527   5.093
 3008TIP3    H2 8966   6.003   0.525   4.947
 3009TIP3   OH2 8967   0.648   5.986   5.172
 3009TIP3    H1 8968   0.729   5.953   5.213
 3009TIP3    H2 8969   0.602   6.031   5.243
 3010TIP3   OH2 8970   8.045   2.220   6.611
 3010TIP3    H1 8971   8.073   2.181   6.528
 3010TIP3    H2 8972   8.058   2.151   6.675
 3011TIP3   OH2 8973   7.245   2.579   0.525
 3011TIP3    H1 8974   7.233   2.659   0.475
 3011TIP3    H2 8975   7.311   2.530   0.476
 3012TIP3   OH2 8976   1.779   5.440   5.786
 3012TIP3    H1 8977   1.748   5.394   5.708
 3012TIP3    H2 8978   1.726   5.405   5.858
 3013TIP3   OH2 8979   6.211   3.493   5.464
 3013TIP3    H1 8980   6.125   3.489   5.506
 3013TIP3    H2 8981   6.201   3.559   5.395
 3014TIP3   OH2 8982   4.834   3.393   0.957
 3014TIP3    H1 8983   4.834   3.414   1.050
 3014TIP3    H2 8984   4.824   3.478   0.913
 3015TIP3   OH2 8985   2.191   2.476   6.701
 3015TIP3    H1 8986   2.244   2.519   6.767
 3015TIP3    H2 8987   2.124   2.429   6.750
 3016TIP3   OH2 8988   6.086   5.459   4.408
 3016TIP3    H1 8989   6.149   5.392   4.433
 3016TIP3    H2 8990   6.096   5.527   4.473
 3017TIP3   OH2 8991   0.258   7.696   0.423
 3017TIP3    H1 8992   0.183   7.746   0.391
 3017TIP3    H2 8993   0.234   7.672   0.513
 3018TIP3   OH2 8994   2.129   4.907   4.155
 3018TIP3    H1 8995   2.170   4.993   4.152
 3018TIP3    H2 8996   2.166   4.865   4.232
 3019TIP3   OH2 8997   7.283   7.312   3.462
 3019TIP3    H1 8998   7.342   7.296   3.388
 3019TIP3    H2 8999   7.228   7.233   3.466
 3020TIP3   OH2 9000   5.300   3.176   2.300
 3020TIP3    H1 9001   5.305   3.101   2.360
 3020TIP3    H2 9002   5.304   3.137   2.213
 3021TIP3   OH2 9003   6.741   7.201   5.964
 3021TIP3    H1 9004   6.731   7.257   6.041
 3021TIP3    H2 9005   6.658   7.154   5.957
 3022TIP3   OH2 9006   5.728   5.511   2.829
 3022TIP3    H1 9007   5.814   5.469   2.819
 3022TIP3    H2 9008   5.666   5.438   2.828
 3023TIP3   OH2 9009   2.796   1.013   5.645
 3023TIP3    H1 9010   2.872   0.989   5.592
 3023TIP3    H2 9011   2.748   1.077   5.592
 3024TIP3   OH2 9012   2.062   0.257   2.900
 3024TIP3    H1 9013   2.010   0.201   2.957
 3024TIP3    H2 9014   2.094   0.327   2.957
 3025TIP3   OH2 9015   0.488   5.372   1.372
 3025TIP3    H1 9016   0.519   5.333   1.454
 3025TIP3    H2 9017   0.427   5.308   1.337
 3026TIP3   OH2 9018   6.325   4.442   1.566
 3026TIP3    H1 9019   6.372   4.444   1.650
 3026TIP3    H2 9020   6.243   4.397   1.585
 3027TIP3   OH2 9021   8.316   6.638   0.273
 3027TIP3    H1 9022   8.396   6.653   0.325
 3027TIP3    H2 9023   8.246   6.677   0.325
 3028TIP3   OH2 9024   7.432   0.471   5.607
 3028TIP3    H1 9025   7.351   0.434   5.573
 3028TIP3    H2 9026   7.449   0.423   5.688
 3029TIP3   OH2 9027   5.383   2.578   3.993
 3029TIP3    H1 9028   5.389   2.483   4.004
 3029TIP3    H2 9029   5.352   2.590   3.903
 3030TIP3   OH2 9030   3.044   5.748   6.065
 3030TIP3    H1 9031   3.052   5.801   5.986
 3030TIP3    H2 9032   2.998   5.669   6.037
 3031TIP3   OH2 9033   1.837   7.804   2.672
 3031TIP3    H1 9034   1.748   7.816   2.704
 3031TIP3    H2 9035   1.874   7.893   2.671
 3032TIP3   OH2 9036   2.080   4.755   2.402
 3032TIP3    H1 9037   2.102   4.717   2.487
 3032TIP3    H2 9038   1.993   4.720   2.383
 3033TIP3   OH2 9039   7.378   3.136   2.431
 3033TIP3    H1 9040   7.294   3.109   2.396
 3033TIP3    H2 9041   7.364   3.225   2.462
 3034TIP3   OH2 9042   2.161   4.888   5.988
 3034TIP3    H1 9043   2.156   4.922   6.077
 3034TIP3    H2 9044   2.071   4.896   5.954
 3035TIP3   OH2 9045   5.137   6.101   3.640
 3035TIP3    H1 9046   5.157   6.053   3.559
 3035TIP3    H2 9047   5.057   6.149   3.621
 3036TIP3   OH2 9048   3.143   1.273   0.804
 3036TIP3    H1 9049   3.125   1.231   0.888
 3036TIP3    H2 9050   3.132   1.367   0.822
 3037TIP3   OH2 9051   1.482   5.495   0.635
 3037TIP3    H1 9052   1.463   5.537   0.551
 3037TIP3    H2 9053   1.473   5.566   0.699
 3038TIP3   OH2 9054   6.184   7.558   1.551
 3038TIP3    H1 9055   6.239   7.563   1.473
 3038TIP3    H2 9056   6.095   7.569   1.519
 3039TIP3   OH2 9057   5.076   5.144   4.510
 3039TIP3    H1 9058   5.163   5.125   4.473
 3039TIP3    H2 9059   5.066   5.080   4.580
 3040TIP3   OH2 9060   6.939   1.512   5.971
 3040TIP3    H1 9061   7.021   1.539   5.929
 3040TIP3    H2 9062   6.877   1.581   5.949
 3041TIP3   OH2 9063   6.079   7.662   0.328
 3041TIP3    H1 9064   5.990   7.658   0.363
 3041TIP3    H2 9065   6.114   7.574   0.342
 3042TIP3   OH2 9066   7.801   1.749   5.632
 3042TIP3    H1 9067   7.741   1.780   5.700
 3042TIP3    H2 9068   7.847   1.675   5.671
 3043TIP3   OH2 9069   0.478   6.864   2.206
 3043TIP3    H1 9070   0.516   6.921   2.139
 3043TIP3    H2 9071   0.499   6.907   2.289
 3044TIP3   OH2 9072   5.969   4.155   2.389
 3044TIP3    H1 9073   5.950   4.220   2.457
 3044TIP3    H2 9074   6.065   4.150   2.386
 3045TIP3   OH2 9075   5.759   0.163   1.775
 3045TIP3    H1 9076   5.814   0.090   1.745
 3045TIP3    H2 9077   5.672   0.143   1.742
 3046TIP3   OH2 9078   2.317   4.801   2.291
 3046TIP3    H1 9079   2.319   4.824   2.198
 3046TIP3    H2 9080   2.224   4.784   2.309
 3047TIP3   OH2 9081   5.652   6.347   0.523
 3047TIP3    H1 9082   5.637   6.258   0.490
 3047TIP3    H2 9083   5.590   6.401   0.473
 3048TIP3   OH2 9084   5.383   7.063   1.895
 3048TIP3    H1 9085   5.437   6.990   1.925
 3048TIP3    H2 9086   5.306   7.022   1.855
 3049TIP3   OH2 9087   5.398   1.123   2.486
 3049TIP3    H1 9088   5.418   1.142   2.394
 3049TIP3    H2 9089   5.466   1.061   2.513
 3050TIP3   OH2 9090   2.752   1.693   1.192
 3050TIP3    H1 9091   2.663   1.698   1.158
 3050TIP3    H2 9092   2.742   1.699   1.287
 3051TIP3   OH2 9093   3.890   0.555   3.356
 3051TIP3    H1 9094   3.862   0.628   3.410
 3051TIP3    H2 9095   3.809   0.519   3.320
 3052TIP3   OH2 9096   1.511   2.903   3.333
 3052TIP3    H1 9097   1.557   2.823   3.310
 3052TIP3    H2 9098   1.561   2.940   3.406
 3053TIP3   OH2 9099   4.577   6.262   0.207
 3053TIP3    H1 9100   4.560   6.342   0.158
 3053TIP3    H2 9101   4.491   6.222   0.218
 3054TIP3   OH2 9102   3.180   0.643   4.335
 3054TIP3    H1 9103   3.226   0.672   4.256
 3054TIP3    H2 9104   3.120   0.575   4.303
 3055TIP3   OH2 9105   8.293   7.018   5.910
 3055TIP3    H1 9106   8.341   7.012   5.827
 3055TIP3    H2 9107   8.319   7.103   5.946
 3056TIP3   OH2 9108   4.023   6.572   5.078
 3056TIP3    H1 9109   4.106   6.549   5.118
 3056TIP3    H2 9110   3.960   6.509   5.114
 3057TIP3   OH2 9111   3.878   1.700   1.056
 3057TIP3    H1 9112   3.924   1.618   1.043
 3057TIP3    H2 9113   3.941   1.767   1.028
 3058TIP3   OH2 9114   5.625   4.395   1.488
 3058TIP3    H1 9115   5.715   4.423   1.503
 3058TIP3    H2 9116   5.616   4.314   1.539
 3059TIP3   OH2 9117   3.482   5.975   4.576
 3059TIP3    H1 9118   3.513   6.063   4.555
 3059TIP3    H2 9119   3.467   5.976   4.670
 3060TIP3   OH2 9120   3.105   5.127   6.838
 3060TIP3    H1 9121   3.095   5.197   6.774
 3060TIP3    H2 9122   3.057   5.157   6.915
 3061TIP3   OH2 9123   5.418   2.368   5.500
 3061TIP3    H1 9124   5.374   2.405   5.576
 3061TIP3    H2 9125   5.469   2.441   5.464
 3062TIP3   OH2 9126   2.066   4.499   3.768
 3062TIP3    H1 9127   2.139   4.466   3.820
 3062TIP3    H2 9128   2.106   4.525   3.685
 3063TIP3   OH2 9129   5.580   0.378   4.127
 3063TIP3    H1 9130   5.521   0.305   4.107
 3063TIP3    H2 9131   5.608   0.410   4.041
 3064TIP3   OH2 9132   5.033   0.747   4.547
 3064TIP3    H1 9133   5.049   0.841   4.558
 3064TIP3    H2 9134   5.022   0.736   4.452
 3065TIP3   OH2 9135   8.330   0.616   1.656
 3065TIP3    H1 9136   8.276   0.540   1.633
 3065TIP3    H2 9137   8.267   0.686   1.674
 3066TIP3   OH2 9138   4.905   2.277   4.811
 3066TIP3    H1 9139   4.908   2.248   4.902
 3066TIP3    H2 9140   4.981   2.236   4.770
 3067TIP3   OH2 9141   8.247   1.021   2.544
 3067TIP3    H1 9142   8.176   0.957   2.538
 3067TIP3    H2 9143   8.319   0.974   2.587
 3068TIP3   OH2 9144   6.466   0.391   1.762
 3068TIP3    H1 9145   6.523   0.314   1.759
 3068TIP3    H2 9146   6.395   0.365   1.821
 3069TIP3   OH2 9147   1.081   3.238   5.734
 3069TIP3    H1 9148   0.993   3.272   5.716
 3069TIP3    H2 9149   1.130   3.314   5.766
 3070TIP3   OH2 9150   7.355   2.558   5.110
 3070TIP3    H1 9151   7.349   2.515   5.025
 3070TIP3    H2 9152   7.449   2.559   5.129
 3071TIP3   OH2 9153   2.409   4.242   1.160
 3071TIP3    H1 9154   2.492   4.195   1.166
 3071TIP3    H2 9155   2.385   4.235   1.068
 3072TIP3   OH2 9156   8.122   1.464   6.394
 3072TIP3    H1 9157   8.119   1.557   6.375
 3072TIP3    H2 9158   8.194   1.453   6.456
 3073TIP3   OH2 9159   6.870   1.727   6.655
 3073TIP3    H1 9160   6.820   1.804   6.629
 3073TIP3    H2 9161   6.912   1.752   6.738
 3074TIP3   OH2 9162   1.686   1.031   6.833
 3074TIP3    H1 9163   1.695   1.004   6.741
 3074TIP3    H2 9164   1.753   0.981   6.879
 3075TIP3   OH2 9165   6.935   6.584   1.224
 3075TIP3    H1 9166   7.022   6.621   1.239
 3075TIP3    H2 9167   6.875   6.645   1.267
 3076TIP3   OH2 9168   2.556   5.018   5.729
 3076TIP3    H1 9169   2.571   5.113   5.724
 3076TIP3    H2 9170   2.462   5.010   5.746
 3077TIP3   OH2 9171   7.205   4.734   1.519
 3077TIP3    H1 9172   7.213   4.644   1.551
 3077TIP3    H2 9173   7.295   4.762   1.501
 3078TIP3   OH2 9174   6.743   4.266   4.836
 3078TIP3    H1 9175   6.707   4.344   4.794
 3078TIP3    H2 9176   6.685   4.194   4.809
 3079TIP3   OH2 9177   2.740   0.252   1.256
 3079TIP3    H1 9178   2.692   0.285   1.180
 3079TIP3    H2 9179   2.810   0.199   1.218
 3080TIP3   OH2 9180   3.831   3.399   1.287
 3080TIP3    H1 9181   3.874   3.323   1.248
 3080TIP3    H2 9182   3.747   3.404   1.241
 3081TIP3   OH2 9183   0.805   6.455   1.706
 3081TIP3    H1 9184   0.789   6.390   1.775
 3081TIP3    H2 9185   0.747   6.429   1.635
 3082TIP3   OH2 9186   2.676   3.715   4.809
 3082TIP3    H1 9187   2.646   3.651   4.745
 3082TIP3    H2 9188   2.599   3.770   4.826
 3083TIP3   OH2 9189   5.244   7.806   0.484
 3083TIP3    H1 9190   5.260   7.828   0.576
 3083TIP3    H2 9191   5.310   7.740   0.462
 3084TIP3   OH2 9192   7.941   7.872   0.048
 3084TIP3    H1 9193   7.993   7.796   0.022
 3084TIP3    H2 9194   7.869   7.874  -0.015
 3085TIP3   OH2 9195   5.225   5.444   3.825
 3085TIP3    H1 9196   5.299   5.482   3.872
 3085TIP3    H2 9197   5.152   5.449   3.886
 3086TIP3   OH2 9198   2.201   2.456   2.972
 3086TIP3    H1 9199   2.156   2.440   2.890
 3086TIP3    H2 9200   2.285   2.412   2.963
 3087TIP3   OH2 9201   6.807   1.357   1.114
 3087TIP3    H1 9202   6.769   1.274   1.144
 3087TIP3    H2 9203   6.771   1.422   1.174
 3088TIP3   OH2 9204   0.941   3.745   0.376
 3088TIP3    H1 9205   0.945   3.706   0.464
 3088TIP3    H2 9206   0.909   3.675   0.320
 3089TIP3   OH2 9207   4.948   5.039   1.469
 3089TIP3    H1 9208   5.021   5.028   1.530
 3089TIP3    H2 9209   4.922   4.949   1.446
 3090TIP3   OH2 9210   2.759   1.130   6.756
 3090TIP3    H1 9211   2.854   1.131   6.755
 3090TIP3    H2 9212   2.734   1.123   6.664
 3091TIP3   OH2 9213   3.398   7.349   6.224
 3091TIP3    H1 9214   3.408   7.395   6.141
 3091TIP3    H2 9215   3.303   7.340   6.236
 3092TIP3   OH2 9216   7.792   6.076   0.144
 3092TIP3    H1 9217   7.778   6.047   0.234
 3092TIP3    H2 9218   7.820   5.997   0.097
 3093TIP3   OH2 9219   8.306   2.855   4.050
 3093TIP3    H1 9220   8.379   2.907   4.018
 3093TIP3    H2 9221   8.316   2.854   4.145
 3094TIP3   OH2 9222   3.700   3.555   5.201
 3094TIP3    H1 9223   3.754   3.606   5.140
 3094TIP3    H2 9224   3.719   3.464   5.180
 3095TIP3   OH2 9225   8.205   6.344   3.255
 3095TIP3    H1 9226   8.187   6.366   3.163
 3095TIP3    H2 9227   8.192   6.427   3.301
 3096TIP3   OH2 9228   1.036   3.419   4.901
 3096TIP3    H1 9229   0.957   3.371   4.926
 3096TIP3    H2 9230   1.005   3.494   4.851
 3097TIP3   OH2 9231   7.121   0.088   5.502
 3097TIP3    H1 9232   7.113   0.071   5.408
 3097TIP3    H2 9233   7.034   0.117   5.529
 3098TIP3   OH2 9234   7.237   7.199   0.030
 3098TIP3    H1 9235   7.222   7.143  -0.046
 3098TIP3    H2 9236   7.208   7.286   0.002
 3099TIP3   OH2 9237   4.146   4.055   6.388
 3099TIP3    H1 9238   4.212   4.016   6.446
 3099TIP3    H2 9239   4.096   3.981   6.355
 3100TIP3   OH2 9240   3.138   2.475   5.971
 3100TIP3    H1 9241   3.142   2.433   5.885
 3100TIP3    H2 9242   3.158   2.567   5.954
 3101TIP3   OH2 9243   4.669   2.008   1.299
 3101TIP3    H1 9244   4.737   1.950   1.266
 3101TIP3    H2 9245   4.634   2.051   1.220
 3102TIP3   OH2 9246   0.902   4.757   5.358
 3102TIP3    H1 9247   0.988   4.719   5.340
 3102TIP3    H2 9248   0.906   4.785   5.449
 3103TIP3   OH2 9249   7.886   4.362   6.615
 3103TIP3    H1 9250   7.798   4.325   6.628
 3103TIP3    H2 9251   7.926   4.360   6.702
 3104TIP3   OH2 9252   3.747   1.571   5.120
 3104TIP3    H1 9253   3.801   1.632   5.170
 3104TIP3    H2 9254   3.794   1.487   5.124
 3105TIP3   OH2 9255   3.056   7.890   6.597
 3105TIP3    H1 9256   2.965   7.871   6.575
 3105TIP3    H2 9257   3.108   7.840   6.534
 3106TIP3   OH2 9258   1.575   1.147   5.030
 3106TIP3    H1 9259   1.502   1.173   5.086
 3106TIP3    H2 9260   1.618   1.076   5.078
 3107TIP3   OH2 9261   6.733   5.267   5.021
 3107TIP3    H1 9262   6.713   5.358   4.998
 3107TIP3    H2 9263   6.769   5.230   4.940
 3108TIP3   OH2 9264   3.651   6.548   0.452
 3108TIP3    H1 9265   3.694   6.505   0.526
 3108TIP3    H2 9266   3.665   6.641   0.468
 3109TIP3   OH2 9267   5.243   2.451   2.666
 3109TIP3    H1 9268   5.166   2.428   2.719
 3109TIP3    H2 9269   5.222   2.417   2.579
 3110TIP3   OH2 9270   1.153   1.056   4.178
 3110TIP3    H1 9271   1.223   0.992   4.165
 3110TIP3    H2 9272   1.074   1.003   4.188
 3111TIP3   OH2 9273   1.690   0.506   2.004
 3111TIP3    H1 9274   1.673   0.461   2.087
 3111TIP3    H2 9275   1.686   0.437   1.938
 3112TIP3   OH2 9276   5.081   0.567   0.962
 3112TIP3    H1 9277   5.047   0.513   1.033
 3112TIP3    H2 9278   5.032   0.649   0.968
 3113TIP3   OH2 9279   0.294   1.394   4.629
 3113TIP3    H1 9280   0.263   1.390   4.539
 3113TIP3    H2 9281   0.217   1.374   4.682
 3114TIP3   OH2 9282   1.326   5.933   0.755
 3114TIP3    H1 9283   1.289   5.869   0.695
 3114TIP3    H2 9284   1.265   5.935   0.829
 3115TIP3   OH2 9285   3.835   6.065   2.663
 3115TIP3    H1 9286   3.796   6.007   2.729
 3115TIP3    H2 9287   3.894   6.008   2.613
 3116TIP3   OH2 9288   2.438   0.215  -0.010
 3116TIP3    H1 9289   2.420   0.122   0.003
 3116TIP3    H2 9290   2.531   0.219  -0.032
 3117TIP3   OH2 9291   5.007   2.891   2.494
 3117TIP3    H1 9292   5.015   2.965   2.555
 3117TIP3    H2 9293   5.092   2.848   2.497
 3118TIP3   OH2 9294   7.792   2.033   0.620
 3118TIP3    H1 9295   7.790   2.097   0.691
 3118TIP3    H2 9296   7.853   1.966   0.649
 3119TIP3   OH2 9297   5.256   2.864   3.837
 3119TIP3    H1 9298   5.328   2.839   3.780
 3119TIP3    H2 9299   5.245   2.958   3.821
 3120TIP3   OH2 9300   0.493   0.565   3.948
 3120TIP3    H1 9301   0.486   0.660   3.950
 3120TIP3    H2 9302   0.512   0.544   3.856
 3121TIP3   OH2 9303   3.627   5.512   3.428
 3121TIP3    H1 9304   3.578   5.505   3.346
 3121TIP3    H2 9305   3.632   5.606   3.445
 3122TIP3   OH2 9306   8.358   6.891   6.638
 3122TIP3    H1 9307   8.409   6.840   6.575
 3122TIP3    H2 9308   8.326   6.966   6.588
 3123TIP3   OH2 9309   0.334   7.945   3.566
 3123TIP3    H1 9310   0.397   7.876   3.546
 3123TIP3    H2 9311   0.260   7.899   3.606
 3124TIP3   OH2 9312   0.871   7.074   0.808
 3124TIP3    H1 9313   0.801   7.115   0.759
 3124TIP3    H2 9314   0.842   7.077   0.899
 3125TIP3   OH2 9315   0.436   1.053   6.107
 3125TIP3    H1 9316   0.513   1.106   6.126
 3125TIP3    H2 9317   0.380   1.109   6.053
 3126TIP3   OH2 9318   2.123   0.973   1.812
 3126TIP3    H1 9319   2.218   0.972   1.814
 3126TIP3    H2 9320   2.101   0.971   1.719
 3127TIP3   OH2 9321   8.007   6.000   6.689
 3127TIP3    H1 9322   7.954   6.070   6.649
 3127TIP3    H2 9323   7.955   5.971   6.763
 3128TIP3   OH2 9324   8.327   1.693   1.584
 3128TIP3    H1 9325   8.371   1.610   1.563
 3128TIP3    H2 9326   8.236   1.668   1.601
 3129TIP3   OH2 9327   2.423   7.688   5.627
 3129TIP3    H1 9328   2.376   7.616   5.586
 3129TIP3    H2 9329   2.369   7.766   5.610
 3130TIP3   OH2 9330   1.316   6.203   3.289
 3130TIP3    H1 9331   1.338   6.254   3.367
 3130TIP3    H2 9332   1.371   6.125   3.295
 3131TIP3   OH2 9333   0.769   6.407   5.333
 3131TIP3    H1 9334   0.695   6.422   5.273
 3131TIP3    H2 9335   0.845   6.400   5.276
 3132TIP3   OH2 9336   8.097   1.762   6.251
 3132TIP3    H1 9337   8.190   1.741   6.252
 3132TIP3    H2 9338   8.083   1.802   6.165
 3133TIP3   OH2 9339   1.702   5.846   6.713
 3133TIP3    H1 9340   1.679   5.757   6.686
 3133TIP3    H2 9341   1.650   5.861   6.792
 3134TIP3   OH2 9342   0.444   1.325   3.759
 3134TIP3    H1 9343   0.531   1.344   3.793
 3134TIP3    H2 9344   0.407   1.412   3.740
 3135TIP3   OH2 9345   0.975   6.979   6.682
 3135TIP3    H1 9346   1.049   7.034   6.655
 3135TIP3    H2 9347   0.900   7.039   6.682
 3136TIP3   OH2 9348   4.582   3.052   1.286
 3136TIP3    H1 9349   4.515   2.987   1.309
 3136TIP3    H2 9350   4.557   3.084   1.200
 3137TIP3   OH2 9351   4.921   6.626   2.839
 3137TIP3    H1 9352   5.007   6.666   2.854
 3137TIP3    H2 9353   4.941   6.534   2.820
 3138TIP3   OH2 9354   5.598   4.458   1.824
 3138TIP3    H1 9355   5.549   4.518   1.879
 3138TIP3    H2 9356   5.686   4.458   1.862
 3139TIP3   OH2 9357   0.708   3.125   1.529
 3139TIP3    H1 9358   0.682   3.033   1.529
 3139TIP3    H2 9359   0.764   3.134   1.607
 3140TIP3   OH2 9360   1.792   2.287   5.562
 3140TIP3    H1 9361   1.817   2.256   5.649
 3140TIP3    H2 9362   1.696   2.281   5.561
 3141TIP3   OH2 9363   4.007   7.470   0.266
 3141TIP3    H1 9364   4.041   7.559   0.274
 3141TIP3    H2 9365   3.965   7.469   0.180
 3142TIP3   OH2 9366   0.939   7.904   2.806
 3142TIP3    H1 9367   0.932   7.987   2.760
 3142TIP3    H2 9368   0.851   7.888   2.841
 3143TIP3   OH2 9369   3.069   4.477   4.651
 3143TIP3    H1 9370   3.157   4.448   4.628
 3143TIP3    H2 9371   3.078   4.512   4.740
 3144TIP3   OH2 9372   2.032   6.412   5.904
 3144TIP3    H1 9373   1.937   6.400   5.909
 3144TIP3    H2 9374   2.057   6.436   5.994
 3145TIP3   OH2 9375   6.737   3.227   4.795
 3145TIP3    H1 9376   6.802   3.289   4.828
 3145TIP3    H2 9377   6.682   3.208   4.871
 3146TIP3   OH2 9378   2.866   3.406   2.126
 3146TIP3    H1 9379   2.841   3.356   2.204
 3146TIP3    H2 9380   2.883   3.339   2.060
 3147TIP3   OH2 9381   2.154   5.231   0.449
 3147TIP3    H1 9382   2.200   5.180   0.383
 3147TIP3    H2 9383   2.201   5.314   0.454
 3148TIP3   OH2 9384   4.103   0.216   1.920
 3148TIP3    H1 9385   4.162   0.255   1.856
 3148TIP3    H2 9386   4.083   0.129   1.885
 3149TIP3   OH2 9387   5.773   1.310   3.176
 3149TIP3    H1 9388   5.733   1.390   3.141
 3149TIP3    H2 9389   5.720   1.288   3.252
 3150TIP3   OH2 9390   6.045   4.867   4.549
 3150TIP3    H1 9391   5.957   4.903   4.537
 3150TIP3    H2 9392   6.036   4.805   4.620
 3151TIP3   OH2 9393   1.154   1.738  -0.017
 3151TIP3    H1 9394   1.066   1.754  -0.052
 3151TIP3    H2 9395   1.146   1.655   0.029
 3152TIP3   OH2 9396   1.629   5.181   6.855
 3152TIP3    H1 9397   1.671   5.222   6.780
 3152TIP3    H2 9398   1.539   5.213   6.853
 3153TIP3   OH2 9399   0.396   5.878   5.421
 3153TIP3    H1 9400   0.467   5.861   5.483
 3153TIP3    H2 9401   0.432   5.944   5.361
 3154TIP3   OH2 9402   6.718   4.425   5.228
 3154TIP3    H1 9403   6.644   4.372   5.258
 3154TIP3    H2 9404   6.714   4.504   5.283
 3155TIP3   OH2 9405   1.956   7.793   6.231
 3155TIP3    H1 9406   1.869   7.757   6.214
 3155TIP3    H2 9407   1.959   7.804   6.326
 3156TIP3   OH2 9408   5.763   1.036   0.927
 3156TIP3    H1 9409   5.733   1.107   0.871
 3156TIP3    H2 9410   5.782   0.964   0.867
 3157TIP3   OH2 9411   5.480   4.661   1.014
 3157TIP3    H1 9412   5.424   4.612   1.074
 3157TIP3    H2 9413   5.420   4.712   0.961
 3158TIP3   OH2 9414   1.318   5.748   2.657
 3158TIP3    H1 9415   1.258   5.687   2.701
 3158TIP3    H2 9416   1.333   5.709   2.571
 3159TIP3   OH2 9417   1.943   6.534   5.424
 3159TIP3    H1 9418   1.858   6.501   5.455
 3159TIP3    H2 9419   1.955   6.617   5.471
 3160TIP3   OH2 9420   5.597   3.678   2.193
 3160TIP3    H1 9421   5.632   3.750   2.140
 3160TIP3    H2 9422   5.545   3.626   2.131
 3161TIP3   OH2 9423   3.869   7.776   5.957
 3161TIP3    H1 9424   3.921   7.702   5.988
 3161TIP3    H2 9425   3.806   7.791   6.027
 3162TIP3   OH2 9426   5.252   2.003   2.186
 3162TIP3    H1 9427   5.234   1.964   2.271
 3162TIP3    H2 9428   5.347   2.016   2.185
 3163TIP3   OH2 9429   5.303   7.774   4.894
 3163TIP3    H1 9430   5.279   7.846   4.951
 3163TIP3    H2 9431   5.239   7.776   4.823
 3164TIP3   OH2 9432   3.900   6.271   2.821
 3164TIP3    H1 9433   3.897   6.217   2.742
 3164TIP3    H2 9434   3.814   6.312   2.825
 3165TIP3   OH2 9435   5.728   5.270   5.295
 3165TIP3    H1 9436   5.729   5.177   5.272
 3165TIP3    H2 9437   5.656   5.278   5.358
 3166TIP3   OH2 9438   5.204   3.578   2.654
 3166TIP3    H1 9439   5.226   3.604   2.564
 3166TIP3    H2 9440   5.120   3.532   2.646
 3167TIP3   OH2 9441   3.588   4.473   3.039
 3167TIP3    H1 9442   3.553   4.385   3.055
 3167TIP3    H2 9443   3.629   4.498   3.121
 3168TIP3   OH2 9444   3.628   7.808   6.102
 3168TIP3    H1 9445   3.595   7.896   6.089
 3168TIP3    H2 9446   3.677   7.812   6.185
 3169TIP3   OH2 9447   3.980   1.141   4.146
 3169TIP3    H1 9448   3.995   1.227   4.185
 3169TIP3    H2 9449   3.933   1.160   4.065
 3170TIP3   OH2 9450   5.508   4.081   6.376
 3170TIP3    H1 9451   5.501   4.026   6.298
 3170TIP3    H2 9452   5.529   4.020   6.447
 3171TIP3   OH2 9453   6.775   3.190   6.012
 3171TIP3    H1 9454   6.825   3.271   5.998
 3171TIP3    H2 9455   6.737   3.170   5.926
 3172TIP3   OH2 9456   0.683   4.375   3.466
 3172TIP3    H1 9457   0.767   4.407   3.435
 3172TIP3    H2 9458   0.671   4.291   3.422
 3173TIP3   OH2 9459   5.545   4.645   2.500
 3173TIP3    H1 9460   5.485   4.581   2.537
 3173TIP3    H2 9461   5.632   4.605   2.508
 3174TIP3   OH2 9462   4.604   7.499   3.014
 3174TIP3    H1 9463   4.598   7.406   3.035
 3174TIP3    H2 9464   4.667   7.534   3.076
 3175TIP3   OH2 9465   7.972   2.483   1.954
 3175TIP3    H1 9466   7.886   2.515   1.982
 3175TIP3    H2 9467   8.034   2.532   2.009
 3176TIP3   OH2 9468   2.912   3.509   6.393
 3176TIP3    H1 9469   2.994   3.551   6.418
 3176TIP3    H2 9470   2.938   3.431   6.343
 3177TIP3   OH2 9471   0.936   3.957   6.230
 3177TIP3    H1 9472   0.888   3.896   6.174
 3177TIP3    H2 9473   0.878   3.974   6.304
 3178TIP3   OH2 9474   3.398   3.307   4.947
 3178TIP3    H1 9475   3.490   3.282   4.936
 3178TIP3    H2 9476   3.381   3.370   4.877
 3179TIP3   OH2 9477   1.253   3.766   6.078
 3179TIP3    H1 9478   1.224   3.686   6.122
 3179TIP3    H2 9479   1.242   3.748   5.985
 3180TIP3   OH2 9480   2.800   2.925   2.975
 3180TIP3    H1 9481   2.785   3.020   2.977
 3180TIP3    H2 9482   2.865   2.913   2.905
 3181TIP3   OH2 9483   4.705   7.219   5.059
 3181TIP3    H1 9484   4.792   7.259   5.062
 3181TIP3    H2 9485   4.661   7.262   4.986
 3182TIP3   OH2 9486   7.745   2.601   5.897
 3182TIP3    H1 9487   7.755   2.513   5.935
 3182TIP3    H2 9488   7.810   2.604   5.827
 3183TIP3   OH2 9489   0.327   6.325   2.284
 3183TIP3    H1 9490   0.269   6.311   2.358
 3183TIP3    H2 9491   0.305   6.413   2.252
 3184TIP3   OH2 9492   2.692   3.652   1.433
 3184TIP3    H1 9493   2.749   3.679   1.505
 3184TIP3    H2 9494   2.749   3.603   1.374
 3185TIP3   OH2 9495   2.102   3.454   2.923
 3185TIP3    H1 9496   2.137   3.542   2.910
 3185TIP3    H2 9497   2.069   3.429   2.836
 3186TIP3   OH2 9498   6.117   7.765   1.156
 3186TIP3    H1 9499   6.135   7.713   1.078
 3186TIP3    H2 9500   6.030   7.802   1.140
 3187TIP3   OH2 9501   5.544   6.865   5.659
 3187TIP3    H1 9502   5.561   6.773   5.680
 3187TIP3    H2 9503   5.618   6.912   5.697
 3188TIP3   OH2 9504   1.897   1.178   3.670
 3188TIP3    H1 9505   1.889   1.105   3.609
 3188TIP3    H2 9506   1.814   1.178   3.718
 3189TIP3   OH2 9507   3.132   1.572   0.833
 3189TIP3    H1 9508   3.052   1.605   0.794
 3189TIP3    H2 9509   3.114   1.571   0.927
 3190TIP3   OH2 9510   8.114   4.804   3.320
 3190TIP3    H1 9511   8.123   4.708   3.326
 3190TIP3    H2 9512   8.189   4.831   3.267
 3191TIP3   OH2 9513   4.608   6.464   6.502
 3191TIP3    H1 9514   4.536   6.524   6.485
 3191TIP3    H2 9515   4.687   6.515   6.480
 3192TIP3   OH2 9516   7.764   3.255   3.149
 3192TIP3    H1 9517   7.859   3.258   3.134
 3192TIP3    H2 9518   7.733   3.183   3.095
 3193TIP3   OH2 9519   7.009   2.486   0.191
 3193TIP3    H1 9520   6.989   2.495   0.098
 3193TIP3    H2 9521   6.933   2.440   0.227
 3194TIP3   OH2 9522   8.267   0.600   6.352
 3194TIP3    H1 9523   8.211   0.620   6.426
 3194TIP3    H2 9524   8.307   0.683   6.329
 3195TIP3   OH2 9525   0.003   3.020   2.058
 3195TIP3    H1 9526  -0.066   2.962   2.090
 3195TIP3    H2 9527   0.011   3.087   2.126
 3196TIP3   OH2 9528   6.470   5.257   5.500
 3196TIP3    H1 9529   6.406   5.325   5.481
 3196TIP3    H2 9530   6.524   5.251   5.422
 3197TIP3   OH2 9531   7.227   0.844   1.704
 3197TIP3    H1 9532   7.310   0.805   1.677
 3197TIP3    H2 9533   7.171   0.769   1.726
 3198TIP3   OH2 9534   0.706   6.257   0.926
 3198TIP3    H1 9535   0.648   6.292   0.993
 3198TIP3    H2 9536   0.748   6.333   0.888
 3199TIP3   OH2 9537   3.822   0.583   2.161
 3199TIP3    H1 9538   3.827   0.514   2.094
 3199TIP3    H2 9539   3.904   0.577   2.209
 3200TIP3   OH2 9540   2.024   2.956   3.348
 3200TIP3    H1 9541   2.114   2.933   3.326
 3200TIP3    H2 9542   2.006   2.909   3.429
 3201TIP3   OH2 9543   3.108   5.177   3.448
 3201TIP3    H1 9544   3.115   5.082   3.432
 3201TIP3    H2 9545   3.155   5.191   3.530
 3202TIP3   OH2 9546   2.230   4.684   6.424
 3202TIP3    H1 9547   2.169   4.734   6.478
 3202TIP3    H2 9548   2.288   4.749   6.386
 3203TIP3   OH2 9549   8.263   2.208   5.507
 3203TIP3    H1 9550   8.319   2.247   5.574
 3203TIP3    H2 9551   8.254   2.116   5.534
 3204TIP3   OH2 9552   3.742   7.726   2.649
 3204TIP3    H1 9553   3.831   7.689   2.644
 3204TIP3    H2 9554   3.751   7.801   2.709
 3205TIP3   OH2 9555   4.836   1.208   4.082
 3205TIP3    H1 9556   4.879   1.264   4.017
 3205TIP3    H2 9557   4.861   1.119   4.057
 3206TIP3   OH2 9558   7.789   5.380   5.624
 3206TIP3    H1 9559   7.735   5.402   5.548
 3206TIP3    H2 9560   7.872   5.424   5.608
 3207TIP3   OH2 9561   0.676   6.423   2.315
 3207TIP3    H1 9562   0.705   6.488   2.379
 3207TIP3    H2 9563   0.625   6.360   2.366
 3208TIP3   OH2 9564   4.044   0.375   4.387
 3208TIP3    H1 9565   4.012   0.370   4.297
 3208TIP3    H2 9566   4.057   0.283   4.413
 3209TIP3   OH2 9567   5.725   2.926   3.379
 3209TIP3    H1 9568   5.766   2.841   3.361
 3209TIP3    H2 9569   5.753   2.981   3.305
 3210TIP3   OH2 9570   2.563   2.201   3.263
 3210TIP3    H1 9571   2.504   2.163   3.327
 3210TIP3    H2 9572   2.523   2.286   3.241
 3211TIP3   OH2 9573   0.307   4.661   0.621
 3211TIP3    H1 9574   0.363   4.654   0.699
 3211TIP3    H2 9575   0.226   4.701   0.653
 3212TIP3   OH2 9576   3.937   7.021   0.519
 3212TIP3    H1 9577   3.947   7.116   0.529
 3212TIP3    H2 9578   3.988   7.000   0.441
 3213TIP3   OH2 9579   6.620   4.617   3.257
 3213TIP3    H1 9580   6.641   4.640   3.348
 3213TIP3    H2 9581   6.704   4.625   3.211
 3214TIP3   OH2 9582   4.713   3.810   3.876
 3214TIP3    H1 9583   4.741   3.869   3.806
 3214TIP3    H2 9584   4.644   3.857   3.922
 3215TIP3   OH2 9585   5.470   6.249   0.856
 3215TIP3    H1 9586   5.423   6.275   0.776
 3215TIP3    H2 9587   5.563   6.257   0.832
 3216TIP3   OH2 9588   0.430   6.706   5.106
 3216TIP3    H1 9589   0.335   6.718   5.099
 3216TIP3    H2 9590   0.464   6.738   5.022
 3217TIP3   OH2 9591   2.247   1.527   1.011
 3217TIP3    H1 9592   2.290   1.613   1.005
 3217TIP3    H2 9593   2.155   1.548   1.028
 3218TIP3   OH2 9594   1.927   0.895   3.771
 3218TIP3    H1 9595   1.987   0.936   3.709
 3218TIP3    H2 9596   1.862   0.852   3.716
 3219TIP3   OH2 9597   1.723   2.002   5.923
 3219TIP3    H1 9598   1.707   1.962   6.009
 3219TIP3    H2 9599   1.637   2.033   5.895
 3220TIP3   OH2 9600   7.662   0.446   1.035
 3220TIP3    H1 9601   7.604   0.521   1.047
 3220TIP3    H2 9602   7.687   0.449   0.942
 3221TIP3   OH2 9603   8.122   2.869   5.236
 3221TIP3    H1 9604   8.196   2.847   5.291
 3221TIP3    H2 9605   8.095   2.786   5.196
 3222TIP3   OH2 9606   4.521   6.385   5.229
 3222TIP3    H1 9607   4.610   6.406   5.202
 3222TIP3    H2 9608   4.470   6.464   5.210
 3223TIP3   OH2 9609   2.656   4.540   1.519
 3223TIP3    H1 9610   2.616   4.626   1.509
 3223TIP3    H2 9611   2.630   4.491   1.441
 3224TIP3   OH2 9612   3.855   0.679   0.964
 3224TIP3    H1 9613   3.809   0.711   0.887
 3224TIP3    H2 9614   3.943   0.657   0.932
 3225TIP3   OH2 9615   2.813   2.516   0.241
 3225TIP3    H1 9616   2.773   2.436   0.277
 3225TIP3    H2 9617   2.822   2.497   0.147
 3226TIP3   OH2 9618   5.256   6.629   4.558
 3226TIP3    H1 9619   5.164   6.649   4.542
 3226TIP3    H2 9620   5.300   6.714   4.554
 3227TIP3   OH2 9621   0.041   7.883   6.227
 3227TIP3    H1 9622   0.002   7.952   6.173
 3227TIP3    H2 9623   0.099   7.835   6.168
 3228TIP3   OH2 9624   5.813   6.455   5.970
 3228TIP3    H1 9625   5.792   6.394   6.040
 3228TIP3    H2 9626   5.891   6.501   6.001
 3229TIP3   OH2 9627   7.739   3.616   2.252
 3229TIP3    H1 9628   7.703   3.548   2.308
 3229TIP3    H2 9629   7.763   3.686   2.312
 3230TIP3   OH2 9630   5.568   0.383   1.371
 3230TIP3    H1 9631   5.602   0.447   1.308
 3230TIP3    H2 9632   5.633   0.313   1.373
 3231TIP3   OH2 9633   0.441   2.443   0.345
 3231TIP3    H1 9634   0.361   2.430   0.396
 3231TIP3    H2 9635   0.434   2.379   0.274
 3232TIP3   OH2 9636   4.567   5.284   4.493
 3232TIP3    H1 9637   4.659   5.294   4.469
 3232TIP3    H2 9638   4.569   5.237   4.577
 3233TIP3   OH2 9639   1.019   5.851   0.463
 3233TIP3    H1 9640   1.072   5.919   0.420
 3233TIP3    H2 9641   0.941   5.843   0.407
 3234TIP3   OH2 9642   8.424   4.245   6.650
 3234TIP3    H1 9643   8.337   4.281   6.666
 3234TIP3    H2 9644   8.436   4.254   6.555
 3235TIP3   OH2 9645   3.276   2.183   2.965
 3235TIP3    H1 9646   3.369   2.160   2.958
 3235TIP3    H2 9647   3.233   2.099   2.983
 3236TIP3   OH2 9648   2.951   6.335   5.112
 3236TIP3    H1 9649   2.928   6.427   5.099
 3236TIP3    H2 9650   2.876   6.286   5.078
 3237TIP3   OH2 9651   4.648   6.636   0.731
 3237TIP3    H1 9652   4.661   6.700   0.660
 3237TIP3    H2 9653   4.596   6.683   0.796
 3238TIP3   OH2 9654   2.084   1.506   4.367
 3238TIP3    H1 9655   2.113   1.419   4.393
 3238TIP3    H2 9656   2.005   1.522   4.418
 3239TIP3   OH2 9657   4.431   6.675   6.119
 3239TIP3    H1 9658   4.408   6.761   6.084
 3239TIP3    H2 9659   4.364   6.616   6.083
 3240TIP3   OH2 9660   3.932   0.454   0.074
 3240TIP3    H1 9661   4.008   0.501   0.039
 3240TIP3    H2 9662   3.970   0.385   0.128
 3241TIP3   OH2 9663   1.690   0.383   2.537
 3241TIP3    H1 9664   1.776   0.396   2.577
 3241TIP3    H2 9665   1.697   0.297   2.494
 3242TIP3   OH2 9666   3.029   6.502   6.385
 3242TIP3    H1 9667   3.071   6.504   6.471
 3242TIP3    H2 9668   3.040   6.411   6.355
 3243TIP3   OH2 9669   2.864   3.615   4.211
 3243TIP3    H1 9670   2.870   3.520   4.225
 3243TIP3    H2 9671   2.952   3.641   4.186
 3244TIP3   OH2 9672   1.804   1.914   2.489
 3244TIP3    H1 9673   1.778   1.974   2.419
 3244TIP3    H2 9674   1.869   1.856   2.447
 3245TIP3   OH2 9675   4.020   0.392   4.102
 3245TIP3    H1 9676   4.000   0.446   4.026
 3245TIP3    H2 9677   4.020   0.302   4.069
 3246TIP3   OH2 9678   0.748   3.831   4.153
 3246TIP3    H1 9679   0.668   3.837   4.101
 3246TIP3    H2 9680   0.769   3.922   4.175
 3247TIP3   OH2 9681   5.549   4.952   3.457
 3247TIP3    H1 9682   5.586   5.036   3.484
 3247TIP3    H2 9683   5.622   4.906   3.415
 3248TIP3   OH2 9684   4.648   6.410   2.629
 3248TIP3    H1 9685   4.603   6.494   2.641
 3248TIP3    H2 9686   4.741   6.434   2.625
 3249TIP3   OH2 9687   0.561   1.943   4.489
 3249TIP3    H1 9688   0.498   2.006   4.456
 3249TIP3    H2 9689   0.591   1.895   4.412
 3250TIP3   OH2 9690   4.756   4.625   3.297
 3250TIP3    H1 9691   4.823   4.651   3.360
 3250TIP3    H2 9692   4.673   4.644   3.341
 3251TIP3   OH2 9693   5.075   1.072   5.257
 3251TIP3    H1 9694   5.123   1.000   5.300
 3251TIP3    H2 9695   5.107   1.071   5.167
 3252TIP3   OH2 9696   0.174   6.296   0.689
 3252TIP3    H1 9697   0.205   6.210   0.662
 3252TIP3    H2 9698   0.251   6.339   0.726
 3253TIP3   OH2 9699   0.200   3.557   6.539
 3253TIP3    H1 9700   0.227   3.531   6.451
 3253TIP3    H2 9701   0.251   3.637   6.556
 3254TIP3   OH2 9702   5.242   4.136   2.252
 3254TIP3    H1 9703   5.180   4.123   2.323
 3254TIP3    H2 9704   5.302   4.062   2.259
 3255TIP3   OH2 9705   0.885   6.490   3.515
 3255TIP3    H1 9706   0.888   6.526   3.426
 3255TIP3    H2 9707   0.865   6.397   3.502
 3256TIP3   OH2 9708   3.932   7.891   4.284
 3256TIP3    H1 9709   3.998   7.833   4.245
 3256TIP3    H2 9710   3.849   7.847   4.268
 3257TIP3   OH2 9711   3.059   4.590   0.381
 3257TIP3    H1 9712   3.053   4.632   0.295
 3257TIP3    H2 9713   3.077   4.498   0.361
 3258TIP3   OH2 9714   8.072   3.174   5.274
 3258TIP3    H1 9715   8.070   3.079   5.259
 3258TIP3    H2 9716   8.157   3.191   5.315
 3259TIP3   OH2 9717   5.639   3.406   6.470
 3259TIP3    H1 9718   5.733   3.396   6.460
 3259TIP3    H2 9719   5.623   3.396   6.564
 3260TIP3   OH2 9720   7.020   3.586   1.768
 3260TIP3    H1 9721   7.060   3.546   1.845
 3260TIP3    H2 9722   6.981   3.513   1.720
 3261TIP3   OH2 9723   4.048   4.363   6.695
 3261TIP3    H1 9724   4.065   4.269   6.684
 3261TIP3    H2 9725   3.966   4.378   6.648
 3262TIP3   OH2 9726   6.374   6.300   1.291
 3262TIP3    H1 9727   6.453   6.278   1.242
 3262TIP3    H2 9728   6.381   6.249   1.372
 3263TIP3   OH2 9729   6.352   2.340   2.008
 3263TIP3    H1 9730   6.316   2.312   2.092
 3263TIP3    H2 9731   6.305   2.287   1.944
 3264TIP3   OH2 9732   0.662   1.696   2.955
 3264TIP3    H1 9733   0.707   1.645   2.888
 3264TIP3    H2 9734   0.654   1.783   2.917
 3265TIP3   OH2 9735   8.307   4.962   5.465
 3265TIP3    H1 9736   8.350   4.935   5.384
 3265TIP3    H2 9737   8.273   5.050   5.445
 3266TIP3   OH2 9738   6.628   7.522   2.732
 3266TIP3    H1 9739   6.607   7.616   2.735
 3266TIP3    H2 9740   6.718   7.519   2.702
 3267TIP3   OH2 9741   2.176   4.719   5.111
 3267TIP3    H1 9742   2.136   4.740   5.026
 3267TIP3    H2 9743   2.263   4.686   5.089
 3268TIP3   OH2 9744   1.936   5.224   1.976
 3268TIP3    H1 9745   1.851   5.180   1.982
 3268TIP3    H2 9746   1.995   5.158   1.938
 3269TIP3   OH2 9747   6.387   6.924   6.182
 3269TIP3    H1 9748   6.472   6.880   6.187
 3269TIP3    H2 9749   6.324   6.856   6.206
 3270TIP3   OH2 9750   7.618   7.031   6.478
 3270TIP3    H1 9751   7.709   7.002   6.486
 3270TIP3    H2 9752   7.624   7.119   6.441
 3271TIP3   OH2 9753   6.944   1.438   1.660
 3271TIP3    H1 9754   6.929   1.468   1.570
 3271TIP3    H2 9755   7.040   1.429   1.667
 3272TIP3   OH2 9756   7.891   0.572   6.812
 3272TIP3    H1 9757   7.963   0.518   6.844
 3272TIP3    H2 9758   7.848   0.605   6.891
 3273TIP3   OH2 9759   5.759   2.308   5.103
 3273TIP3    H1 9760   5.707   2.376   5.145
 3273TIP3    H2 9761   5.840   2.352   5.077
 3274TIP3   OH2 9762   6.645   6.351   1.806
 3274TIP3    H1 9763   6.618   6.408   1.734
 3274TIP3    H2 9764   6.733   6.322   1.781
 3275TIP3   OH2 9765   1.913   1.563   1.511
 3275TIP3    H1 9766   1.873   1.518   1.585
 3275TIP3    H2 9767   1.988   1.510   1.488
 3276TIP3   OH2 9768   3.182   4.097   3.890
 3276TIP3    H1 9769   3.258   4.039   3.891
 3276TIP3    H2 9770   3.150   4.095   3.981
 3277TIP3   OH2 9771   7.589   6.392   1.102
 3277TIP3    H1 9772   7.597   6.486   1.114
 3277TIP3    H2 9773   7.639   6.355   1.174
 3278TIP3   OH2 9774   1.765   7.805   4.510
 3278TIP3    H1 9775   1.741   7.765   4.427
 3278TIP3    H2 9776   1.710   7.760   4.575
 3279TIP3   OH2 9777   3.370   1.522   3.291
 3279TIP3    H1 9778   3.411   1.536   3.376
 3279TIP3    H2 9779   3.280   1.496   3.312
 3280TIP3   OH2 9780   2.529   2.779   1.693
 3280TIP3    H1 9781   2.434   2.786   1.684
 3280TIP3    H2 9782   2.545   2.686   1.705
 3281TIP3   OH2 9783   3.134   1.912   1.806
 3281TIP3    H1 9784   3.113   2.005   1.816
 3281TIP3    H2 9785   3.182   1.908   1.723
 3282TIP3   OH2 9786   8.217   1.381   1.119
 3282TIP3    H1 9787   8.240   1.339   1.202
 3282TIP3    H2 9788   8.135   1.426   1.137
 3283TIP3   OH2 9789   2.901   0.622   5.868
 3283TIP3    H1 9790   2.966   0.600   5.801
 3283TIP3    H2 9791   2.883   0.715   5.853
 3284TIP3   OH2 9792   0.204   4.789   3.727
 3284TIP3    H1 9793   0.196   4.709   3.676
 3284TIP3    H2 9794   0.190   4.761   3.818
 3285TIP3   OH2 9795   0.909   2.814   5.878
 3285TIP3    H1 9796   0.951   2.759   5.813
 3285TIP3    H2 9797   0.919   2.767   5.960
 3286TIP3   OH2 9798   5.310   6.945   6.161
 3286TIP3    H1 9799   5.235   7.004   6.170
 3286TIP3    H2 9800   5.272   6.857   6.169
 3287TIP3   OH2 9801   8.044   0.804   5.967
 3287TIP3    H1 9802   8.093   0.788   6.048
 3287TIP3    H2 9803   8.071   0.734   5.908
 3288TIP3   OH2 9804   2.247   2.843   2.421
 3288TIP3    H1 9805   2.337   2.824   2.396
 3288TIP3    H2 9806   2.255   2.891   2.504
 3289TIP3   OH2 9807   8.330   7.239   0.178
 3289TIP3    H1 9808   8.419   7.213   0.201
 3289TIP3    H2 9809   8.291   7.266   0.262
 3290TIP3   OH2 9810   7.019   0.400   5.048
 3290TIP3    H1 9811   7.101   0.404   4.999
 3290TIP3    H2 9812   7.046   0.397   5.140
 3291TIP3   OH2 9813   6.297   7.155   2.071
 3291TIP3    H1 9814   6.213   7.196   2.092
 3291TIP3    H2 9815   6.292   7.069   2.112
 3292TIP3   OH2 9816   3.555   2.343   2.959
 3292TIP3    H1 9817   3.546   2.292   2.878
 3292TIP3    H2 9818   3.533   2.281   3.028
 3293TIP3   OH2 9819   1.814   0.288   5.768
 3293TIP3    H1 9820   1.795   0.340   5.690
 3293TIP3    H2 9821   1.891   0.237   5.746
 3294TIP3   OH2 9822   3.117   6.729   2.122
 3294TIP3    H1 9823   3.044   6.787   2.144
 3294TIP3    H2 9824   3.094   6.645   2.162
 3295TIP3   OH2 9825   2.295   6.463   4.323
 3295TIP3    H1 9826   2.320   6.437   4.234
 3295TIP3    H2 9827   2.367   6.432   4.378
 3296TIP3   OH2 9828   6.399   4.664   2.129
 3296TIP3    H1 9829   6.465   4.632   2.068
 3296TIP3    H2 9830   6.357   4.737   2.083
 3297TIP3   OH2 9831   2.379   4.917   1.172
 3297TIP3    H1 9832   2.421   4.832   1.185
 3297TIP3    H2 9833   2.440   4.979   1.212
 3298TIP3   OH2 9834   3.664   0.250   3.748
 3298TIP3    H1 9835   3.635   0.314   3.813
 3298TIP3    H2 9836   3.756   0.271   3.732
 3299TIP3   OH2 9837   6.308   4.750   5.652
 3299TIP3    H1 9838   6.295   4.764   5.558
 3299TIP3    H2 9839   6.389   4.700   5.659
 3300TIP3   OH2 9840   1.858   6.963   2.047
 3300TIP3    H1 9841   1.930   6.960   2.110
 3300TIP3    H2 9842   1.805   6.886   2.067
 3301TIP3   OH2 9843   6.547   2.202   0.735
 3301TIP3    H1 9844   6.586   2.152   0.806
 3301TIP3    H2 9845   6.548   2.292   0.765
 3302TIP3   OH2 9846   4.314   2.967   4.188
 3302TIP3    H1 9847   4.377   2.965   4.116
 3302TIP3    H2 9848   4.366   2.950   4.266
 3303TIP3   OH2 9849   2.192   5.412   5.095
 3303TIP3    H1 9850   2.154   5.417   5.008
 3303TIP3    H2 9851   2.186   5.502   5.129
 3304TIP3   OH2 9852   3.526   2.696   3.761
 3304TIP3    H1 9853   3.568   2.720   3.679
 3304TIP3    H2 9854   3.444   2.745   3.761
 3305TIP3   OH2 9855   2.990   3.636   5.910
 3305TIP3    H1 9856   2.950   3.632   5.997
 3305TIP3    H2 9857   2.923   3.600   5.852
 3306TIP3   OH2 9858   0.766   6.129   1.775
 3306TIP3    H1 9859   0.796   6.041   1.753
 3306TIP3    H2 9860   0.676   6.116   1.806
 3307TIP3   OH2 9861   7.443   4.878   1.460
 3307TIP3    H1 9862   7.476   4.796   1.422
 3307TIP3    H2 9863   7.422   4.933   1.385
 3308TIP3   OH2 9864   5.767   3.002   4.189
 3308TIP3    H1 9865   5.689   2.975   4.236
 3308TIP3    H2 9866   5.735   3.033   4.105
 3309TIP3   OH2 9867   2.478   5.501   2.631
 3309TIP3    H1 9868   2.422   5.429   2.604
 3309TIP3    H2 9869   2.435   5.579   2.596
 3310TIP3   OH2 9870   7.015   1.216   1.027
 3310TIP3    H1 9871   6.977   1.298   1.059
 3310TIP3    H2 9872   6.970   1.148   1.075
 3311TIP3   OH2 9873   3.772   7.264   4.412
 3311TIP3    H1 9874   3.820   7.340   4.381
 3311TIP3    H2 9875   3.719   7.296   4.485
 3312TIP3   OH2 9876   7.612   4.696   2.922
 3312TIP3    H1 9877   7.600   4.715   2.829
 3312TIP3    H2 9878   7.699   4.729   2.943
 3313TIP3   OH2 9879   5.661   0.539   4.360
 3313TIP3    H1 9880   5.618   0.509   4.280
 3313TIP3    H2 9881   5.651   0.634   4.359
 3314TIP3   OH2 9882   1.463   6.537   4.114
 3314TIP3    H1 9883   1.542   6.568   4.070
 3314TIP3    H2 9884   1.493   6.500   4.197
 3315TIP3   OH2 9885   2.258   6.810   1.098
 3315TIP3    H1 9886   2.174   6.853   1.088
 3315TIP3    H2 9887   2.303   6.824   1.015
 3316TIP3   OH2 9888   4.289   5.382   1.370
 3316TIP3    H1 9889   4.309   5.393   1.277
 3316TIP3    H2 9890   4.260   5.468   1.398
 3317TIP3   OH2 9891   3.281   2.004   5.616
 3317TIP3    H1 9892   3.334   1.938   5.659
 3317TIP3    H2 9893   3.328   2.086   5.630
 3318TIP3   OH2 9894   0.829   5.969   6.719
 3318TIP3    H1 9895   0.910   5.942   6.764
 3318TIP3    H2 9896   0.815   6.059   6.748
 3319TIP3   OH2 9897   5.254   3.617   4.720
 3319TIP3    H1 9898   5.253   3.576   4.806
 3319TIP3    H2 9899   5.162   3.629   4.698
 3320TIP3   OH2 9900   0.573   7.723   6.336
 3320TIP3    H1 9901   0.560   7.818   6.330
 3320TIP3    H2 9902   0.558   7.691   6.247
 3321TIP3   OH2 9903   5.871   0.198   0.899
 3321TIP3    H1 9904   5.802   0.253   0.861
 3321TIP3    H2 9905   5.917   0.162   0.824
 3322TIP3   OH2 9906   8.353   2.040   3.642
 3322TIP3    H1 9907   8.339   2.047   3.737
 3322TIP3    H2 9908   8.313   2.119   3.606
 3323TIP3   OH2 9909   6.768   5.314   6.329
 3323TIP3    H1 9910   6.828   5.248   6.294
 3323TIP3    H2 9911   6.711   5.265   6.388
 3324TIP3   OH2 9912   7.594   5.556   0.032
 3324TIP3    H1 9913   7.514   5.558  -0.021
 3324TIP3    H2 9914   7.665   5.562  -0.032
 3325TIP3   OH2 9915   0.126   1.293   3.437
 3325TIP3    H1 9916   0.186   1.222   3.415
 3325TIP3    H2 9917   0.165   1.371   3.398
 3326TIP3   OH2 9918   1.480   6.619   1.858
 3326TIP3    H1 9919   1.534   6.540   1.853
 3326TIP3    H2 9920   1.444   6.618   1.946
 3327TIP3   OH2 9921   8.256   2.492   4.369
 3327TIP3    H1 9922   8.336   2.489   4.316
 3327TIP3    H2 9923   8.288   2.499   4.459
 3328TIP3   OH2 9924   0.485   0.990   0.075
 3328TIP3    H1 9925   0.430   0.958   0.146
 3328TIP3    H2 9926   0.435   1.062   0.035
 3329TIP3   OH2 9927   3.626   2.780   2.515
 3329TIP3    H1 9928   3.602   2.821   2.432
 3329TIP3    H2 9929   3.719   2.801   2.525
 3330TIP3   OH2 9930   0.833   0.245   5.872
 3330TIP3    H1 9931   0.766   0.180   5.892
 3330TIP3    H2 9932   0.914   0.194   5.861
 3331TIP3   OH2 9933   6.091   5.795   5.427
 3331TIP3    H1 9934   6.166   5.817   5.373
 3331TIP3    H2 9935   6.128   5.747   5.502
 3332TIP3   OH2 9936   0.463   3.910   2.757
 3332TIP3    H1 9937   0.498   3.830   2.718
 3332TIP3    H2 9938   0.537   3.947   2.806
 3333TIP3   OH2 9939   6.340   4.158   5.083
 3333TIP3    H1 9940   6.253   4.127   5.108
 3333TIP3    H2 9941   6.364   4.105   5.007
 3334TIP3   OH2 9942   3.932   1.810   3.543
 3334TIP3    H1 9943   3.950   1.901   3.518
 3334TIP3    H2 9944   3.893   1.816   3.630
 3335TIP3   OH2 9945   8.122   1.032   3.099
 3335TIP3    H1 9946   8.159   0.954   3.057
 3335TIP3    H2 9947   8.189   1.060   3.162
 3336TIP3   OH2 9948   0.489   3.397   6.115
 3336TIP3    H1 9949   0.560   3.349   6.074
 3336TIP3    H2 9950   0.432   3.329   6.152
 3337TIP3   OH2 9951   4.302   5.621   4.809
 3337TIP3    H1 9952   4.257   5.557   4.752
 3337TIP3    H2 9953   4.257   5.704   4.791
 3338TIP3   OH2 9954   5.363   2.855   2.805
 3338TIP3    H1 9955   5.302   2.809   2.862
 3338TIP3    H2 9956   5.367   2.944   2.840
 3339TIP3   OH2 9957   4.499   7.872   4.802
 3339TIP3    H1 9958   4.486   7.957   4.846
 3339TIP3    H2 9959   4.485   7.807   4.870
 3340TIP3   OH2 9960   4.681   2.483   2.929
 3340TIP3    H1 9961   4.645   2.455   2.844
 3340TIP3    H2 9962   4.710   2.402   2.971
 3341TIP3   OH2 9963   4.055   5.236   5.945
 3341TIP3    H1 9964   4.009   5.154   5.928
 3341TIP3    H2 9965   4.106   5.252   5.866
 3342TIP3   OH2 9966   5.345   3.933   3.925
 3342TIP3    H1 9967   5.318   3.879   3.852
 3342TIP3    H2 9968   5.367   4.018   3.886
 3343TIP3   OH2 9969   1.799   6.051   5.849
 3343TIP3    H1 9970   1.786   5.987   5.778
 3343TIP3    H2 9971   1.877   6.100   5.823
 3344TIP3   OH2 9972   7.914   6.780   5.309
 3344TIP3    H1 9973   7.900   6.828   5.227
 3344TIP3    H2 9974   7.826   6.773   5.347
 3345TIP3   OH2 9975   2.567   0.949   4.419
 3345TIP3    H1 9976   2.488   0.998   4.399
 3345TIP3    H2 9977   2.542   0.857   4.405
 3346TIP3   OH2 9978   0.994   7.396   2.980
 3346TIP3    H1 9979   0.968   7.469   3.036
 3346TIP3    H2 9980   0.960   7.419   2.893
 3347TIP3   OH2 9981   6.584   3.992   5.372
 3347TIP3    H1 9982   6.538   3.940   5.438
 3347TIP3    H2 9983   6.674   3.998   5.406
 3348TIP3   OH2 9984   5.167   7.389   3.769
 3348TIP3    H1 9985   5.088   7.336   3.779
 3348TIP3    H2 9986   5.165   7.420   3.679
 3349TIP3   OH2 9987   5.009   5.270   5.973
 3349TIP3    H1 9988   4.973   5.328   5.906
 3349TIP3    H2 9989   5.101   5.259   5.949
 3350TIP3   OH2 9990   5.013   0.625   5.206
 3350TIP3    H1 9991   5.017   0.531   5.226
 3350TIP3    H2 9992   5.054   0.667   5.282
 3351TIP3   OH2 9993   0.057   1.763   3.663
 3351TIP3    H1 9994   0.005   1.842   3.673
 3351TIP3    H2 9995   0.071   1.755   3.569
 3352TIP3   OH2 9996   2.357   7.701   6.442
 3352TIP3    H1 9997   2.366   7.635   6.373
 3352TIP3    H2 9998   2.282   7.672   6.494
 3353TIP3   OH2 9999   7.197   7.466   6.026
 3353TIP3    H110000   7.164   7.505   5.945
 3353TIP3    H210001   7.204   7.373   6.007
 3354TIP3   OH210002   2.207   5.117   6.652
 3354TIP3    H110003   2.276   5.160   6.600
 3354TIP3    H210004   2.217   5.154   6.740
 3355TIP3   OH210005   0.391   4.796   4.342
 3355TIP3    H110006   0.442   4.851   4.402
 3355TIP3    H210007   0.300   4.824   4.356
 3356TIP3   OH210008   4.485   4.916   2.045
 3356TIP3    H110009   4.520   4.854   2.110
 3356TIP3    H210010   4.425   4.863   1.992
 3357TIP3   OH210011   6.173   1.805   1.717
 3357TIP3    H110012   6.132   1.801   1.630
 3357TIP3    H210013   6.173   1.898   1.739
 3358TIP3   OH210014   6.205   7.652   5.461
 3358TIP3    H110015   6.281   7.693   5.419
 3358TIP3    H210016   6.229   7.646   5.554
 3359TIP3   OH210017   5.171   1.292   5.733
 3359TIP3    H110018   5.172   1.210   5.683
 3359TIP3    H210019   5.078   1.304   5.755
 3360TIP3   OH210020   5.691   2.294   4.049
 3360TIP3    H110021   5.691   2.201   4.027
 3360TIP3    H210022   5.640   2.299   4.130
 3361TIP3   OH210023   6.080   0.922   1.940
 3361TIP3    H110024   6.018   0.940   2.011
 3361TIP3    H210025   6.025   0.915   1.862
 3362TIP3   OH210026   2.361   6.711   5.811
 3362TIP3    H110027   2.295   6.663   5.761
 3362TIP3    H210028   2.370   6.794   5.766
 3363TIP3   OH210029   3.322   3.882   0.816
 3363TIP3    H110030   3.412   3.873   0.784
 3363TIP3    H210031   3.267   3.856   0.742
 3364TIP3   OH210032   0.351   3.565   0.115
 3364TIP3    H110033   0.323   3.653   0.092
 3364TIP3    H210034   0.313   3.508   0.049
 3365TIP3   OH210035   0.730   0.680   5.245
 3365TIP3    H110036   0.767   0.722   5.167
 3365TIP3    H210037   0.751   0.740   5.317
 3366TIP3   OH210038   6.080   1.277   1.324
 3366TIP3    H110039   6.041   1.353   1.281
 3366TIP3    H210040   6.006   1.223   1.350
 3367TIP3   OH210041   7.566   1.829   1.704
 3367TIP3    H110042   7.476   1.826   1.672
 3367TIP3    H210043   7.592   1.921   1.691
 3368TIP3   OH210044   3.545   0.920   6.137
 3368TIP3    H110045   3.550   0.931   6.232
 3368TIP3    H210046   3.615   0.857   6.117
 3369TIP3   OH210047   5.888   0.232   4.013
 3369TIP3    H110048   5.880   0.277   4.097
 3369TIP3    H210049   5.857   0.143   4.031
 3370TIP3   OH210050   4.898   0.094   0.074
 3370TIP3    H110051   4.854   0.044   0.005
 3370TIP3    H210052   4.904   0.032   0.148
 3371TIP3   OH210053   3.653   5.010   4.698
 3371TIP3    H110054   3.737   4.973   4.671
 3371TIP3    H210055   3.594   4.935   4.703
 3372TIP3   OH210056   1.805   1.265   2.287
 3372TIP3    H110057   1.746   1.210   2.235
 3372TIP3    H210058   1.764   1.352   2.285
 3373TIP3   OH210059   4.760   1.540   3.510
 3373TIP3    H110060   4.775   1.604   3.579
 3373TIP3    H210061   4.665   1.534   3.503
 3374TIP3   OH210062   2.823   0.733   1.011
 3374TIP3    H110063   2.785   0.763   1.094
 3374TIP3    H210064   2.764   0.767   0.944
 3375TIP3   OH210065   2.696   3.684   0.727
 3375TIP3    H110066   2.728   3.666   0.638
 3375TIP3    H210067   2.615   3.735   0.713
 3376TIP3   OH210068   5.758   0.589   4.604
 3376TIP3    H110069   5.739   0.568   4.513
 3376TIP3    H210070   5.674   0.618   4.640
 3377TIP3   OH210071   1.256   4.706   6.800
 3377TIP3    H110072   1.332   4.679   6.748
 3377TIP3    H210073   1.290   4.712   6.890
 3378TIP3   OH210074   6.752   4.946   1.291
 3378TIP3    H110075   6.751   5.018   1.354
 3378TIP3    H210076   6.818   4.886   1.324
 3379TIP3   OH210077   4.295   5.988   6.414
 3379TIP3    H110078   4.232   6.018   6.349
 3379TIP3    H210079   4.357   5.934   6.364
 3380TIP3   OH210080   7.125   4.909   0.928
 3380TIP3    H110081   7.133   4.814   0.921
 3380TIP3    H210082   7.212   4.939   0.954
 3381TIP3   OH210083   0.276   0.662   4.546
 3381TIP3    H110084   0.263   0.748   4.585
 3381TIP3    H210085   0.246   0.601   4.614
 3382TIP3   OH210086   7.913   0.346   5.456
 3382TIP3    H110087   7.890   0.309   5.541
 3382TIP3    H210088   7.916   0.441   5.471
 3383TIP3   OH210089   4.939   2.574   2.470
 3383TIP3    H110090   4.857   2.535   2.440
 3383TIP3    H210091   4.941   2.660   2.427
 3384TIP3   OH210092   7.612   2.344   4.097
 3384TIP3    H110093   7.524   2.310   4.110
 3384TIP3    H210094   7.668   2.291   4.154
 3385TIP3   OH210095   6.778   6.386   3.952
 3385TIP3    H110096   6.749   6.307   3.907
 3385TIP3    H210097   6.840   6.355   4.018
 3386TIP3   OH210098   5.726   1.747   2.488
 3386TIP3    H110099   5.724   1.766   2.395
 3386TIP3    H210100   5.812   1.708   2.504
 3387TIP3   OH210101   6.882   4.880   2.955
 3387TIP3    H110102   6.978   4.882   2.961
 3387TIP3    H210103   6.856   4.971   2.966
 3388TIP3   OH210104   5.369   3.286   1.581
 3388TIP3    H110105   5.438   3.222   1.595
 3388TIP3    H210106   5.335   3.305   1.668
 3389TIP3   OH210107   2.580   3.492   3.915
 3389TIP3    H110108   2.588   3.408   3.870
 3389TIP3    H210109   2.621   3.478   4.001
 3390TIP3   OH210110   2.855   5.294   0.072
 3390TIP3    H110111   2.761   5.308   0.058
 3390TIP3    H210112   2.860   5.246   0.154
 3391TIP3   OH210113   3.291   5.396   5.334
 3391TIP3    H110114   3.225   5.464   5.319
 3391TIP3    H210115   3.274   5.367   5.424
 3392TIP3   OH210116   1.891   5.072   1.028
 3392TIP3    H110117   1.911   5.007   0.960
 3392TIP3    H210118   1.920   5.030   1.109
 3393TIP3   OH210119   4.572   4.148   6.413
 3393TIP3    H110120   4.542   4.063   6.380
 3393TIP3    H210121   4.492   4.201   6.415
 3394TIP3   OH210122   1.849   4.649   3.858
 3394TIP3    H110123   1.761   4.611   3.864
 3394TIP3    H210124   1.902   4.580   3.817
 3395TIP3   OH210125   0.981   1.087   5.260
 3395TIP3    H110126   0.890   1.112   5.273
 3395TIP3    H210127   1.028   1.170   5.255
 3396TIP3   OH210128   2.817   1.746   4.557
 3396TIP3    H110129   2.750   1.750   4.626
 3396TIP3    H210130   2.849   1.656   4.561
 3397TIP3   OH210131   3.331   4.758   5.576
 3397TIP3    H110132   3.288   4.729   5.496
 3397TIP3    H210133   3.260   4.793   5.630
 3398TIP3   OH210134   5.117   3.206   4.699
 3398TIP3    H110135   5.209   3.222   4.718
 3398TIP3    H210136   5.100   3.253   4.617
 3399TIP3   OH210137   4.180   5.116   1.057
 3399TIP3    H110138   4.245   5.151   0.996
 3399TIP3    H210139   4.230   5.067   1.121
 3400TIP3   OH210140   7.368   0.952   3.470
 3400TIP3    H110141   7.324   1.016   3.526
 3400TIP3    H210142   7.424   0.903   3.530
 3401TIP3   OH210143   2.482   3.331   1.152
 3401TIP3    H110144   2.503   3.239   1.138
 3401TIP3    H210145   2.567   3.376   1.148
 3402TIP3   OH210146   4.148   5.156   5.405
 3402TIP3    H110147   4.204   5.078   5.400
 3402TIP3    H210148   4.070   5.126   5.452
 3403TIP3   OH210149   6.200   0.443   1.563
 3403TIP3    H110150   6.246   0.502   1.622
 3403TIP3    H210151   6.270   0.403   1.511
 3404TIP3   OH210152   2.987   0.413   5.102
 3404TIP3    H110153   2.967   0.323   5.080
 3404TIP3    H210154   2.941   0.465   5.037
 3405TIP3   OH210155   0.752   0.222   3.411
 3405TIP3    H110156   0.680   0.168   3.378
 3405TIP3    H210157   0.831   0.177   3.382
 3406TIP3   OH210158   7.046   0.868   6.635
 3406TIP3    H110159   7.082   0.906   6.555
 3406TIP3    H210160   6.953   0.887   6.631
 3407TIP3   OH210161   0.991   3.572   5.198
 3407TIP3    H110162   1.085   3.586   5.193
 3407TIP3    H210163   0.980   3.496   5.255
 3408TIP3   OH210164   1.193   7.158   6.650
 3408TIP3    H110165   1.244   7.154   6.732
 3408TIP3    H210166   1.194   7.250   6.626
 3409TIP3   OH210167   7.480   1.349   4.409
 3409TIP3    H110168   7.563   1.303   4.396
 3409TIP3    H210169   7.442   1.355   4.322
 3410TIP3   OH210170   4.720   5.509   2.009
 3410TIP3    H110171   4.634   5.548   2.027
 3410TIP3    H210172   4.738   5.533   1.919
 3411TIP3   OH210173   7.137   2.462   2.053
 3411TIP3    H110174   7.130   2.390   2.116
 3411TIP3    H210175   7.162   2.419   1.971
 3412TIP3   OH210176   6.313   6.462   0.339
 3412TIP3    H110177   6.330   6.387   0.396
 3412TIP3    H210178   6.253   6.517   0.390
 3413TIP3   OH210179   4.801   2.122   6.360
 3413TIP3    H110180   4.716   2.151   6.325
 3413TIP3    H210181   4.841   2.073   6.288
 3414TIP3   OH210182   2.049   7.324   5.020
 3414TIP3    H110183   2.044   7.372   4.937
 3414TIP3    H210184   2.125   7.362   5.064
 3415TIP3   OH210185   4.035   2.460   0.198
 3415TIP3    H110186   4.029   2.365   0.184
 3415TIP3    H210187   4.120   2.484   0.162
 3416TIP3   OH210188   4.461   2.280   3.865
 3416TIP3    H110189   4.510   2.353   3.903
 3416TIP3    H210190   4.520   2.205   3.871
 3417TIP3   OH210191   1.176   0.965   1.674
 3417TIP3    H110192   1.192   0.998   1.763
 3417TIP3    H210193   1.236   0.891   1.666
 3418TIP3   OH210194   8.038   3.002   0.531
 3418TIP3    H110195   7.987   2.929   0.568
 3418TIP3    H210196   8.125   2.992   0.571
 3419TIP3   OH210197   8.064   5.899   3.250
 3419TIP3    H110198   8.116   5.851   3.186
 3419TIP3    H210199   8.128   5.935   3.311
 3420TIP3   OH210200   1.415   0.388   0.104
 3420TIP3    H110201   1.418   0.448   0.179
 3420TIP3    H210202   1.341   0.420   0.051
 3421TIP3   OH210203   3.458   5.536   1.735
 3421TIP3    H110204   3.396   5.501   1.671
 3421TIP3    H210205   3.425   5.508   1.820
 3422TIP3   OH210206   7.392   4.497   6.563
 3422TIP3    H110207   7.351   4.540   6.638
 3422TIP3    H210208   7.322   4.493   6.498
 3423TIP3   OH210209   7.397   7.138   4.272
 3423TIP3    H110210   7.373   7.109   4.185
 3423TIP3    H210211   7.425   7.229   4.260
 3424TIP3   OH210212   5.374   0.718   1.651
 3424TIP3    H110213   5.411   0.630   1.659
 3424TIP3    H210214   5.399   0.746   1.563
 3425TIP3   OH210215   0.588   3.251   1.950
 3425TIP3    H110216   0.508   3.226   1.905
 3425TIP3    H210217   0.577   3.344   1.971
 3426TIP3   OH210218   8.093   0.295   3.661
 3426TIP3    H110219   8.184   0.289   3.688
 3426TIP3    H210220   8.052   0.216   3.697
 3427TIP3   OH210221   6.916   1.815   5.902
 3427TIP3    H110222   6.996   1.788   5.857
 3427TIP3    H210223   6.878   1.882   5.845
 3428TIP3   OH210224   6.736   3.658   6.714
 3428TIP3    H110225   6.796   3.589   6.744
 3428TIP3    H210226   6.721   3.638   6.622
 3429TIP3   OH210227   6.908   3.414   5.443
 3429TIP3    H110228   6.816   3.435   5.460
 3429TIP3    H210229   6.906   3.349   5.373
 3430TIP3   OH210230   6.803   3.635   1.109
 3430TIP3    H110231   6.764   3.711   1.065
 3430TIP3    H210232   6.897   3.654   1.111
 3431TIP3   OH210233   3.185   2.203   5.150
 3431TIP3    H110234   3.105   2.170   5.108
 3431TIP3    H210235   3.212   2.132   5.208
 3432TIP3   OH210236   4.486   1.105   6.348
 3432TIP3    H110237   4.519   1.104   6.438
 3432TIP3    H210238   4.487   1.013   6.321
 3433TIP3   OH210239   6.589   4.325   3.610
 3433TIP3    H110240   6.679   4.354   3.619
 3433TIP3    H210241   6.566   4.292   3.698
 3434TIP3   OH210242   7.962   5.586   0.777
 3434TIP3    H110243   8.002   5.565   0.693
 3434TIP3    H210244   7.875   5.546   0.773
 3435TIP3   OH210245   7.701   2.838   6.721
 3435TIP3    H110246   7.684   2.924   6.683
 3435TIP3    H210247   7.778   2.806   6.675
 3436TIP3   OH210248   4.475   4.310   5.640
 3436TIP3    H110249   4.519   4.306   5.725
 3436TIP3    H210250   4.419   4.388   5.646
 3437TIP3   OH210251   2.014   7.328   6.167
 3437TIP3    H110252   1.950   7.271   6.125
 3437TIP3    H210253   1.962   7.386   6.223
 3438TIP3   OH210254   3.128   5.346   0.658
 3438TIP3    H110255   3.150   5.376   0.570
 3438TIP3    H210256   3.187   5.395   0.716
 3439TIP3   OH210257   3.842   3.836   4.061
 3439TIP3    H110258   3.778   3.821   3.991
 3439TIP3    H210259   3.812   3.783   4.134
 3440TIP3   OH210260   2.166   5.663   6.252
 3440TIP3    H110261   2.107   5.738   6.261
 3440TIP3    H210262   2.252   5.697   6.274
 3441TIP3   OH210263   5.201   1.408   3.381
 3441TIP3    H110264   5.247   1.373   3.305
 3441TIP3    H210265   5.109   1.412   3.353
 3442TIP3   OH210266   4.305   1.979   6.232
 3442TIP3    H110267   4.266   1.985   6.145
 3442TIP3    H210268   4.246   1.921   6.281
 3443TIP3   OH210269   0.310   7.036   3.543
 3443TIP3    H110270   0.404   7.045   3.559
 3443TIP3    H210271   0.297   6.942   3.530
 3444TIP3   OH210272   4.853   7.858   4.427
 3444TIP3    H110273   4.903   7.786   4.464
 3444TIP3    H210274   4.764   7.843   4.458
 3445TIP3   OH210275   0.291   2.188   6.480
 3445TIP3    H110276   0.294   2.273   6.437
 3445TIP3    H210277   0.354   2.195   6.552
 3446TIP3   OH210278   7.488   6.744   0.089
 3446TIP3    H110279   7.398   6.773   0.075
 3446TIP3    H210280   7.523   6.806   0.153
 3447TIP3   OH210281   6.800   3.849   3.366
 3447TIP3    H110282   6.855   3.901   3.308
 3447TIP3    H210283   6.738   3.806   3.307
 3448TIP3   OH210284   0.751   7.502   3.419
 3448TIP3    H110285   0.762   7.582   3.470
 3448TIP3    H210286   0.760   7.431   3.483
 3449TIP3   OH210287   7.532   2.272   1.231
 3449TIP3    H110288   7.624   2.290   1.254
 3449TIP3    H210289   7.513   2.336   1.161
 3450TIP3   OH210290   5.523   6.382   3.068
 3450TIP3    H110291   5.531   6.448   3.136
 3450TIP3    H210292   5.611   6.372   3.033
 3451TIP3   OH210293   6.722   6.460   6.311
 3451TIP3    H110294   6.685   6.377   6.281
 3451TIP3    H210295   6.713   6.458   6.406
 3452TIP3   OH210296   3.215   0.986   4.119
 3452TIP3    H110297   3.243   0.900   4.085
 3452TIP3    H210298   3.171   0.966   4.201
 3453TIP3   OH210299   3.319   7.541   4.136
 3453TIP3    H110300   3.292   7.609   4.197
 3453TIP3    H210301   3.237   7.506   4.101
 3454TIP3   OH210302   6.031   7.364   1.827
 3454TIP3    H110303   6.096   7.371   1.897
 3454TIP3    H210304   6.071   7.307   1.762
 3455TIP3   OH210305   7.678   2.109   1.665
 3455TIP3    H110306   7.653   2.197   1.694
 3455TIP3    H210307   7.767   2.119   1.631
 3456TIP3   OH210308   1.565   7.109   3.682
 3456TIP3    H110309   1.513   7.176   3.638
 3456TIP3    H210310   1.593   7.050   3.611
 3457TIP3   OH210311   2.498   4.392   4.812
 3457TIP3    H110312   2.438   4.362   4.744
 3457TIP3    H210313   2.568   4.437   4.764
 3458TIP3   OH210314   7.226   6.880   5.538
 3458TIP3    H110315   7.145   6.919   5.505
 3458TIP3    H210316   7.283   6.955   5.556
 3459TIP3   OH210317   0.181   7.572   0.678
 3459TIP3    H110318   0.132   7.645   0.715
 3459TIP3    H210319   0.256   7.561   0.736
 3460TIP3   OH210320   7.812   7.703   3.102
 3460TIP3    H110321   7.735   7.667   3.058
 3460TIP3    H210322   7.884   7.646   3.074
 3461TIP3   OH210323   7.676   2.798   0.951
 3461TIP3    H110324   7.717   2.742   0.885
 3461TIP3    H210325   7.725   2.780   1.031
 3462TIP3   OH210326   1.584   1.197   1.275
 3462TIP3    H110327   1.594   1.255   1.200
 3462TIP3    H210328   1.509   1.233   1.323
 3463TIP3   OH210329   4.657   2.134   5.488
 3463TIP3    H110330   4.625   2.116   5.576
 3463TIP3    H210331   4.734   2.079   5.478
 3464TIP3   OH210332   6.559   7.186   5.033
 3464TIP3    H110333   6.636   7.184   5.091
 3464TIP3    H210334   6.491   7.228   5.086
 3465TIP3   OH210335   5.314   4.983   3.321
 3465TIP3    H110336   5.408   4.992   3.335
 3465TIP3    H210337   5.274   5.022   3.398
 3466TIP3   OH210338   5.475   5.837   6.739
 3466TIP3    H110339   5.540   5.908   6.743
 3466TIP3    H210340   5.391   5.883   6.731
 3467TIP3   OH210341   2.391   0.535   5.959
 3467TIP3    H110342   2.379   0.585   5.878
 3467TIP3    H210343   2.463   0.580   6.004
 3468TIP3   OH210344   3.456   2.301   2.035
 3468TIP3    H110345   3.451   2.374   2.096
 3468TIP3    H210346   3.382   2.315   1.975
 3469TIP3   OH210347   3.863   0.830   3.709
 3469TIP3    H110348   3.956   0.809   3.707
 3469TIP3    H210349   3.850   0.870   3.796
 3470TIP3   OH210350   1.383   5.660   1.905
 3470TIP3    H110351   1.425   5.685   1.823
 3470TIP3    H210352   1.294   5.634   1.880
 3471TIP3   OH210353   5.796   1.871   0.185
 3471TIP3    H110354   5.829   1.885   0.096
 3471TIP3    H210355   5.828   1.947   0.234
 3472TIP3   OH210356   5.021   3.458   3.463
 3472TIP3    H110357   5.017   3.368   3.431
 3472TIP3    H210358   4.989   3.511   3.390
 3473TIP3   OH210359   2.520   3.627   1.677
 3473TIP3    H110360   2.556   3.705   1.635
 3473TIP3    H210361   2.581   3.606   1.747
 3474TIP3   OH210362   3.545   2.630   6.116
 3474TIP3    H110363   3.635   2.627   6.147
 3474TIP3    H210364   3.498   2.680   6.182
 3475TIP3   OH210365   1.129   2.016   0.435
 3475TIP3    H110366   1.038   1.990   0.446
 3475TIP3    H210367   1.150   1.993   0.344
 3476TIP3   OH210368   5.063   5.318   3.628
 3476TIP3    H110369   5.060   5.392   3.567
 3476TIP3    H210370   5.100   5.355   3.708
 3477TIP3   OH210371   7.098   2.693   4.276
 3477TIP3    H110372   7.075   2.776   4.318
 3477TIP3    H210373   7.172   2.714   4.219
 3478TIP3   OH210374   0.751   6.375   2.770
 3478TIP3    H110375   0.721   6.308   2.709
 3478TIP3    H210376   0.698   6.362   2.848
 3479TIP3   OH210377   3.456   0.644   1.931
 3479TIP3    H110378   3.458   0.730   1.889
 3479TIP3    H210379   3.509   0.655   2.010
 3480TIP3   OH210380   0.321   1.318   4.023
 3480TIP3    H110381   0.325   1.363   4.108
 3480TIP3    H210382   0.375   1.371   3.965
 3481TIP3   OH210383   6.822   0.317   4.553
 3481TIP3    H110384   6.772   0.396   4.574
 3481TIP3    H210385   6.879   0.305   4.629
 3482TIP3   OH210386   8.169   7.158   1.369
 3482TIP3    H110387   8.194   7.241   1.409
 3482TIP3    H210388   8.170   7.095   1.441
 3483TIP3   OH210389   4.551   5.651   5.870
 3483TIP3    H110390   4.485   5.719   5.857
 3483TIP3    H210391   4.539   5.623   5.961
 3484TIP3   OH210392   5.804   0.246   2.699
 3484TIP3    H110393   5.711   0.248   2.679
 3484TIP3    H210394   5.829   0.154   2.688
 3485TIP3   OH210395   4.070   2.925   5.512
 3485TIP3    H110396   4.097   2.914   5.421
 3485TIP3    H210397   4.062   2.836   5.546
 3486TIP3   OH210398   7.153   4.131   2.233
 3486TIP3    H110399   7.164   4.123   2.327
 3486TIP3    H210400   7.065   4.098   2.215
 3487TIP3   OH210401   5.498   3.974   3.584
 3487TIP3    H110402   5.588   4.006   3.585
 3487TIP3    H210403   5.445   4.052   3.572
 3488TIP3   OH210404   2.789   7.598   5.876
 3488TIP3    H110405   2.846   7.555   5.812
 3488TIP3    H210406   2.709   7.546   5.877
 3489TIP3   OH210407   8.101   2.710   4.318
 3489TIP3    H110408   8.032   2.680   4.259
 3489TIP3    H210409   8.146   2.630   4.345
 3490TIP3   OH210410   2.016   6.561   3.629
 3490TIP3    H110411   2.016   6.656   3.641
 3490TIP3    H210412   2.020   6.526   3.718
 3491TIP3   OH210413   7.408   2.007   4.016
 3491TIP3    H110414   7.410   2.102   4.034
 3491TIP3    H210415   7.315   1.986   4.010
 3492TIP3   OH210416   8.208   1.241   4.696
 3492TIP3    H110417   8.135   1.283   4.742
 3492TIP3    H210418   8.174   1.224   4.608
 3493TIP3   OH210419   4.274   6.790   3.026
 3493TIP3    H110420   4.337   6.773   3.096
 3493TIP3    H210421   4.197   6.825   3.071
 3494TIP3   OH210422   4.531   0.150   4.394
 3494TIP3    H110423   4.457   0.116   4.344
 3494TIP3    H210424   4.584   0.197   4.329
 3495TIP3   OH210425   4.334   5.253   2.196
 3495TIP3    H110426   4.364   5.342   2.209
 3495TIP3    H210427   4.405   5.198   2.229
 3496TIP3   OH210428   4.600   1.116   3.499
 3496TIP3    H110429   4.668   1.127   3.434
 3496TIP3    H210430   4.577   1.023   3.495
 3497TIP3   OH210431   6.158   4.105   1.915
 3497TIP3    H110432   6.110   4.023   1.928
 3497TIP3    H210433   6.153   4.120   1.820
 3498TIP3   OH210434   4.399   5.828   0.223
 3498TIP3    H110435   4.380   5.806   0.132
 3498TIP3    H210436   4.328   5.887   0.249
 3499TIP3   OH210437   4.528   5.494   5.566
 3499TIP3    H110438   4.460   5.531   5.622
 3499TIP3    H210439   4.586   5.568   5.547
 3500TIP3   OH210440   6.994   6.962   4.988
 3500TIP3    H110441   6.944   6.994   4.913
 3500TIP3    H210442   7.057   6.901   4.950
 3501TIP3   OH210443   1.678   3.655   6.725
 3501TIP3    H110444   1.632   3.697   6.653
 3501TIP3    H210445   1.609   3.634   6.789
 3502TIP3   OH210446   7.575   4.384   4.241
 3502TIP3    H110447   7.567   4.293   4.270
 3502TIP3    H210448   7.665   4.408   4.263
 3503TIP3   OH210449   1.966   2.067   0.013
 3503TIP3    H110450   1.905   2.083  -0.059
 3503TIP3    H210451   2.043   2.120  -0.008
 3504TIP3   OH210452   3.120   7.704   3.035
 3504TIP3    H110453   3.191   7.717   3.097
 3504TIP3    H210454   3.040   7.719   3.086
 3505TIP3   OH210455   1.640   4.574   3.049
 3505TIP3    H110456   1.715   4.562   2.990
 3505TIP3    H210457   1.564   4.551   2.996
 3506TIP3   OH210458   7.005   3.946   3.197
 3506TIP3    H110459   7.025   4.016   3.135
 3506TIP3    H210460   6.982   3.871   3.142
 3507TIP3   OH210461   2.876   1.160   1.672
 3507TIP3    H110462   2.783   1.138   1.659
 3507TIP3    H210463   2.913   1.160   1.584
 3508TIP3   OH210464   2.425   4.880   2.538
 3508TIP3    H110465   2.412   4.851   2.448
 3508TIP3    H210466   2.503   4.935   2.535
 3509TIP3   OH210467   5.741   5.847   1.527
 3509TIP3    H110468   5.765   5.937   1.506
 3509TIP3    H210469   5.746   5.842   1.622
 3510TIP3   OH210470   4.948   0.604   4.327
 3510TIP3    H110471   4.980   0.664   4.259
 3510TIP3    H210472   4.875   0.558   4.286
 3511TIP3   OH210473   5.285   6.238   5.763
 3511TIP3    H110474   5.241   6.247   5.678
 3511TIP3    H210475   5.324   6.324   5.778
 3512TIP3   OH210476   5.812   2.813   2.250
 3512TIP3    H110477   5.875   2.861   2.196
 3512TIP3    H210478   5.865   2.757   2.306
 3513TIP3   OH210479   1.027   6.731   6.508
 3513TIP3    H110480   1.119   6.744   6.487
 3513TIP3    H210481   1.006   6.802   6.568
 3514TIP3   OH210482   8.058   2.600   5.410
 3514TIP3    H110483   7.972   2.580   5.372
 3514TIP3    H210484   8.045   2.593   5.505
 3515TIP3   OH210485   7.822   2.332   3.612
 3515TIP3    H110486   7.751   2.363   3.555
 3515TIP3    H210487   7.808   2.378   3.695
 3516TIP3   OH210488   4.958   6.603   4.953
 3516TIP3    H110489   4.875   6.625   4.910
 3516TIP3    H210490   5.005   6.551   4.889
 3517TIP3   OH210491   6.329   6.938   0.509
 3517TIP3    H110492   6.239   6.937   0.541
 3517TIP3    H210493   6.351   7.031   0.500
 3518TIP3   OH210494   5.822   1.283   1.196
 3518TIP3    H110495   5.786   1.195   1.208
 3518TIP3    H210496   5.768   1.322   1.128
 3519TIP3   OH210497   6.647   7.002   1.268
 3519TIP3    H110498   6.658   7.072   1.332
 3519TIP3    H210499   6.552   6.990   1.260
 3520TIP3   OH210500   4.036   6.041   1.048
 3520TIP3    H110501   4.029   5.962   1.101
 3520TIP3    H210502   4.026   6.113   1.111
 3521TIP3   OH210503   2.376   4.436   6.390
 3521TIP3    H110504   2.343   4.523   6.368
 3521TIP3    H210505   2.322   4.376   6.338
 3522TIP3   OH210506   5.508   0.921   5.511
 3522TIP3    H110507   5.583   0.869   5.482
 3522TIP3    H210508   5.432   0.872   5.481
 3523TIP3   OH210509   8.369   5.840   2.186
 3523TIP3    H110510   8.325   5.834   2.271
 3523TIP3    H210511   8.462   5.828   2.206
 3524TIP3   OH210512   4.415   1.417   2.447
 3524TIP3    H110513   4.344   1.477   2.422
 3524TIP3    H210514   4.473   1.416   2.371
 3525TIP3   OH210515   2.361   7.167   1.308
 3525TIP3    H110516   2.403   7.251   1.326
 3525TIP3    H210517   2.409   7.132   1.232
 3526TIP3   OH210518   4.815   4.854   6.817
 3526TIP3    H110519   4.866   4.773   6.810
 3526TIP3    H210520   4.792   4.860   6.910
 3527TIP3   OH210521   8.162   6.907   3.326
 3527TIP3    H110522   8.098   6.974   3.347
 3527TIP3    H210523   8.246   6.954   3.325
 3528TIP3   OH210524   1.511   5.278   5.002
 3528TIP3    H110525   1.440   5.296   5.064
 3528TIP3    H210526   1.565   5.212   5.046
 3529TIP3   OH210527   1.689   6.297   6.908
 3529TIP3    H110528   1.762   6.356   6.890
 3529TIP3    H210529   1.715   6.213   6.870
 3530TIP3   OH210530   7.219   6.818   5.231
 3530TIP3    H110531   7.192   6.833   5.321
 3530TIP3    H210532   7.213   6.903   5.189
 3531TIP3   OH210533   2.168   7.874   3.347
 3531TIP3    H110534   2.113   7.868   3.269
 3531TIP3    H210535   2.253   7.842   3.318
 3532TIP3   OH210536   6.033   6.847   5.113
 3532TIP3    H110537   5.943   6.871   5.136
 3532TIP3    H210538   6.074   6.930   5.089
 3533TIP3   OH210539   2.089   4.091   5.842
 3533TIP3    H110540   2.145   4.148   5.894
 3533TIP3    H210541   2.139   4.010   5.834
 3534TIP3   OH210542   0.620   7.920   2.601
 3534TIP3    H110543   0.546   7.862   2.620
 3534TIP3    H210544   0.642   7.958   2.686
 3535TIP3   OH210545   5.473   0.211   0.738
 3535TIP3    H110546   5.559   0.248   0.717
 3535TIP3    H210547   5.468   0.130   0.687
 3536TIP3   OH210548   2.066   7.272   3.393
 3536TIP3    H110549   2.095   7.319   3.471
 3536TIP3    H210550   1.978   7.242   3.414
 3537TIP3   OH210551   5.198   2.000   4.640
 3537TIP3    H110552   5.264   1.995   4.570
 3537TIP3    H210553   5.194   1.911   4.675
 3538TIP3   OH210554   0.741   2.984   5.082
 3538TIP3    H110555   0.794   3.002   5.005
 3538TIP3    H210556   0.762   2.894   5.106
 3539TIP3   OH210557   3.546   7.341   3.528
 3539TIP3    H110558   3.640   7.342   3.546
 3539TIP3    H210559   3.529   7.255   3.491
 3540TIP3   OH210560   6.176  -0.007   1.602
 3540TIP3    H110561   6.241   0.050   1.561
 3540TIP3    H210562   6.147   0.040   1.680
 3541TIP3   OH210563   7.727   7.124   6.784
 3541TIP3    H110564   7.709   7.049   6.727
 3541TIP3    H210565   7.647   7.135   6.835
 3542TIP3   OH210566   5.473   7.163   5.412
 3542TIP3    H110567   5.523   7.082   5.399
 3542TIP3    H210568   5.465   7.200   5.324
 3543TIP3   OH210569   6.594   2.505   0.215
 3543TIP3    H110570   6.501   2.524   0.226
 3543TIP3    H210571   6.631   2.587   0.181
 3544TIP3   OH210572   6.626   5.429   3.160
 3544TIP3    H110573   6.604   5.521   3.174
 3544TIP3    H210574   6.722   5.429   3.150
 3545TIP3   OH210575   8.205   6.604   4.586
 3545TIP3    H110576   8.256   6.602   4.505
 3545TIP3    H210577   8.146   6.529   4.578
 3546TIP3   OH210578   4.834   7.157   6.617
 3546TIP3    H110579   4.769   7.227   6.626
 3546TIP3    H210580   4.833   7.114   6.702
 3547TIP3   OH210581   1.775   7.255   4.408
 3547TIP3    H110582   1.812   7.343   4.422
 3547TIP3    H210583   1.818   7.224   4.328
 3548TIP3   OH210584   1.879   4.806   4.088
 3548TIP3    H110585   1.861   4.751   4.012
 3548TIP3    H210586   1.975   4.806   4.095
 3549TIP3   OH210587   2.072   2.577   0.952
 3549TIP3    H110588   2.130   2.603   0.881
 3549TIP3    H210589   1.984   2.578   0.913
 3550TIP3   OH210590   6.212   2.941   1.778
 3550TIP3    H110591   6.217   3.031   1.745
 3550TIP3    H210592   6.214   2.887   1.699
 3551TIP3   OH210593   2.800   0.569   0.340
 3551TIP3    H110594   2.877   0.612   0.377
 3551TIP3    H210595   2.753   0.535   0.416
 3552TIP3   OH210596   2.063   4.325   6.602
 3552TIP3    H110597   1.991   4.336   6.540
 3552TIP3    H210598   2.048   4.238   6.639
 3553TIP3   OH210599   4.767   4.992   5.334
 3553TIP3    H110600   4.682   4.953   5.313
 3553TIP3    H210601   4.757   5.024   5.424
 3554TIP3   OH210602   4.819   0.628   4.996
 3554TIP3    H110603   4.862   0.628   4.911
 3554TIP3    H210604   4.890   0.640   5.059
 3555TIP3   OH210605   1.703   6.869   5.829
 3555TIP3    H110606   1.737   6.783   5.855
 3555TIP3    H210607   1.684   6.859   5.736
 3556TIP3   OH210608   6.512   0.846   6.495
 3556TIP3    H110609   6.433   0.809   6.534
 3556TIP3    H210610   6.548   0.903   6.562
 3557TIP3   OH210611   2.624   1.447   1.355
 3557TIP3    H110612   2.649   1.492   1.274
 3557TIP3    H210613   2.631   1.354   1.333
 3558TIP3   OH210614   6.083   4.733   0.633
 3558TIP3    H110615   6.153   4.697   0.579
 3558TIP3    H210616   6.011   4.748   0.572
 3559TIP3   OH210617   5.784   6.097   0.329
 3559TIP3    H110618   5.863   6.143   0.301
 3559TIP3    H210619   5.712   6.151   0.296
 3560TIP3   OH210620   6.239   6.039   0.326
 3560TIP3    H110621   6.304   6.088   0.376
 3560TIP3    H210622   6.156   6.083   0.345
 3561TIP3   OH210623   5.459   4.676   5.905
 3561TIP3    H110624   5.393   4.744   5.917
 3561TIP3    H210625   5.410   4.594   5.907
 3562TIP3   OH210626   8.116   6.148   6.401
 3562TIP3    H110627   8.167   6.087   6.347
 3562TIP3    H210628   8.157   6.233   6.386
 3563TIP3   OH210629   7.904   6.266  -0.020
 3563TIP3    H110630   7.892   6.188   0.033
 3563TIP3    H210631   7.878   6.338   0.037
 3564TIP3   OH210632   0.089   4.065   6.079
 3564TIP3    H110633  -0.004   4.074   6.097
 3564TIP3    H210634   0.125   4.025   6.158
 3565TIP3   OH210635   5.708   7.594   5.468
 3565TIP3    H110636   5.692   7.575   5.561
 3565TIP3    H210637   5.741   7.512   5.432
 3566TIP3   OH210638   6.143   4.303   2.787
 3566TIP3    H110639   6.176   4.218   2.758
 3566TIP3    H210640   6.174   4.312   2.877
 3567TIP3   OH210641   0.922   3.340   4.375
 3567TIP3    H110642   0.946   3.251   4.350
 3567TIP3    H210643   0.857   3.329   4.444
 3568TIP3   OH210644   5.459   6.679   1.139
 3568TIP3    H110645   5.427   6.761   1.177
 3568TIP3    H210646   5.484   6.703   1.049
 3569TIP3   OH210647   6.504   5.251   3.876
 3569TIP3    H110648   6.536   5.341   3.877
 3569TIP3    H210649   6.572   5.201   3.922
 3570TIP3   OH210650   8.320   5.568   4.113
 3570TIP3    H110651   8.279   5.491   4.073
 3570TIP3    H210652   8.247   5.618   4.150
 3571TIP3   OH210653   6.872   3.959   5.472
 3571TIP3    H110654   6.889   4.031   5.532
 3571TIP3    H210655   6.852   4.002   5.388
 3572TIP3   OH210656   2.615   4.527   4.510
 3572TIP3    H110657   2.564   4.502   4.434
 3572TIP3    H210658   2.704   4.498   4.490
 3573TIP3   OH210659   2.535   2.114   3.908
 3573TIP3    H110660   2.576   2.035   3.945
 3573TIP3    H210661   2.583   2.129   3.826
 3574TIP3   OH210662   3.178   3.704   4.521
 3574TIP3    H110663   3.186   3.677   4.430
 3574TIP3    H210664   3.084   3.718   4.534
 3575TIP3   OH210665   3.734   2.671   0.665
 3575TIP3    H110666   3.741   2.742   0.729
 3575TIP3    H210667   3.790   2.601   0.700
 3576TIP3   OH210668   6.868   6.801   3.383
 3576TIP3    H110669   6.798   6.848   3.429
 3576TIP3    H210670   6.836   6.711   3.376
 3577TIP3   OH210671   2.038   6.254   1.025
 3577TIP3    H110672   2.090   6.188   0.980
 3577TIP3    H210673   2.060   6.336   0.981
 3578TIP3   OH210674   1.754   0.959   4.275
 3578TIP3    H110675   1.754   1.055   4.264
 3578TIP3    H210676   1.716   0.926   4.194
 3579TIP3   OH210677   3.850   2.562   2.562
 3579TIP3    H110678   3.882   2.644   2.600
 3579TIP3    H210679   3.756   2.562   2.582
 3580TIP3   OH210680   7.649   2.532   4.728
 3580TIP3    H110681   7.741   2.508   4.718
 3580TIP3    H210682   7.637   2.607   4.669
 3581TIP3   OH210683   7.191   3.136   2.214
 3581TIP3    H110684   7.097   3.151   2.211
 3581TIP3    H210685   7.203   3.053   2.168
 3582TIP3   OH210686   5.315   0.693   0.141
 3582TIP3    H110687   5.325   0.677   0.235
 3582TIP3    H210688   5.322   0.788   0.133
 3583TIP3   OH210689   7.144   0.639   5.231
 3583TIP3    H110690   7.184   0.715   5.274
 3583TIP3    H210691   7.099   0.674   5.155
 3584TIP3   OH210692   4.847   1.308   5.189
 3584TIP3    H110693   4.893   1.242   5.138
 3584TIP3    H210694   4.916   1.367   5.220
 3585TIP3   OH210695   6.368   2.812   0.892
 3585TIP3    H110696   6.368   2.873   0.818
 3585TIP3    H210697   6.283   2.769   0.887
 3586TIP3   OH210698   1.260   7.280   3.230
 3586TIP3    H110699   1.165   7.266   3.235
 3586TIP3    H210700   1.294   7.200   3.190
 3587TIP3   OH210701   0.331   0.998   0.412
 3587TIP3    H110702   0.366   0.918   0.371
 3587TIP3    H210703   0.246   1.012   0.371
 3588TIP3   OH210704   6.124   7.271   1.585
 3588TIP3    H110705   6.171   7.354   1.584
 3588TIP3    H210706   6.122   7.244   1.493
 3589TIP3   OH210707   1.704   1.036   3.992
 3589TIP3    H110708   1.794   1.004   3.983
 3589TIP3    H210709   1.705   1.120   3.947
 3590TIP3   OH210710   8.257   1.830   1.023
 3590TIP3    H110711   8.303   1.873   1.095
 3590TIP3    H210712   8.253   1.738   1.049
 3591TIP3   OH210713   7.943   7.819   5.483
 3591TIP3    H110714   7.850   7.796   5.472
 3591TIP3    H210715   7.989   7.736   5.478
 3592TIP3   OH210716   7.193   4.123   4.737
 3592TIP3    H110717   7.120   4.141   4.797
 3592TIP3    H210718   7.152   4.124   4.650
 3593TIP3   OH210719   6.661   0.879   6.172
 3593TIP3    H110720   6.668   0.973   6.153
 3593TIP3    H210721   6.733   0.863   6.233
 3594TIP3   OH210722   7.341   6.385   6.758
 3594TIP3    H110723   7.268   6.446   6.767
 3594TIP3    H210724   7.400   6.426   6.696
 3595TIP3   OH210725   8.349   4.098   3.814
 3595TIP3    H110726   8.338   4.055   3.899
 3595TIP3    H210727   8.362   4.191   3.836
 3596TIP3   OH210728   8.227   3.400   0.275
 3596TIP3    H110729   8.170   3.412   0.351
 3596TIP3    H210730   8.294   3.467   0.285
 3597TIP3   OH210731   8.132   2.693   6.120
 3597TIP3    H110732   8.208   2.649   6.160
 3597TIP3    H210733   8.058   2.668   6.176
 3598TIP3   OH210734   7.423   0.387   3.759
 3598TIP3    H110735   7.441   0.419   3.671
 3598TIP3    H210736   7.501   0.409   3.809
 3599TIP3   OH210737   6.327   5.964   5.587
 3599TIP3    H110738   6.421   5.979   5.578
 3599TIP3    H210739   6.289   6.003   5.508
 3600TIP3   OH210740   3.468   6.317   5.899
 3600TIP3    H110741   3.496   6.327   5.809
 3600TIP3    H210742   3.448   6.407   5.928
 3601TIP3   OH210743   6.699   4.004   5.037
 3601TIP3    H110744   6.656   3.948   5.100
 3601TIP3    H210745   6.631   4.028   4.974
 3602TIP3   OH210746   7.573   5.916   2.799
 3602TIP3    H110747   7.547   5.917   2.892
 3602TIP3    H210748   7.656   5.964   2.797
 3603TIP3   OH210749   3.057   6.080   4.573
 3603TIP3    H110750   3.008   6.014   4.623
 3603TIP3    H210751   3.048   6.161   4.624
 3604TIP3   OH210752   2.259   3.149   6.439
 3604TIP3    H110753   2.233   3.240   6.454
 3604TIP3    H210754   2.307   3.151   6.356
 3605TIP3   OH210755   2.103   3.368   6.554
 3605TIP3    H110756   2.056   3.447   6.529
 3605TIP3    H210757   2.107   3.372   6.650
 3606TIP3   OH210758   6.419   7.184   5.659
 3606TIP3    H110759   6.410   7.193   5.564
 3606TIP3    H210760   6.488   7.247   5.682
 3607TIP3   OH210761   0.201   1.372   6.668
 3607TIP3    H110762   0.137   1.383   6.738
 3607TIP3    H210763   0.224   1.279   6.670
 3608TIP3   OH210764   0.388   0.846   5.148
 3608TIP3    H110765   0.470   0.877   5.185
 3608TIP3    H210766   0.401   0.851   5.053
 3609TIP3   OH210767   6.340   2.396   1.482
 3609TIP3    H110768   6.401   2.353   1.541
 3609TIP3    H210769   6.285   2.450   1.539
 3610TIP3   OH210770   7.195   0.368   4.854
 3610TIP3    H110771   7.256   0.306   4.895
 3610TIP3    H210772   7.251   0.441   4.827
 3611TIP3   OH210773   1.284   7.506   3.404
 3611TIP3    H110774   1.289   7.575   3.337
 3611TIP3    H210775   1.309   7.426   3.357
 3612TIP3   OH210776   4.813   3.801   4.430
 3612TIP3    H110777   4.827   3.781   4.337
 3612TIP3    H210778   4.734   3.855   4.431
 3613TIP3   OH210779   6.091   7.385   5.040
 3613TIP3    H110780   6.101   7.395   5.135
 3613TIP3    H210781   6.000   7.411   5.022
 3614TIP3   OH210782   8.416   3.744   3.596
 3614TIP3    H110783   8.369   3.731   3.514
 3614TIP3    H210784   8.381   3.676   3.654
 3615TIP3   OH210785   8.370   6.517   0.019
 3615TIP3    H110786   8.313   6.440   0.018
 3615TIP3    H210787   8.346   6.563   0.100
 3616TIP3   OH210788   2.124   0.341   0.444
 3616TIP3    H110789   2.171   0.375   0.520
 3616TIP3    H210790   2.179   0.271   0.410
 3617TIP3   OH210791   3.127   0.575   5.258
 3617TIP3    H110792   3.142   0.544   5.347
 3617TIP3    H210793   3.072   0.508   5.218
 3618TIP3   OH210794   7.833   5.496   2.460
 3618TIP3    H110795   7.789   5.413   2.442
 3618TIP3    H210796   7.789   5.559   2.403
 3619TIP3   OH210797   5.168   4.834   3.716
 3619TIP3    H110798   5.087   4.871   3.680
 3619TIP3    H210799   5.140   4.787   3.795
 3620TIP3   OH210800   1.975   5.622   5.216
 3620TIP3    H110801   1.929   5.685   5.272
 3620TIP3    H210802   2.068   5.644   5.227
 3621TIP3   OH210803   6.103   2.889   0.545
 3621TIP3    H110804   6.198   2.880   0.543
 3621TIP3    H210805   6.071   2.805   0.512
 3622TIP3   OH210806   1.920   0.277   6.375
 3622TIP3    H110807   1.999   0.309   6.333
 3622TIP3    H210808   1.888   0.208   6.317
 3623TIP3   OH210809   6.896   6.480   5.839
 3623TIP3    H110810   6.926   6.392   5.817
 3623TIP3    H210811   6.922   6.493   5.931
 3624TIP3   OH210812   8.212   5.399   0.099
 3624TIP3    H110813   8.182   5.436   0.182
 3624TIP3    H210814   8.181   5.308   0.101
 3625TIP3   OH210815   0.987   1.783   5.457
 3625TIP3    H110816   1.011   1.691   5.445
 3625TIP3    H210817   0.992   1.798   5.551
 3626TIP3   OH210818   3.413   6.321   3.792
 3626TIP3    H110819   3.384   6.298   3.880
 3626TIP3    H210820   3.439   6.238   3.753
 3627TIP3   OH210821   6.313   7.756   0.904
 3627TIP3    H110822   6.399   7.792   0.926
 3627TIP3    H210823   6.332   7.688   0.839
 3628TIP3   OH210824   2.417   2.289   4.530
 3628TIP3    H110825   2.416   2.377   4.568
 3628TIP3    H210826   2.468   2.298   4.450
 3629TIP3   OH210827   1.470   2.441   2.739
 3629TIP3    H110828   1.398   2.468   2.796
 3629TIP3    H210829   1.542   2.499   2.761
 3630TIP3   OH210830   0.525   4.511   3.822
 3630TIP3    H110831   0.517   4.540   3.731
 3630TIP3    H210832   0.603   4.455   3.822
 3631TIP3   OH210833   7.242   2.552   6.827
 3631TIP3    H110834   7.179   2.513   6.888
 3631TIP3    H210835   7.315   2.579   6.883
 3632TIP3   OH210836   0.964   3.627   1.377
 3632TIP3    H110837   1.022   3.568   1.423
 3632TIP3    H210838   0.929   3.575   1.304
 3633TIP3   OH210839   1.479   2.807   4.047
 3633TIP3    H110840   1.462   2.759   4.128
 3633TIP3    H210841   1.408   2.780   3.988
 3634TIP3   OH210842   7.327   1.196   5.824
 3634TIP3    H110843   7.366   1.183   5.737
 3634TIP3    H210844   7.386   1.257   5.867
 3635TIP3   OH210845   8.228   4.868   2.911
 3635TIP3    H110846   8.237   4.919   2.991
 3635TIP3    H210847   8.224   4.777   2.941
 3636TIP3   OH210848   8.316  -0.032   4.688
 3636TIP3    H110849   8.331   0.059   4.661
 3636TIP3    H210850   8.278  -0.025   4.776
 3637TIP3   OH210851   3.629   7.667   1.681
 3637TIP3    H110852   3.562   7.599   1.686
 3637TIP3    H210853   3.618   7.707   1.594
 3638TIP3   OH210854   8.252   0.924   0.089
 3638TIP3    H110855   8.172   0.873   0.091
 3638TIP3    H210856   8.298   0.895   0.010
 3639TIP3   OH210857   3.217   5.359   1.636
 3639TIP3    H110858   3.216   5.371   1.541
 3639TIP3    H210859   3.286   5.295   1.651
 3640TIP3   OH210860   1.234   3.389   1.313
 3640TIP3    H110861   1.254   3.466   1.367
 3640TIP3    H210862   1.303   3.388   1.247
 3641TIP3   OH210863   0.873   1.301   2.553
 3641TIP3    H110864   0.920   1.353   2.488
 3641TIP3    H210865   0.904   1.212   2.538
 3642TIP3   OH210866   0.768   2.886   1.647
 3642TIP3    H110867   0.849   2.914   1.688
 3642TIP3    H210868   0.795   2.828   1.576
 3643TIP3   OH210869   6.437   6.595   5.252
 3643TIP3    H110870   6.431   6.508   5.212
 3643TIP3    H210871   6.346   6.617   5.274
 3644TIP3   OH210872   5.485   7.194   2.766
 3644TIP3    H110873   5.484   7.222   2.675
 3644TIP3    H210874   5.572   7.155   2.779
 3645TIP3   OH210875   5.355   2.476   6.243
 3645TIP3    H110876   5.288   2.411   6.267
 3645TIP3    H210877   5.314   2.560   6.263
 3646TIP3   OH210878   1.456   4.103   1.983
 3646TIP3    H110879   1.432   4.035   2.046
 3646TIP3    H210880   1.375   4.154   1.971
 3647TIP3   OH210881   0.591   6.887   0.874
 3647TIP3    H110882   0.614   6.810   0.926
 3647TIP3    H210883   0.620   6.962   0.927
 3648TIP3   OH210884   2.707   5.852   0.596
 3648TIP3    H110885   2.664   5.868   0.512
 3648TIP3    H210886   2.790   5.899   0.590
 3649TIP3   OH210887   6.227   0.590   6.024
 3649TIP3    H110888   6.143   0.579   6.068
 3649TIP3    H210889   6.273   0.656   6.075
 3650TIP3   OH210890   0.346   4.957   0.892
 3650TIP3    H110891   0.286   4.897   0.848
 3650TIP3    H210892   0.290   5.031   0.918
 3651TIP3   OH210893   4.562   4.272   0.653
 3651TIP3    H110894   4.633   4.310   0.602
 3651TIP3    H210895   4.507   4.346   0.676
 3652TIP3   OH210896   3.720   1.897   1.335
 3652TIP3    H110897   3.647   1.895   1.274
 3652TIP3    H210898   3.784   1.957   1.295
 3653TIP3   OH210899   4.096   3.669   0.323
 3653TIP3    H110900   4.112   3.703   0.412
 3653TIP3    H210901   4.175   3.692   0.275
 3654TIP3   OH210902   8.009   5.226   3.743
 3654TIP3    H110903   8.069   5.178   3.798
 3654TIP3    H210904   8.063   5.263   3.674
 3655TIP3   OH210905   4.592   5.024   2.489
 3655TIP3    H110906   4.678   5.007   2.527
 3655TIP3    H210907   4.539   4.949   2.515
 3656TIP3   OH210908   2.347   5.812   1.086
 3656TIP3    H110909   2.358   5.758   1.008
 3656TIP3    H210910   2.404   5.771   1.151
 3657TIP3   OH210911   8.382   1.656   5.834
 3657TIP3    H110912   8.353   1.660   5.743
 3657TIP3    H210913   8.306   1.684   5.884
 3658TIP3   OH210914   2.152   6.444   6.186
 3658TIP3    H110915   2.116   6.424   6.272
 3658TIP3    H210916   2.133   6.537   6.173
 3659TIP3   OH210917   8.030   7.051   0.957
 3659TIP3    H110918   8.121   7.031   0.975
 3659TIP3    H210919   7.999   6.978   0.903
 3660TIP3   OH210920   6.003   7.796   3.641
 3660TIP3    H110921   5.975   7.869   3.586
 3660TIP3    H210922   6.078   7.757   3.594
 3661TIP3   OH210923   7.945   1.294   4.788
 3661TIP3    H110924   7.897   1.273   4.708
 3661TIP3    H210925   7.888   1.265   4.859
 3662TIP3   OH210926   0.679   4.112   5.994
 3662TIP3    H110927   0.617   4.066   6.050
 3662TIP3    H210928   0.638   4.114   5.908
 3663TIP3   OH210929   6.659   4.086   1.186
 3663TIP3    H110930   6.645   4.056   1.276
 3663TIP3    H210931   6.616   4.171   1.181
 3664TIP3   OH210932   5.355   5.580   4.073
 3664TIP3    H110933   5.440   5.587   4.116
 3664TIP3    H210934   5.341   5.665   4.033
 3665TIP3   OH210935   5.395   3.444   4.225
 3665TIP3    H110936   5.342   3.514   4.188
 3665TIP3    H210937   5.359   3.364   4.186
 3666TIP3   OH210938   5.716   3.476   4.760
 3666TIP3    H110939   5.706   3.524   4.678
 3666TIP3    H210940   5.670   3.529   4.825
 3667TIP3   OH210941   5.464   0.679   1.386
 3667TIP3    H110942   5.548   0.647   1.418
 3667TIP3    H210943   5.482   0.711   1.298
 3668TIP3   OH210944   6.059   7.705   5.117
 3668TIP3    H110945   6.036   7.703   5.209
 3668TIP3    H210946   5.992   7.761   5.077
 3669TIP3   OH210947   4.612   7.877   4.540
 3669TIP3    H110948   4.557   7.948   4.508
 3669TIP3    H210949   4.578   7.858   4.627
 3670TIP3   OH210950   6.944   5.822   1.262
 3670TIP3    H110951   7.004   5.759   1.302
 3670TIP3    H210952   6.953   5.901   1.315
 3671TIP3   OH210953   3.425   0.202   4.097
 3671TIP3    H110954   3.410   0.191   4.003
 3671TIP3    H210955   3.513   0.237   4.104
 3672TIP3   OH210956   5.306   7.944   6.409
 3672TIP3    H110957   5.374   7.914   6.470
 3672TIP3    H210958   5.264   8.017   6.454
 3673TIP3   OH210959   4.007   4.880   1.675
 3673TIP3    H110960   4.085   4.925   1.643
 3673TIP3    H210961   4.039   4.823   1.745
 3674TIP3   OH210962   0.874   5.020   1.260
 3674TIP3    H110963   0.924   4.996   1.182
 3674TIP3    H210964   0.865   5.116   1.255
 3675TIP3   OH210965   5.658   0.519   6.745
 3675TIP3    H110966   5.735   0.525   6.688
 3675TIP3    H210967   5.608   0.598   6.726
 3676TIP3   OH210968   0.538   6.072   3.515
 3676TIP3    H110969   0.493   6.000   3.470
 3676TIP3    H210970   0.604   6.029   3.570
 3677TIP3   OH210971   4.738   6.657   6.196
 3677TIP3    H110972   4.775   6.615   6.118
 3677TIP3    H210973   4.644   6.661   6.180
 3678TIP3   OH210974   1.819   3.699   3.447
 3678TIP3    H110975   1.842   3.728   3.535
 3678TIP3    H210976   1.723   3.697   3.447
 3679TIP3   OH210977   2.217   1.064   4.800
 3679TIP3    H110978   2.252   0.983   4.764
 3679TIP3    H210979   2.241   1.131   4.736
 3680TIP3   OH210980   7.030   1.566   0.776
 3680TIP3    H110981   6.995   1.486   0.736
 3680TIP3    H210982   6.953   1.619   0.795
 3681TIP3   OH210983   1.095   7.197   0.176
 3681TIP3    H110984   1.125   7.128   0.236
 3681TIP3    H210985   1.125   7.168   0.090
 3682TIP3   OH210986   6.217   2.966   5.782
 3682TIP3    H110987   6.209   3.023   5.859
 3682TIP3    H210988   6.310   2.947   5.776
 3683TIP3   OH210989   4.341   4.256   6.419
 3683TIP3    H110990   4.291   4.337   6.422
 3683TIP3    H210991   4.274   4.187   6.417
 3684TIP3   OH210992   6.912   3.726   4.728
 3684TIP3    H110993   6.825   3.690   4.739
 3684TIP3    H210994   6.960   3.659   4.679
 3685TIP3   OH210995   4.234   5.943   6.672
 3685TIP3    H110996   4.265   5.973   6.586
 3685TIP3    H210997   4.214   5.850   6.660
 3686TIP3   OH210998   3.379   3.860   3.390
 3686TIP3    H110999   3.380   3.767   3.413
 3686TIP3    H211000   3.341   3.903   3.468
 3687TIP3   OH211001   6.525   2.095   6.736
 3687TIP3    H111002   6.541   2.189   6.739
 3687TIP3    H211003   6.441   2.083   6.780
 3688TIP3   OH211004   4.450   5.362   1.147
 3688TIP3    H111005   4.438   5.383   1.054
 3688TIP3    H211006   4.487   5.442   1.184
 3689TIP3   OH211007   7.419   1.793   1.288
 3689TIP3    H111008   7.331   1.825   1.269
 3689TIP3    H211009   7.477   1.849   1.236
 3690TIP3   OH211010   0.881   3.710   0.009
 3690TIP3    H111011   0.935   3.775   0.055
 3690TIP3    H211012   0.882   3.738  -0.082
 3691TIP3   OH211013   4.749   0.548   1.683
 3691TIP3    H111014   4.794   0.485   1.739
 3691TIP3    H211015   4.748   0.629   1.735
 3692TIP3   OH211016   1.658   5.286   4.778
 3692TIP3    H111017   1.588   5.286   4.843
 3692TIP3    H211018   1.673   5.194   4.759
 3693TIP3   OH211019   3.548   0.057   6.540
 3693TIP3    H111020   3.458   0.090   6.540
 3693TIP3    H211021   3.569   0.044   6.448
 3694TIP3   OH211022   8.046   5.468   1.285
 3694TIP3    H111023   8.047   5.484   1.379
 3694TIP3    H211024   7.991   5.391   1.274
 3695TIP3   OH211025   0.143   6.583   1.231
 3695TIP3    H111026   0.209   6.527   1.272
 3695TIP3    H211027   0.063   6.531   1.232
 3696TIP3   OH211028   0.216   0.709   4.138
 3696TIP3    H111029   0.266   0.639   4.179
 3696TIP3    H211030   0.242   0.788   4.185
 3697TIP3   OH211031   0.130   3.263   4.657
 3697TIP3    H111032   0.117   3.179   4.613
 3697TIP3    H211033   0.194   3.243   4.726
 3698TIP3   OH211034   4.650   3.653   5.803
 3698TIP3    H111035   4.670   3.717   5.871
 3698TIP3    H211036   4.554   3.654   5.796
 3699TIP3   OH211037   2.380   0.898   1.691
 3699TIP3    H111038   2.470   0.919   1.668
 3699TIP3    H211039   2.380   0.892   1.786
 3700TIP3   OH211040   0.503   3.694   5.730
 3700TIP3    H111041   0.475   3.703   5.821
 3700TIP3    H211042   0.595   3.670   5.735
 3701TIP3   OH211043   3.139   3.777   2.091
 3701TIP3    H111044   3.065   3.738   2.136
 3701TIP3    H211045   3.139   3.868   2.119
 3702TIP3   OH211046   2.378   1.016   1.294
 3702TIP3    H111047   2.344   0.993   1.208
 3702TIP3    H211048   2.304   1.056   1.340
 3703TIP3   OH211049   0.289   6.039   3.647
 3703TIP3    H111050   0.367   6.075   3.605
 3703TIP3    H211051   0.248   6.114   3.691
 3704TIP3   OH211052   6.754   5.972   3.373
 3704TIP3    H111053   6.780   5.887   3.409
 3704TIP3    H211054   6.659   5.972   3.378
 3705TIP3   OH211055   0.937   4.824   2.144
 3705TIP3    H111056   0.972   4.740   2.174
 3705TIP3    H211057   0.940   4.819   2.049
 3706TIP3   OH211058   1.286   0.525   1.385
 3706TIP3    H111059   1.312   0.440   1.349
 3706TIP3    H211060   1.236   0.503   1.464
 3707TIP3   OH211061   5.166   4.939   0.162
 3707TIP3    H111062   5.225   4.920   0.090
 3707TIP3    H211063   5.100   4.870   0.158
 3708TIP3   OH211064   3.787   6.382   0.649
 3708TIP3    H111065   3.882   6.382   0.635
 3708TIP3    H211066   3.769   6.297   0.690
 3709TIP3   OH211067   1.555   2.487   0.863
 3709TIP3    H111068   1.533   2.560   0.921
 3709TIP3    H211069   1.479   2.429   0.869
 3710TIP3   OH211070   6.550   6.267   2.265
 3710TIP3    H111071   6.606   6.261   2.187
 3710TIP3    H211072   6.461   6.272   2.229
 3711TIP3   OH211073   1.648   1.640   5.853
 3711TIP3    H111074   1.739   1.637   5.822
 3711TIP3    H211075   1.616   1.726   5.826
 3712TIP3   OH211076   4.444   0.539   1.310
 3712TIP3    H111077   4.515   0.482   1.339
 3712TIP3    H211078   4.467   0.625   1.345
 3713TIP3   OH211079   1.030   3.986   6.657
 3713TIP3    H111080   0.982   4.011   6.736
 3713TIP3    H211081   1.073   4.067   6.629
 3714TIP3   OH211082   2.499   1.564   0.564
 3714TIP3    H111083   2.531   1.476   0.544
 3714TIP3    H211084   2.418   1.572   0.514
 3715TIP3   OH211085   4.236   4.240   2.761
 3715TIP3    H111086   4.329   4.224   2.744
 3715TIP3    H211087   4.225   4.218   2.853
 3716TIP3   OH211088   3.300   4.866   0.476
 3716TIP3    H111089   3.284   4.777   0.507
 3716TIP3    H211090   3.353   4.855   0.397
 3717TIP3   OH211091   6.845   0.687   3.289
 3717TIP3    H111092   6.863   0.645   3.372
 3717TIP3    H211093   6.894   0.636   3.224
 3718TIP3   OH211094   8.062   6.363   4.038
 3718TIP3    H111095   8.058   6.287   4.096
 3718TIP3    H211096   7.991   6.419   4.068
 3719TIP3   OH211097   2.525   1.575   1.098
 3719TIP3    H111098   2.544   1.526   1.018
 3719TIP3    H211099   2.469   1.648   1.069
 3720TIP3   OH211100   1.249   0.392   5.189
 3720TIP3    H111101   1.265   0.439   5.271
 3720TIP3    H211102   1.336   0.371   5.156
 3721TIP3   OH211103   6.153   1.271   5.862
 3721TIP3    H111104   6.155   1.181   5.893
 3721TIP3    H211105   6.062   1.298   5.874
 3722TIP3   OH211106   3.405   5.892   5.824
 3722TIP3    H111107   3.425   5.933   5.909
 3722TIP3    H211108   3.309   5.891   5.820
 3723TIP3   OH211109   7.797   3.703   5.615
 3723TIP3    H111110   7.737   3.667   5.680
 3723TIP3    H211111   7.884   3.674   5.643
 3724TIP3   OH211112   0.097   3.950   1.970
 3724TIP3    H111113   0.084   4.037   1.935
 3724TIP3    H211114   0.189   3.929   1.950
 3725TIP3   OH211115   0.435   5.845   0.086
 3725TIP3    H111116   0.409   5.853   0.177
 3725TIP3    H211117   0.525   5.812   0.090
 3726TIP3   OH211118   1.291   6.993   0.241
 3726TIP3    H111119   1.358   6.964   0.179
 3726TIP3    H211120   1.339   7.002   0.324
 3727TIP3   OH211121   5.351   5.874   2.947
 3727TIP3    H111122   5.293   5.840   2.879
 3727TIP3    H211123   5.379   5.960   2.914
 3728TIP3   OH211124   6.359   1.529   6.864
 3728TIP3    H111125   6.429   1.483   6.817
 3728TIP3    H211126   6.404   1.598   6.912
 3729TIP3   OH211127   0.779   5.452   4.467
 3729TIP3    H111128   0.824   5.391   4.526
 3729TIP3    H211129   0.695   5.469   4.510
 3730TIP3   OH211130   4.500   1.854   0.736
 3730TIP3    H111131   4.442   1.848   0.660
 3730TIP3    H211132   4.487   1.770   0.781
 3731TIP3   OH211133   0.402   4.855   0.451
 3731TIP3    H111134   0.320   4.905   0.443
 3731TIP3    H211135   0.381   4.784   0.510
 3732TIP3   OH211136   1.231   6.800   1.867
 3732TIP3    H111137   1.285   6.827   1.941
 3732TIP3    H211138   1.287   6.741   1.817
 3733TIP3   OH211139   5.415   7.359   4.193
 3733TIP3    H111140   5.457   7.377   4.109
 3733TIP3    H211141   5.336   7.310   4.171
 3734TIP3   OH211142   5.656   4.819   1.396
 3734TIP3    H111143   5.569   4.825   1.433
 3734TIP3    H211144   5.649   4.752   1.328
 3735TIP3   OH211145   5.690   2.254   0.307
 3735TIP3    H111146   5.607   2.212   0.288
 3735TIP3    H211147   5.673   2.348   0.298
 3736TIP3   OH211148   6.793   7.183   2.988
 3736TIP3    H111149   6.878   7.139   2.978
 3736TIP3    H211150   6.809   7.251   3.053
 3737TIP3   OH211151   6.132   2.082   2.899
 3737TIP3    H111152   6.107   2.011   2.958
 3737TIP3    H211153   6.179   2.039   2.828
 3738TIP3   OH211154   5.338   1.283   2.117
 3738TIP3    H111155   5.317   1.370   2.082
 3738TIP3    H211156   5.432   1.287   2.136
 3739TIP3   OH211157   0.531   0.328   4.820
 3739TIP3    H111158   0.516   0.404   4.877
 3739TIP3    H211159   0.549   0.256   4.880
 3740TIP3   OH211160   5.562   7.701   3.295
 3740TIP3    H111161   5.582   7.753   3.216
 3740TIP3    H211162   5.560   7.611   3.264
 3741TIP3   OH211163   5.049   0.073   0.461
 3741TIP3    H111164   5.106   0.149   0.460
 3741TIP3    H211165   5.041   0.049   0.553
 3742TIP3   OH211166   8.327   6.319   5.595
 3742TIP3    H111167   8.245   6.312   5.546
 3742TIP3    H211168   8.349   6.412   5.592
 3743TIP3   OH211169   5.879   0.428   6.072
 3743TIP3    H111170   5.845   0.348   6.113
 3743TIP3    H211171   5.909   0.401   5.986
 3744TIP3   OH211172   1.862   0.108   2.999
 3744TIP3    H111173   1.831   0.128   3.087
 3744TIP3    H211174   1.804   0.158   2.941
 3745TIP3   OH211175   7.959   4.337   5.297
 3745TIP3    H111176   7.915   4.254   5.318
 3745TIP3    H211177   7.919   4.365   5.215
 3746TIP3   OH211178   1.818   0.944   1.082
 3746TIP3    H111179   1.806   1.039   1.078
 3746TIP3    H211180   1.807   0.923   1.175
 3747TIP3   OH211181   2.415   0.599   5.697
 3747TIP3    H111182   2.386   0.518   5.655
 3747TIP3    H211183   2.501   0.578   5.732
 3748TIP3   OH211184   7.092   6.478   3.434
 3748TIP3    H111185   7.141   6.434   3.503
 3748TIP3    H211186   7.005   6.438   3.436
 3749TIP3   OH211187   8.122   2.609   1.752
 3749TIP3    H111188   8.195   2.548   1.742
 3749TIP3    H211189   8.114   2.620   1.847
 3750TIP3   OH211190   3.294   6.405   0.948
 3750TIP3    H111191   3.227   6.446   0.892
 3750TIP3    H211192   3.245   6.377   1.025
 3751TIP3   OH211193   4.868   1.798   5.268
 3751TIP3    H111194   4.906   1.843   5.345
 3751TIP3    H211195   4.834   1.716   5.303
 3752TIP3   OH211196   3.527   0.569   6.186
 3752TIP3    H111197   3.560   0.479   6.191
 3752TIP3    H211198   3.432   0.558   6.177
 3753TIP3   OH211199   2.526   7.044  -0.006
 3753TIP3    H111200   2.562   6.977   0.052
 3753TIP3    H211201   2.603   7.082  -0.048
 3754TIP3   OH211202   5.282   6.917   1.490
 3754TIP3    H111203   5.325   6.833   1.476
 3754TIP3    H211204   5.223   6.928   1.415
 3755TIP3   OH211205   3.176   5.457   0.430
 3755TIP3    H111206   3.148   5.456   0.338
 3755TIP3    H211207   3.224   5.540   0.439
 3756TIP3   OH211208   3.846   2.888   0.834
 3756TIP3    H111209   3.897   2.945   0.777
 3756TIP3    H211210   3.897   2.881   0.914
 3757TIP3   OH211211   1.042   5.574   0.213
 3757TIP3    H111212   0.975   5.528   0.264
 3757TIP3    H211213   0.993   5.614   0.141
 3758TIP3   OH211214   7.380   1.533   1.056
 3758TIP3    H111215   7.372   1.627   1.039
 3758TIP3    H211216   7.292   1.499   1.043
 3759TIP3   OH211217   4.822   7.160   2.202
 3759TIP3    H111218   4.821   7.176   2.108
 3759TIP3    H211219   4.824   7.065   2.210
 3760TIP3   OH211220   3.711   5.724   6.161
 3760TIP3    H111221   3.781   5.757   6.218
 3760TIP3    H211222   3.682   5.643   6.203
 3761TIP3   OH211223   4.987   2.924   1.818
 3761TIP3    H111224   4.930   2.863   1.865
 3761TIP3    H211225   5.052   2.868   1.775
 3762TIP3   OH211226   0.764   2.231   1.029
 3762TIP3    H111227   0.790   2.321   1.052
 3762TIP3    H211228   0.675   2.222   1.064
 3763TIP3   OH211229   6.072   0.305   5.899
 3763TIP3    H111230   6.154   0.352   5.915
 3763TIP3    H211231   6.096   0.232   5.842
 3764TIP3   OH211232   7.136   6.553   2.567
 3764TIP3    H111233   7.175   6.638   2.546
 3764TIP3    H211234   7.044   6.563   2.542
 3765TIP3   OH211235   4.909   7.196   5.600
 3765TIP3    H111236   4.917   7.243   5.517
 3765TIP3    H211237   4.887   7.264   5.664
 3766TIP3   OH211238   6.470   0.350   0.352
 3766TIP3    H111239   6.472   0.445   0.365
 3766TIP3    H211240   6.485   0.313   0.439
 3767TIP3   OH211241   5.146   6.527   1.196
 3767TIP3    H111242   5.122   6.467   1.266
 3767TIP3    H211243   5.084   6.599   1.203
 3768TIP3   OH211244   5.678   0.962   3.843
 3768TIP3    H111245   5.731   1.032   3.805
 3768TIP3    H211246   5.735   0.922   3.908
 3769TIP3   OH211247   4.310   7.146   0.953
 3769TIP3    H111248   4.350   7.193   0.880
 3769TIP3    H211249   4.309   7.055   0.925
 3770TIP3   OH211250   6.351   7.913   5.012
 3770TIP3    H111251   6.369   7.917   5.106
 3770TIP3    H211252   6.261   7.944   5.003
 3771TIP3   OH211253   1.925   5.378   0.328
 3771TIP3    H111254   1.870   5.410   0.400
 3771TIP3    H211255   1.981   5.312   0.369
 3772TIP3   OH211256   5.716   0.198   1.137
 3772TIP3    H111257   5.772   0.214   1.062
 3772TIP3    H211258   5.750   0.117   1.176
 3773TIP3   OH211259   6.469   7.082   5.945
 3773TIP3    H111260   6.393   7.027   5.964
 3773TIP3    H211261   6.462   7.100   5.851
 3774TIP3   OH211262   7.687   6.874   1.537
 3774TIP3    H111263   7.760   6.837   1.487
 3774TIP3    H211264   7.697   6.836   1.625
 3775TIP3   OH211265   4.580   3.915   3.330
 3775TIP3    H111266   4.512   3.853   3.355
 3775TIP3    H211267   4.651   3.860   3.296
 3776TIP3   OH211268   2.298   0.633   4.138
 3776TIP3    H111269   2.382   0.602   4.105
 3776TIP3    H211270   2.306   0.624   4.233
 3777TIP3   OH211271   0.892   3.431   0.707
 3777TIP3    H111272   0.936   3.473   0.781
 3777TIP3    H211273   0.876   3.503   0.645
 3778TIP3   OH211274   1.040   6.316   4.121
 3778TIP3    H111275   1.058   6.222   4.123
 3778TIP3    H211276   1.053   6.342   4.030
 3779TIP3   OH211277   5.907   0.571   0.293
 3779TIP3    H111278   5.943   0.545   0.208
 3779TIP3    H211279   5.815   0.544   0.289
 3780TIP3   OH211280   3.629   6.583   4.048
 3780TIP3    H111281   3.706   6.527   4.035
 3780TIP3    H211282   3.639   6.617   4.137
 3781TIP3   OH211283   4.903   1.164   4.853
 3781TIP3    H111284   4.866   1.145   4.767
 3781TIP3    H211285   4.890   1.258   4.864
 3782TIP3   OH211286   0.276   3.233   0.329
 3782TIP3    H111287   0.291   3.171   0.400
 3782TIP3    H211288   0.241   3.311   0.373
 3783TIP3   OH211289   5.563   3.778   6.519
 3783TIP3    H111290   5.614   3.811   6.593
 3783TIP3    H211291   5.492   3.728   6.559
 3784TIP3   OH211292   2.395   4.123   6.424
 3784TIP3    H111293   2.319   4.090   6.376
 3784TIP3    H211294   2.449   4.167   6.358
 3785TIP3   OH211295   5.330   6.052   1.676
 3785TIP3    H111296   5.329   6.106   1.755
 3785TIP3    H211297   5.423   6.043   1.655
 3786TIP3   OH211298   0.430   5.190   4.120
 3786TIP3    H111299   0.392   5.248   4.053
 3786TIP3    H211300   0.488   5.132   4.071
 3787TIP3   OH211301   7.729   4.420   3.342
 3787TIP3    H111302   7.655   4.433   3.284
 3787TIP3    H211303   7.806   4.436   3.287
 3788TIP3   OH211304   2.344   6.508   3.832
 3788TIP3    H111305   2.338   6.588   3.779
 3788TIP3    H211306   2.434   6.477   3.817
 3789TIP3   OH211307   7.230   6.638   6.352
 3789TIP3    H111308   7.201   6.679   6.433
 3789TIP3    H211309   7.316   6.677   6.335
 3790TIP3   OH211310   5.620   7.505   0.127
 3790TIP3    H111311   5.598   7.564   0.056
 3790TIP3    H211312   5.659   7.429   0.084
 3791TIP3   OH211313   2.940   3.317   4.753
 3791TIP3    H111314   2.853   3.324   4.793
 3791TIP3    H211315   3.000   3.309   4.827
 3792TIP3   OH211316   4.731   4.072   5.776
 3792TIP3    H111317   4.707   4.130   5.848
 3792TIP3    H211318   4.825   4.082   5.768
 3793TIP3   OH211319   7.613   6.716   1.762
 3793TIP3    H111320   7.559   6.758   1.829
 3793TIP3    H211321   7.552   6.662   1.712
 3794TIP3   OH211322   4.444   5.180   0.439
 3794TIP3    H111323   4.439   5.163   0.345
 3794TIP3    H211324   4.382   5.118   0.478
 3795TIP3   OH211325   3.065   0.334   3.632
 3795TIP3    H111326   3.004   0.282   3.686
 3795TIP3    H211327   3.128   0.269   3.599
 3796TIP3   OH211328   5.182   7.412   0.505
 3796TIP3    H111329   5.261   7.436   0.458
 3796TIP3    H211330   5.199   7.323   0.537
 3797TIP3   OH211331   4.501   4.432   5.177
 3797TIP3    H111332   4.465   4.476   5.100
 3797TIP3    H211333   4.467   4.343   5.171
 3798TIP3   OH211334   1.459   4.708   6.620
 3798TIP3    H111335   1.554   4.715   6.609
 3798TIP3    H211336   1.424   4.779   6.566
 3799TIP3   OH211337   4.178   7.363   4.748
 3799TIP3    H111338   4.192   7.279   4.792
 3799TIP3    H211339   4.236   7.360   4.672
 3800TIP3   OH211340   1.656   5.163   2.811
 3800TIP3    H111341   1.654   5.068   2.801
 3800TIP3    H211342   1.732   5.191   2.759
 3801TIP3   OH211343   5.879   3.541   2.033
 3801TIP3    H111344   5.955   3.545   2.091
 3801TIP3    H211345   5.892   3.613   1.972
 3802TIP3   OH211346   3.879   0.534   1.208
 3802TIP3    H111347   3.857   0.585   1.130
 3802TIP3    H211348   3.932   0.594   1.261
 3803TIP3   OH211349   6.249   2.462   6.864
 3803TIP3    H111350   6.231   2.536   6.807
 3803TIP3    H211351   6.344   2.464   6.878
 3804TIP3   OH211352   5.870   1.919   0.654
 3804TIP3    H111353   5.880   2.004   0.611
 3804TIP3    H211354   5.798   1.931   0.716
 3805TIP3   OH211355   3.341   5.297   0.137
 3805TIP3    H111356   3.337   5.201   0.144
 3805TIP3    H211357   3.435   5.317   0.134
 3806TIP3   OH211358   5.448   2.934   3.552
 3806TIP3    H111359   5.516   2.895   3.497
 3806TIP3    H211360   5.371   2.878   3.537
 3807TIP3   OH211361   1.017   0.769   3.384
 3807TIP3    H111362   0.959   0.752   3.310
 3807TIP3    H211363   1.067   0.846   3.358
 3808TIP3   OH211364   3.913   1.794   5.757
 3808TIP3    H111365   4.001   1.800   5.793
 3808TIP3    H211366   3.919   1.727   5.689
 3809TIP3   OH211367   0.516   5.073   3.406
 3809TIP3    H111368   0.549   5.163   3.412
 3809TIP3    H211369   0.421   5.082   3.406
 3810TIP3   OH211370   1.446   0.574   0.313
 3810TIP3    H111371   1.431   0.585   0.407
 3810TIP3    H211372   1.500   0.650   0.289
 3811TIP3   OH211373   6.572   7.811   2.280
 3811TIP3    H111374   6.479   7.815   2.259
 3811TIP3    H211375   6.601   7.726   2.248
 3812TIP3   OH211376   3.100   6.141   1.803
 3812TIP3    H111377   3.123   6.116   1.714
 3812TIP3    H211378   3.076   6.234   1.796
 3813TIP3   OH211379   5.675   4.794   6.001
 3813TIP3    H111380   5.610   4.740   5.955
 3813TIP3    H211381   5.653   4.784   6.094
 3814TIP3   OH211382   5.627   3.356   5.764
 3814TIP3    H111383   5.558   3.387   5.705
 3814TIP3    H211384   5.688   3.310   5.707
 3815TIP3   OH211385   5.079   0.312   1.123
 3815TIP3    H111386   5.116   0.237   1.075
 3815TIP3    H211387   5.152   0.346   1.174
 3816TIP3   OH211388   0.920   2.072   2.849
 3816TIP3    H111389   0.915   2.160   2.811
 3816TIP3    H211390   0.938   2.015   2.775
 3817TIP3   OH211391   2.272   4.616   0.718
 3817TIP3    H111392   2.272   4.696   0.665
 3817TIP3    H211393   2.336   4.559   0.675
 3818TIP3   OH211394   2.645   6.967   2.013
 3818TIP3    H111395   2.596   7.044   1.985
 3818TIP3    H211396   2.637   6.906   1.939
 3819TIP3   OH211397   7.552   5.932   0.390
 3819TIP3    H111398   7.557   5.837   0.395
 3819TIP3    H211399   7.619   5.963   0.451
 3820TIP3   OH211400   6.657   1.247   6.574
 3820TIP3    H111401   6.625   1.265   6.662
 3820TIP3    H211402   6.587   1.277   6.516
 3821TIP3   OH211403   4.291   3.916   6.609
 3821TIP3    H111404   4.335   3.917   6.694
 3821TIP3    H211405   4.306   3.828   6.575
 3822TIP3   OH211406   3.597   5.603   0.382
 3822TIP3    H111407   3.545   5.537   0.429
 3822TIP3    H211408   3.652   5.642   0.450
 3823TIP3   OH211409   8.171   7.387   4.959
 3823TIP3    H111410   8.151   7.317   5.021
 3823TIP3    H211411   8.138   7.355   4.875
 3824TIP3   OH211412   7.369   5.239   4.557
 3824TIP3    H111413   7.295   5.179   4.566
 3824TIP3    H211414   7.341   5.304   4.493
 3825TIP3   OH211415   7.360   7.778   2.636
 3825TIP3    H111416   7.428   7.806   2.697
 3825TIP3    H211417   7.292   7.740   2.692
 3826TIP3   OH211418   8.175   6.114   0.948
 3826TIP3    H111419   8.245   6.072   0.998
 3826TIP3    H211420   8.221   6.180   0.896
 3827TIP3   OH211421   5.539   0.111   3.822
 3827TIP3    H111422   5.577   0.199   3.814
 3827TIP3    H211423   5.571   0.078   3.905
 3828TIP3   OH211424   5.675   7.288   1.093
 3828TIP3    H111425   5.662   7.287   0.998
 3828TIP3    H211426   5.700   7.198   1.115
 3829TIP3   OH211427   1.907   3.942   3.862
 3829TIP3    H111428   1.867   3.868   3.908
 3829TIP3    H211429   2.001   3.926   3.869
 3830TIP3   OH211430   1.256   2.862   3.365
 3830TIP3    H111431   1.250   2.806   3.442
 3830TIP3    H211432   1.346   2.894   3.364
 3831TIP3   OH211433   2.916   0.947   4.020
 3831TIP3    H111434   2.999   0.948   3.973
 3831TIP3    H211435   2.875   0.864   3.994
 3832TIP3   OH211436   3.362   4.458   4.640
 3832TIP3    H111437   3.394   4.548   4.627
 3832TIP3    H211438   3.404   4.407   4.571
 3833TIP3   OH211439   4.110   7.492   5.781
 3833TIP3    H111440   4.141   7.555   5.846
 3833TIP3    H211441   4.168   7.503   5.706
 3834TIP3   OH211442   4.883   2.252   2.340
 3834TIP3    H111443   4.852   2.163   2.349
 3834TIP3    H211444   4.820   2.305   2.389
 3835TIP3   OH211445   3.349   7.109   5.504
 3835TIP3    H111446   3.270   7.123   5.555
 3835TIP3    H211447   3.411   7.070   5.565
 3836TIP3   OH211448   1.814   1.736   3.685
 3836TIP3    H111449   1.785   1.758   3.774
 3836TIP3    H211450   1.910   1.737   3.690
 3837TIP3   OH211451   3.691   3.686   4.398
 3837TIP3    H111452   3.627   3.727   4.455
 3837TIP3    H211453   3.775   3.697   4.443
 3838TIP3   OH211454   1.469   4.864   4.083
 3838TIP3    H111455   1.504   4.842   3.997
 3838TIP3    H211456   1.532   4.926   4.119
 3839TIP3   OH211457   7.003   1.782   1.015
 3839TIP3    H111458   6.990   1.801   1.108
 3839TIP3    H211459   7.098   1.776   1.005
 3840TIP3   OH211460   3.295   3.047   1.267
 3840TIP3    H111461   3.300   3.140   1.289
 3840TIP3    H211462   3.363   3.034   1.201
 3841TIP3   OH211463   1.799   0.277   1.083
 3841TIP3    H111464   1.737   0.221   1.130
 3841TIP3    H211465   1.878   0.223   1.075
 3842TIP3   OH211466   6.401   0.402   3.178
 3842TIP3    H111467   6.328   0.434   3.232
 3842TIP3    H211468   6.359   0.344   3.114
 3843TIP3   OH211469   1.471   0.315   3.859
 3843TIP3    H111470   1.543   0.285   3.805
 3843TIP3    H211471   1.469   0.410   3.847
 3844TIP3   OH211472   0.841   1.410   6.551
 3844TIP3    H111473   0.887   1.328   6.537
 3844TIP3    H211474   0.753   1.396   6.516
 3845TIP3   OH211475   0.770   2.897   6.684
 3845TIP3    H111476   0.772   2.992   6.676
 3845TIP3    H211477   0.754   2.866   6.595
 3846TIP3   OH211478   5.739   6.911   4.676
 3846TIP3    H111479   5.819   6.924   4.728
 3846TIP3    H211480   5.766   6.933   4.586
 3847TIP3   OH211481   4.235   0.413   1.107
 3847TIP3    H111482   4.314   0.419   1.161
 3847TIP3    H211483   4.179   0.352   1.154
 3848TIP3   OH211484   1.028   6.294   1.351
 3848TIP3    H111485   1.038   6.258   1.263
 3848TIP3    H211486   1.112   6.336   1.369
 3849TIP3   OH211487   0.654   7.569   2.870
 3849TIP3    H111488   0.683   7.650   2.912
 3849TIP3    H211489   0.709   7.562   2.792
 3850TIP3   OH211490   2.158   2.376   0.644
 3850TIP3    H111491   2.193   2.319   0.712
 3850TIP3    H211492   2.083   2.330   0.609
 3851TIP3   OH211493   7.621   5.086   1.178
 3851TIP3    H111494   7.602   5.158   1.238
 3851TIP3    H211495   7.663   5.019   1.232
 3852TIP3   OH211496   2.581   1.470   3.882
 3852TIP3    H111497   2.629   1.417   3.946
 3852TIP3    H211498   2.588   1.421   3.800
 3853TIP3   OH211499   1.712   2.413   3.044
 3853TIP3    H111500   1.722   2.468   2.966
 3853TIP3    H211501   1.631   2.443   3.084
 3854TIP3   OH211502   2.353   2.498   4.991
 3854TIP3    H111503   2.271   2.483   5.039
 3854TIP3    H211504   2.382   2.585   5.019
 3855TIP3   OH211505   4.133   4.361   4.509
 3855TIP3    H111506   4.204   4.314   4.552
 3855TIP3    H211507   4.177   4.424   4.452
 3856TIP3   OH211508   6.217   6.311   4.489
 3856TIP3    H111509   6.168   6.294   4.570
 3856TIP3    H211510   6.254   6.399   4.502
 3857TIP3   OH211511   8.143   0.059   3.119
 3857TIP3    H111512   8.091   0.127   3.076
 3857TIP3    H211513   8.219   0.048   3.061
 3858TIP3   OH211514   4.403   5.153   3.042
 3858TIP3    H111515   4.393   5.061   3.064
 3858TIP3    H211516   4.496   5.164   3.025
 3859TIP3   OH211517   7.246   7.195   3.780
 3859TIP3    H111518   7.231   7.166   3.690
 3859TIP3    H211519   7.234   7.290   3.778
 3860TIP3   OH211520   2.354   7.535   3.389
 3860TIP3    H111521   2.275   7.542   3.336
 3860TIP3    H211522   2.327   7.486   3.466
 3861TIP3   OH211523   7.551   2.777   2.803
 3861TIP3    H111524   7.483   2.842   2.818
 3861TIP3    H211525   7.530   2.740   2.717
 3862TIP3   OH211526   0.079   3.483   1.121
 3862TIP3    H111527   0.056   3.464   1.212
 3862TIP3    H211528   0.060   3.403   1.073
 3863TIP3   OH211529   6.698   5.862   0.724
 3863TIP3    H111530   6.643   5.785   0.709
 3863TIP3    H211531   6.678   5.888   0.814
 3864TIP3   OH211532   3.049   6.405   4.016
 3864TIP3    H111533   3.031   6.499   4.019
 3864TIP3    H211534   2.968   6.367   3.981
 3865TIP3   OH211535   0.539   5.897   6.400
 3865TIP3    H111536   0.595   5.915   6.324
 3865TIP3    H211537   0.594   5.846   6.459
 3866TIP3   OH211538   3.640   3.304   3.449
 3866TIP3    H111539   3.580   3.324   3.521
 3866TIP3    H211540   3.624   3.373   3.384
 3867TIP3   OH211541   4.548   6.014   5.592
 3867TIP3    H111542   4.642   6.004   5.575
 3867TIP3    H211543   4.519   6.079   5.528
 3868TIP3   OH211544   7.700   1.980   6.026
 3868TIP3    H111545   7.705   1.959   5.933
 3868TIP3    H211546   7.679   2.074   6.028
 3869TIP3   OH211547   5.335   7.698   1.483
 3869TIP3    H111548   5.344   7.707   1.578
 3869TIP3    H211549   5.422   7.719   1.448
 3870TIP3   OH211550   7.233   1.092   3.656
 3870TIP3    H111551   7.296   1.163   3.667
 3870TIP3    H211552   7.158   1.117   3.711
 3871TIP3   OH211553   5.139   1.757   4.766
 3871TIP3    H111554   5.071   1.725   4.706
 3871TIP3    H211555   5.124   1.708   4.847
 3872TIP3   OH211556   0.254   7.783   4.283
 3872TIP3    H111557   0.301   7.816   4.207
 3872TIP3    H211558   0.162   7.806   4.266
 3873TIP3   OH211559   3.993   0.427   1.579
 3873TIP3    H111560   3.930   0.496   1.558
 3873TIP3    H211561   3.941   0.346   1.577
 3874TIP3   OH211562   4.897   6.200   0.875
 3874TIP3    H111563   4.850   6.181   0.956
 3874TIP3    H211564   4.828   6.201   0.808
 3875TIP3   OH211565   2.551   2.134   1.086
 3875TIP3    H111566   2.563   2.228   1.092
 3875TIP3    H211567   2.492   2.122   1.012
 3876TIP3   OH211568   5.477   7.203   4.558
 3876TIP3    H111569   5.531   7.147   4.613
 3876TIP3    H211570   5.468   7.155   4.476
 3877TIP3   OH211571   2.798   4.215   1.860
 3877TIP3    H111572   2.806   4.306   1.834
 3877TIP3    H211573   2.712   4.187   1.827
 3878TIP3   OH211574   5.766   6.948   5.135
 3878TIP3    H111575   5.720   6.901   5.066
 3878TIP3    H211576   5.714   6.932   5.214
 3879TIP3   OH211577   7.534   7.305   0.664
 3879TIP3    H111578   7.596   7.250   0.712
 3879TIP3    H211579   7.536   7.271   0.574
 3880TIP3   OH211580   3.259   0.088   5.271
 3880TIP3    H111581   3.200   0.093   5.196
 3880TIP3    H211582   3.311   0.009   5.256
 3881TIP3   OH211583   5.731   5.874   1.803
 3881TIP3    H111584   5.808   5.849   1.855
 3881TIP3    H211585   5.659   5.872   1.866
 3882TIP3   OH211586   6.307   2.070   4.287
 3882TIP3    H111587   6.320   2.150   4.236
 3882TIP3    H211588   6.293   2.002   4.221
 3883TIP3   OH211589   4.462   5.705   4.370
 3883TIP3    H111590   4.419   5.642   4.313
 3883TIP3    H211591   4.549   5.716   4.331
 3884TIP3   OH211592   0.027   2.604   3.045
 3884TIP3    H111593   0.054   2.523   3.002
 3884TIP3    H211594   0.100   2.665   3.029
 3885TIP3   OH211595   5.112   5.388   6.528
 3885TIP3    H111596   5.164   5.463   6.557
 3885TIP3    H211597   5.024   5.406   6.561
 3886TIP3   OH211598   1.404   3.948   6.503
 3886TIP3    H111599   1.420   4.031   6.547
 3886TIP3    H211600   1.345   3.970   6.431
 3887TIP3   OH211601   7.081   2.728   2.240
 3887TIP3    H111602   7.007   2.668   2.242
 3887TIP3    H211603   7.127   2.707   2.158
 3888TIP3   OH211604   7.737   0.123   5.359
 3888TIP3    H111605   7.740   0.187   5.288
 3888TIP3    H211606   7.728   0.175   5.439
 3889TIP3   OH211607   5.787   5.225   0.327
 3889TIP3    H111608   5.782   5.280   0.249
 3889TIP3    H211609   5.826   5.144   0.297
 3890TIP3   OH211610   5.434   5.244   1.970
 3890TIP3    H111611   5.429   5.330   2.011
 3890TIP3    H211612   5.512   5.249   1.914
 3891TIP3   OH211613   6.131   7.421   5.323
 3891TIP3    H111614   6.141   7.499   5.377
 3891TIP3    H211615   6.081   7.360   5.378
 3892TIP3   OH211616   1.777   1.220   6.063
 3892TIP3    H111617   1.698   1.257   6.101
 3892TIP3    H211618   1.844   1.286   6.078
 3893TIP3   OH211619   1.495   4.078   2.416
 3893TIP3    H111620   1.498   4.019   2.491
 3893TIP3    H211621   1.419   4.049   2.366
 3894TIP3   OH211622   4.630   0.579   0.954
 3894TIP3    H111623   4.673   0.654   0.914
 3894TIP3    H211624   4.658   0.580   1.045
 3895TIP3   OH211625   5.284   1.133   3.734
 3895TIP3    H111626   5.245   1.211   3.696
 3895TIP3    H211627   5.233   1.060   3.697
 3896TIP3   OH211628   4.158   6.642   2.336
 3896TIP3    H111629   4.169   6.721   2.282
 3896TIP3    H211630   4.205   6.662   2.417
 3897TIP3   OH211631   6.789   0.960   3.248
 3897TIP3    H111632   6.799   0.879   3.299
 3897TIP3    H211633   6.733   0.935   3.174
 3898TIP3   OH211634   5.002   1.431   4.851
 3898TIP3    H111635   4.982   1.512   4.897
 3898TIP3    H211636   5.082   1.399   4.892
 3899TIP3   OH211637   0.901   0.869   0.770
 3899TIP3    H111638   0.915   0.876   0.676
 3899TIP3    H211639   0.873   0.957   0.797
 3900TIP3   OH211640   7.096   7.451   5.510
 3900TIP3    H111641   7.109   7.455   5.605
 3900TIP3    H211642   7.081   7.542   5.484
 3901TIP3   OH211643   5.197   6.717   0.955
 3901TIP3    H111644   5.227   6.672   1.034
 3901TIP3    H211645   5.215   6.655   0.884
 3902TIP3   OH211646   7.833   0.628   4.613
 3902TIP3    H111647   7.780   0.551   4.632
 3902TIP3    H211648   7.863   0.614   4.523
 3903TIP3   OH211649   4.479   5.909   2.477
 3903TIP3    H111650   4.404   5.929   2.422
 3903TIP3    H211651   4.482   5.813   2.479
 3904TIP3   OH211652   3.173   4.884   5.748
 3904TIP3    H111653   3.252   4.883   5.802
 3904TIP3    H211654   3.126   4.963   5.775
 3905TIP3   OH211655   7.186   1.789   3.220
 3905TIP3    H111656   7.113   1.792   3.158
 3905TIP3    H211657   7.224   1.877   3.218
 3906TIP3   OH211658   5.941   3.385   3.683
 3906TIP3    H111659   5.899   3.306   3.719
 3906TIP3    H211660   6.032   3.359   3.667
 3907TIP3   OH211661   3.408   6.843   0.891
 3907TIP3    H111662   3.500   6.867   0.878
 3907TIP3    H211663   3.407   6.748   0.885
 3908TIP3   OH211664   2.682   1.995   0.296
 3908TIP3    H111665   2.704   2.078   0.338
 3908TIP3    H211666   2.587   1.988   0.305
 3909TIP3   OH211667   3.909   3.283   5.916
 3909TIP3    H111668   3.972   3.224   5.875
 3909TIP3    H211669   3.944   3.371   5.901
 3910TIP3   OH211670   5.979   4.526   0.100
 3910TIP3    H111671   6.069   4.553   0.083
 3910TIP3    H211672   5.984   4.431   0.112
 3911TIP3   OH211673   1.421   1.927   3.533
 3911TIP3    H111674   1.501   1.873   3.537
 3911TIP3    H211675   1.404   1.936   3.439
 3912TIP3   OH211676   4.249   2.579   5.877
 3912TIP3    H111677   4.313   2.649   5.887
 3912TIP3    H211678   4.294   2.500   5.908
 3913TIP3   OH211679   5.449   0.732   5.153
 3913TIP3    H111680   5.395   0.793   5.204
 3913TIP3    H211681   5.478   0.667   5.217
 3914TIP3   OH211682   0.091   6.838   4.189
 3914TIP3    H111683   0.058   6.899   4.256
 3914TIP3    H211684   0.183   6.826   4.212
 3915TIP3   OH211685   6.711   2.190   2.340
 3915TIP3    H111686   6.703   2.144   2.257
 3915TIP3    H211687   6.632   2.167   2.388
 3916TIP3   OH211688   2.654   0.624   2.169
 3916TIP3    H111689   2.595   0.555   2.137
 3916TIP3    H211690   2.741   0.594   2.144
 3917TIP3   OH211691   1.406   1.592   2.365
 3917TIP3    H111692   1.452   1.647   2.428
 3917TIP3    H211693   1.419   1.635   2.281
 3918TIP3   OH211694   7.606   4.626   1.195
 3918TIP3    H111695   7.513   4.649   1.190
 3918TIP3    H211696   7.633   4.654   1.282
 3919TIP3   OH211697   1.727   1.865   6.160
 3919TIP3    H111698   1.713   1.772   6.143
 3919TIP3    H211699   1.821   1.877   6.154
 3920TIP3   OH211700   4.359   6.628   5.193
 3920TIP3    H111701   4.356   6.716   5.231
 3920TIP3    H211702   4.298   6.577   5.246
 3921TIP3   OH211703   2.961   1.663   4.882
 3921TIP3    H111704   2.935   1.599   4.948
 3921TIP3    H211705   2.886   1.723   4.876
 3922TIP3   OH211706   6.371   2.283   0.308
 3922TIP3    H111707   6.370   2.221   0.381
 3922TIP3    H211708   6.438   2.248   0.248
 3923TIP3   OH211709   3.078   4.114   1.745
 3923TIP3    H111710   2.991   4.130   1.708
 3923TIP3    H211711   3.084   4.019   1.754
 3924TIP3   OH211712   5.184   3.597   5.335
 3924TIP3    H111713   5.098   3.576   5.370
 3924TIP3    H211714   5.238   3.522   5.359
 3925TIP3   OH211715   6.746   0.863   2.652
 3925TIP3    H111716   6.814   0.859   2.719
 3925TIP3    H211717   6.708   0.776   2.651
 3926TIP3   OH211718   3.106   6.205   5.488
 3926TIP3    H111719   3.071   6.176   5.573
 3926TIP3    H211720   3.045   6.273   5.459
 3927TIP3   OH211721   7.492   3.247   2.179
 3927TIP3    H111722   7.504   3.317   2.243
 3927TIP3    H211723   7.413   3.201   2.209
 3928TIP3   OH211724   4.652   7.049   4.489
 3928TIP3    H111725   4.678   7.020   4.401
 3928TIP3    H211726   4.707   7.125   4.506
 3929TIP3   OH211727   0.111   4.175   6.362
 3929TIP3    H111728   0.074   4.236   6.299
 3929TIP3    H211729   0.202   4.163   6.333
 3930TIP3   OH211730   4.463   7.348   3.929
 3930TIP3    H111731   4.519   7.426   3.936
 3930TIP3    H211732   4.376   7.382   3.910
 3931TIP3   OH211733   2.382   1.733   0.767
 3931TIP3    H111734   2.469   1.739   0.728
 3931TIP3    H211735   2.328   1.792   0.714
 3932TIP3   OH211736   8.312   5.948   5.093
 3932TIP3    H111737   8.393   5.902   5.116
 3932TIP3    H211738   8.329   6.039   5.118
 3933TIP3   OH211739   3.510   3.877   1.521
 3933TIP3    H111740   3.536   3.938   1.589
 3933TIP3    H211741   3.496   3.794   1.567
 3934TIP3   OH211742   4.409   4.339   4.332
 3934TIP3    H111743   4.455   4.413   4.372
 3934TIP3    H211744   4.360   4.378   4.259
 3935TIP3   OH211745   2.645   3.079   1.781
 3935TIP3    H111746   2.633   3.079   1.685
 3935TIP3    H211747   2.716   3.016   1.796
 3936TIP3   OH211748   0.925   7.063   2.555
 3936TIP3    H111749   0.874   7.038   2.632
 3936TIP3    H211750   1.003   7.008   2.558
 3937TIP3   OH211751   1.162   2.990   5.919
 3937TIP3    H111752   1.177   2.940   5.839
 3937TIP3    H211753   1.108   3.064   5.892
 3938TIP3   OH211754   0.033   2.838   4.299
 3938TIP3    H111755   0.125   2.852   4.277
 3938TIP3    H211756   0.034   2.770   4.365
 3939TIP3   OH211757   0.275   2.238   3.271
 3939TIP3    H111758   0.215   2.237   3.197
 3939TIP3    H211759   0.221   2.215   3.346
 3940TIP3   OH211760   7.180   3.296   3.830
 3940TIP3    H111761   7.134   3.362   3.778
 3940TIP3    H211762   7.145   3.212   3.799
 3941TIP3   OH211763   6.072   7.840   0.792
 3941TIP3    H111764   6.150   7.834   0.847
 3941TIP3    H211765   6.065   7.754   0.750
 3942TIP3   OH211766   3.708   1.358   5.632
 3942TIP3    H111767   3.704   1.269   5.596
 3942TIP3    H211768   3.676   1.414   5.561
 3943TIP3   OH211769   5.160   3.341   5.114
 3943TIP3    H111770   5.229   3.345   5.047
 3943TIP3    H211771   5.207   3.350   5.197
 3944TIP3   OH211772   7.616   1.886   5.406
 3944TIP3    H111773   7.555   1.939   5.457
 3944TIP3    H211774   7.605   1.917   5.316
 3945TIP3   OH211775   8.383   2.045   5.109
 3945TIP3    H111776   8.375   2.134   5.143
 3945TIP3    H211777   8.439   2.054   5.031
 3946TIP3   OH211778   8.315   0.802   0.345
 3946TIP3    H111779   8.307   0.833   0.255
 3946TIP3    H211780   8.232   0.825   0.386
 3947TIP3   OH211781   6.821   1.945   3.307
 3947TIP3    H111782   6.887   1.992   3.358
 3947TIP3    H211783   6.784   2.012   3.249
 3948TIP3   OH211784   4.899   4.209   0.287
 3948TIP3    H111785   4.866   4.151   0.218
 3948TIP3    H211786   4.935   4.284   0.239
 3949TIP3   OH211787   2.437   0.455   5.068
 3949TIP3    H111788   2.434   0.450   5.163
 3949TIP3    H211789   2.524   0.423   5.045
 3950TIP3   OH211790   4.941   0.992   3.119
 3950TIP3    H111791   5.021   1.021   3.161
 3950TIP3    H211792   4.950   1.021   3.028
 3951TIP3   OH211793   7.055   0.071   0.936
 3951TIP3    H111794   7.086   0.155   0.899
 3951TIP3    H211795   7.102   0.063   1.019
 3952TIP3   OH211796   0.436   5.784   1.637
 3952TIP3    H111797   0.444   5.828   1.552
 3952TIP3    H211798   0.366   5.720   1.624
 3953TIP3   OH211799   7.706   4.058   2.329
 3953TIP3    H111800   7.678   3.967   2.338
 3953TIP3    H211801   7.662   4.088   2.249
 3954TIP3   OH211802   1.426   5.469   4.699
 3954TIP3    H111803   1.498   5.454   4.636
 3954TIP3    H211804   1.376   5.387   4.697
 3955TIP3   OH211805   5.009   3.263   4.178
 3955TIP3    H111806   5.010   3.347   4.131
 3955TIP3    H211807   5.083   3.214   4.142
 3956TIP3   OH211808   4.915   7.253   4.827
 3956TIP3    H111809   4.944   7.186   4.888
 3956TIP3    H211810   4.926   7.336   4.874
 3957TIP3   OH211811   6.385   2.935   3.653
 3957TIP3    H111812   6.421   2.847   3.669
 3957TIP3    H211813   6.433   2.966   3.576
 3958TIP3   OH211814   2.408   2.771   5.040
 3958TIP3    H111815   2.428   2.789   5.132
 3958TIP3    H211816   2.318   2.802   5.029
 3959TIP3   OH211817   3.958   5.425   4.298
 3959TIP3    H111818   3.865   5.405   4.290
 3959TIP3    H211819   3.961   5.504   4.352
 3960TIP3   OH211820   1.293   1.406   3.163
 3960TIP3    H111821   1.325   1.316   3.166
 3960TIP3    H211822   1.220   1.404   3.101
 3961TIP3   OH211823   0.947   5.310   3.550
 3961TIP3    H111824   1.001   5.285   3.475
 3961TIP3    H211825   0.976   5.253   3.620
 3962TIP3   OH211826   2.631   4.062   2.904
 3962TIP3    H111827   2.673   4.118   2.970
 3962TIP3    H211828   2.544   4.100   2.893
 3963TIP3   OH211829   2.878   4.536   6.715
 3963TIP3    H111830   2.782   4.533   6.717
 3963TIP3    H211831   2.899   4.589   6.638
 3964TIP3   OH211832   1.750   2.252   1.023
 3964TIP3    H111833   1.764   2.316   1.093
 3964TIP3    H211834   1.698   2.299   0.958
 3965TIP3   OH211835   3.840   1.956   4.921
 3965TIP3    H111836   3.851   1.902   4.842
 3965TIP3    H211837   3.847   2.046   4.889
 3966TIP3   OH211838   4.145   6.365   2.312
 3966TIP3    H111839   4.182   6.317   2.386
 3966TIP3    H211840   4.147   6.457   2.339
 3967TIP3   OH211841   3.881   1.093   3.867
 3967TIP3    H111842   3.954   1.089   3.804
 3967TIP3    H211843   3.810   1.133   3.817
 3968TIP3   OH211844   3.022   6.199   6.200
 3968TIP3    H111845   3.043   6.238   6.116
 3968TIP3    H211846   2.956   6.132   6.181
 3969TIP3   OH211847   3.083   5.947   3.543
 3969TIP3    H111848   3.084   5.865   3.593
 3969TIP3    H211849   3.002   5.943   3.492
 3970TIP3   OH211850   6.218   1.948   5.948
 3970TIP3    H111851   6.260   1.998   6.018
 3970TIP3    H211852   6.290   1.902   5.904
 3971TIP3   OH211853   5.823   5.358   0.839
 3971TIP3    H111854   5.855   5.386   0.925
 3971TIP3    H211855   5.811   5.439   0.790
 3972TIP3   OH211856   7.088   2.920   0.539
 3972TIP3    H111857   7.020   2.895   0.602
 3972TIP3    H211858   7.085   2.851   0.473
 3973TIP3   OH211859   6.179   5.997   3.553
 3973TIP3    H111860   6.149   6.087   3.537
 3973TIP3    H211861   6.107   5.956   3.601
 3974TIP3   OH211862   4.161   3.421   0.511
 3974TIP3    H111863   4.174   3.515   0.521
 3974TIP3    H211864   4.230   3.393   0.451
 3975TIP3   OH211865   7.314   5.419   2.107
 3975TIP3    H111866   7.365   5.348   2.067
 3975TIP3    H211867   7.286   5.384   2.192
 3976TIP3   OH211868   7.546   3.135   4.536
 3976TIP3    H111869   7.486   3.115   4.608
 3976TIP3    H211870   7.496   3.114   4.457
 3977TIP3   OH211871   4.544   2.496   3.344
 3977TIP3    H111872   4.496   2.488   3.427
 3977TIP3    H211873   4.494   2.442   3.283
 3978TIP3   OH211874   6.231   2.663   5.049
 3978TIP3    H111875   6.229   2.637   4.957
 3978TIP3    H211876   6.224   2.758   5.047
 3979TIP3   OH211877   4.189   7.494   6.853
 3979TIP3    H111878   4.108   7.449   6.876
 3979TIP3    H211879   4.198   7.482   6.759
 3980TIP3   OH211880   7.002   4.249   1.413
 3980TIP3    H111881   6.931   4.313   1.414
 3980TIP3    H211882   6.970   4.176   1.466
 3981TIP3   OH211883   6.460   2.684   4.481
 3981TIP3    H111884   6.398   2.642   4.541
 3981TIP3    H211885   6.409   2.753   4.439
 3982TIP3   OH211886   2.757   7.439   2.407
 3982TIP3    H111887   2.722   7.427   2.496
 3982TIP3    H211888   2.692   7.397   2.351
 3983TIP3   OH211889   7.403   3.705   4.004
 3983TIP3    H111890   7.312   3.728   3.988
 3983TIP3    H211891   7.408   3.611   3.987
 3984TIP3   OH211892   6.406   0.869   0.073
 3984TIP3    H111893   6.341   0.826   0.017
 3984TIP3    H211894   6.480   0.808   0.075
 3985TIP3   OH211895   6.543   3.348   3.464
 3985TIP3    H111896   6.488   3.349   3.386
 3985TIP3    H211897   6.497   3.403   3.527
 3986TIP3   OH211898   0.391   2.633   1.496
 3986TIP3    H111899   0.345   2.584   1.564
 3986TIP3    H211900   0.359   2.723   1.505
 3987TIP3   OH211901   5.022   3.621   2.981
 3987TIP3    H111902   5.104   3.657   3.015
 3987TIP3    H211903   5.016   3.655   2.892
 3988TIP3   OH211904   0.094   2.505   3.311
 3988TIP3    H111905   0.148   2.582   3.326
 3988TIP3    H211906   0.061   2.516   3.222
 3989TIP3   OH211907   5.925   0.798   5.667
 3989TIP3    H111908   6.021   0.803   5.676
 3989TIP3    H211909   5.910   0.786   5.573
 3990TIP3   OH211910   5.166   1.443   6.104
 3990TIP3    H111911   5.183   1.350   6.090
 3990TIP3    H211912   5.071   1.449   6.114
 3991TIP3   OH211913   5.158   7.547   1.775
 3991TIP3    H111914   5.186   7.456   1.776
 3991TIP3    H211915   5.080   7.548   1.719
 3992TIP3   OH211916   7.052   3.199   0.535
 3992TIP3    H111917   7.072   3.106   0.550
 3992TIP3    H211918   6.957   3.203   0.534
 3993TIP3   OH211919   0.580   4.285   2.253
 3993TIP3    H111920   0.519   4.269   2.181
 3993TIP3    H211921   0.571   4.209   2.310
 3994TIP3   OH211922   6.743   2.558   3.764
 3994TIP3    H111923   6.658   2.561   3.808
 3994TIP3    H211924   6.789   2.484   3.805
 3995TIP3   OH211925   3.818   6.105   5.227
 3995TIP3    H111926   3.799   6.028   5.175
 3995TIP3    H211927   3.865   6.164   5.167
 3996TIP3   OH211928   1.277   0.022   5.717
 3996TIP3    H111929   1.242  -0.067   5.724
 3996TIP3    H211930   1.371   0.012   5.730
 3997TIP3   OH211931   1.696   4.735   1.927
 3997TIP3    H111932   1.706   4.644   1.898
 3997TIP3    H211933   1.752   4.742   2.004
 3998TIP3   OH211934   6.676   0.698   5.943
 3998TIP3    H111935   6.630   0.625   5.984
 3998TIP3    H211936   6.704   0.754   6.016
 3999TIP3   OH211937   7.042   2.088   6.400
 3999TIP3    H111938   7.129   2.121   6.376
 3999TIP3    H211939   7.057   1.996   6.421
 4000TIP3   OH211940   2.903   0.222   1.880
 4000TIP3    H111941   2.869   0.156   1.821
 4000TIP3    H211942   2.825   0.266   1.914
 4001TIP3   OH211943   6.031   5.669   2.944
 4001TIP3    H111944   6.006   5.650   2.853
 4001TIP3    H211945   6.054   5.762   2.944
 4002TIP3   OH211946   8.143   4.429   1.045
 4002TIP3    H111947   8.168   4.371   0.973
 4002TIP3    H211948   8.101   4.372   1.109
 4003TIP3   OH211949   5.849   4.868   6.723
 4003TIP3    H111950   5.844   4.908   6.636
 4003TIP3    H211951   5.814   4.935   6.781
 4004TIP3   OH211952   2.118   2.739   1.197
 4004TIP3    H111953   2.184   2.793   1.154
 4004TIP3    H211954   2.088   2.678   1.129
 4005TIP3   OH211955   4.721   1.458   0.466
 4005TIP3    H111956   4.650   1.401   0.495
 4005TIP3    H211957   4.801   1.408   0.485
 4006TIP3   OH211958   1.063   6.531   1.748
 4006TIP3    H111959   1.121   6.454   1.748
 4006TIP3    H211960   0.980   6.498   1.712
 4007TIP3   OH211961   5.669   6.719   5.929
 4007TIP3    H111962   5.675   6.623   5.924
 4007TIP3    H211963   5.678   6.738   6.022
 4008TIP3   OH211964   0.149   4.541   3.600
 4008TIP3    H111965   0.222   4.480   3.591
 4008TIP3    H211966   0.079   4.491   3.641
 4009TIP3   OH211967   5.552   5.586   0.724
 4009TIP3    H111968   5.646   5.603   0.718
 4009TIP3    H211969   5.532   5.540   0.642
 4010TIP3   OH211970   3.544   2.454   0.968
 4010TIP3    H111971   3.517   2.449   1.060
 4010TIP3    H211972   3.572   2.544   0.957
 4011TIP3   OH211973   4.281   1.371   1.198
 4011TIP3    H111974   4.244   1.290   1.163
 4011TIP3    H211975   4.328   1.410   1.124
 4012TIP3   OH211976   6.008   3.738   1.136
 4012TIP3    H111977   5.937   3.723   1.073
 4012TIP3    H211978   5.966   3.731   1.221
 4013TIP3   OH211979   3.410   2.025   1.023
 4013TIP3    H111980   3.400   1.966   0.948
 4013TIP3    H211981   3.475   2.089   0.994
 4014TIP3   OH211982   3.445   1.640   3.802
 4014TIP3    H111983   3.467   1.721   3.756
 4014TIP3    H211984   3.353   1.625   3.781
 4015TIP3   OH211985   3.050   5.161   5.255
 4015TIP3    H111986   3.003   5.091   5.300
 4015TIP3    H211987   3.127   5.119   5.218
 4016TIP3   OH211988   7.460   3.752   3.228
 4016TIP3    H111989   7.493   3.772   3.140
 4016TIP3    H211990   7.441   3.658   3.225
 4017TIP3   OH211991   0.413   5.516   5.449
 4017TIP3    H111992   0.449   5.601   5.473
 4017TIP3    H211993   0.441   5.458   5.520
 4018TIP3   OH211994   1.919   1.917   5.313
 4018TIP3    H111995   1.980   1.932   5.240
 4018TIP3    H211996   1.873   2.000   5.323
 4019TIP3   OH211997   4.345   2.557   0.373
 4019TIP3    H111998   4.364   2.522   0.286
 4019TIP3    H211999   4.283   2.495   0.411
 4020TIP3   OH212000   0.558   0.079   3.279
 4020TIP3    H112001   0.481   0.022   3.274
 4020TIP3    H212002   0.632   0.021   3.263
 4021TIP3   OH212003   0.364   2.050   3.864
 4021TIP3    H112004   0.436   2.113   3.858
 4021TIP3    H212005   0.286   2.101   3.845
 4022TIP3   OH212006   4.498   0.329   6.698
 4022TIP3    H112007   4.569   0.298   6.642
 4022TIP3    H212008   4.457   0.250   6.732
 4023TIP3   OH212009   2.002   1.748   2.365
 4023TIP3    H112010   2.042   1.666   2.394
 4023TIP3    H212011   2.077   1.801   2.335
 4024TIP3   OH212012   7.712   1.208   3.571
 4024TIP3    H112013   7.714   1.278   3.637
 4024TIP3    H212014   7.726   1.254   3.488
 4025TIP3   OH212015   6.642   2.015   4.653
 4025TIP3    H112016   6.717   1.972   4.612
 4025TIP3    H212017   6.678   2.098   4.686
 4026TIP3   OH212018   2.562   1.156   1.554
 4026TIP3    H112019   2.471   1.185   1.550
 4026TIP3    H212020   2.563   1.093   1.626
 4027TIP3   OH212021   5.705   0.334   3.778
 4027TIP3    H112022   5.702   0.417   3.827
 4027TIP3    H212023   5.781   0.288   3.814
 4028TIP3   OH212024   2.590   1.990   3.630
 4028TIP3    H112025   2.657   1.948   3.575
 4028TIP3    H212026   2.507   1.957   3.596
 4029TIP3   OH212027   4.658   5.840   2.782
 4029TIP3    H112028   4.748   5.823   2.753
 4029TIP3    H212029   4.626   5.905   2.719
 4030TIP3   OH212030   0.871   1.040   1.105
 4030TIP3    H112031   0.786   1.031   1.149
 4030TIP3    H212032   0.852   1.092   1.027
 4031TIP3   OH212033   2.301   1.243   1.470
 4031TIP3    H112034   2.217   1.226   1.512
 4031TIP3    H212035   2.290   1.328   1.427
 4032TIP3   OH212036   6.087   4.368   4.921
 4032TIP3    H112037   6.178   4.367   4.892
 4032TIP3    H212038   6.091   4.402   5.010
 4033TIP3   OH212039   7.828   4.747   6.496
 4033TIP3    H112040   7.751   4.727   6.444
 4033TIP3    H212041   7.901   4.707   6.449
 4034TIP3   OH212042   4.880   7.754   4.804
 4034TIP3    H112043   4.882   7.812   4.880
 4034TIP3    H212044   4.954   7.783   4.749
 4035TIP3   OH212045   0.658   6.908   4.874
 4035TIP3    H112046   0.723   6.952   4.820
 4035TIP3    H212047   0.699   6.826   4.900
 4036TIP3   OH212048   5.998   4.254   5.459
 4036TIP3    H112049   5.927   4.308   5.425
 4036TIP3    H212050   6.048   4.228   5.382
 4037TIP3   OH212051   0.165   4.608   5.352
 4037TIP3    H112052   0.147   4.635   5.442
 4037TIP3    H212053   0.086   4.630   5.304
 4038TIP3   OH212054   8.397   6.341   2.942
 4038TIP3    H112055   8.374   6.292   2.863
 4038TIP3    H212056   8.316   6.384   2.968
 4039TIP3   OH212057   0.445   1.455   3.413
 4039TIP3    H112058   0.401   1.485   3.493
 4039TIP3    H212059   0.519   1.404   3.444
 4040TIP3   OH212060   2.159   3.863   0.610
 4040TIP3    H112061   2.142   3.913   0.690
 4040TIP3    H212062   2.129   3.775   0.629
 4041TIP3   OH212063   2.506   7.879   1.465
 4041TIP3    H112064   2.439   7.852   1.402
 4041TIP3    H212065   2.574   7.919   1.411
 4042TIP3   OH212066   5.505   6.765   0.889
 4042TIP3    H112067   5.591   6.724   0.889
 4042TIP3    H212068   5.459   6.725   0.815
 4043TIP3   OH212069   2.946   7.515   2.848
 4043TIP3    H112070   2.861   7.471   2.849
 4043TIP3    H212071   2.935   7.588   2.787
 4044TIP3   OH212072   1.722   2.991   4.672
 4044TIP3    H112073   1.713   2.992   4.767
 4044TIP3    H212074   1.716   2.898   4.648
 4045TIP3   OH212075   3.205   7.778   1.447
 4045TIP3    H112076   3.244   7.695   1.419
 4045TIP3    H212077   3.273   7.818   1.502
 4046TIP3   OH212078   6.569   7.425   5.776
 4046TIP3    H112079   6.575   7.510   5.819
 4046TIP3    H212080   6.613   7.436   5.692
 4047TIP3   OH212081   6.499   1.175   1.781
 4047TIP3    H112082   6.564   1.220   1.726
 4047TIP3    H212083   6.455   1.245   1.828
 4048TIP3   OH212084   1.244   5.071   5.003
 4048TIP3    H112085   1.246   5.165   5.022
 4048TIP3    H212086   1.192   5.033   5.073
 4049TIP3   OH212087   2.390   2.797   3.071
 4049TIP3    H112088   2.463   2.748   3.032
 4049TIP3    H212089   2.318   2.785   3.009
 4050TIP3   OH212090   0.116   1.890   6.201
 4050TIP3    H112091   0.114   1.976   6.160
 4050TIP3    H212092   0.208   1.868   6.209
 4051TIP3   OH212093   0.754   1.636   1.401
 4051TIP3    H112094   0.713   1.698   1.341
 4051TIP3    H212095   0.707   1.554   1.388
 4052TIP3   OH212096   8.199   7.256   3.406
 4052TIP3    H112097   8.262   7.193   3.369
 4052TIP3    H212098   8.209   7.334   3.352
 4053TIP3   OH212099   8.006   5.278   3.203
 4053TIP3    H112100   7.960   5.254   3.284
 4053TIP3    H212101   7.988   5.371   3.191
 4054TIP3   OH212102   4.042   2.898   0.054
 4054TIP3    H112103   4.070   2.989   0.061
 4054TIP3    H212104   3.960   2.894   0.102
 4055TIP3   OH212105   5.274   1.597   3.709
 4055TIP3    H112106   5.217   1.597   3.633
 4055TIP3    H212107   5.285   1.689   3.732
 4056TIP3   OH212108   1.806   0.611   6.251
 4056TIP3    H112109   1.718   0.592   6.283
 4056TIP3    H212110   1.821   0.547   6.181
 4057TIP3   OH212111   8.340   3.855   4.536
 4057TIP3    H112112   8.297   3.787   4.588
 4057TIP3    H212113   8.397   3.807   4.476
 4058TIP3   OH212114   8.120   1.876   5.385
 4058TIP3    H112115   8.049   1.936   5.409
 4058TIP3    H212116   8.085   1.825   5.312
 4059TIP3   OH212117   3.401   4.691   3.950
 4059TIP3    H112118   3.478   4.731   3.990
 4059TIP3    H212119   3.403   4.600   3.979
 4060TIP3   OH212120   1.853   5.339   4.967
 4060TIP3    H112121   1.791   5.331   4.895
 4060TIP3    H212122   1.878   5.432   4.968
 4061TIP3   OH212123   0.610   1.990   1.450
 4061TIP3    H112124   0.526   2.005   1.494
 4061TIP3    H212125   0.652   2.076   1.449
 4062TIP3   OH212126   2.300   2.632   5.368
 4062TIP3    H112127   2.237   2.570   5.331
 4062TIP3    H212128   2.307   2.608   5.460
 4063TIP3   OH212129   7.211   2.388   1.053
 4063TIP3    H112130   7.226   2.406   0.960
 4063TIP3    H212131   7.139   2.446   1.077
 4064TIP3   OH212132   6.106   0.252   2.839
 4064TIP3    H112133   6.126   0.343   2.816
 4064TIP3    H212134   6.012   0.244   2.822
 4065TIP3   OH212135   4.712   1.977   3.622
 4065TIP3    H112136   4.617   1.978   3.634
 4065TIP3    H212137   4.742   2.054   3.671
 4066TIP3   OH212138   8.180   1.876   2.718
 4066TIP3    H112139   8.144   1.954   2.760
 4066TIP3    H212140   8.230   1.833   2.787
 4067TIP3   OH212141   6.259   1.907   4.058
 4067TIP3    H112142   6.321   1.845   4.019
 4067TIP3    H212143   6.204   1.936   3.985
 4068TIP3   OH212144   2.943   0.299   0.702
 4068TIP3    H112145   2.907   0.388   0.693
 4068TIP3    H212146   2.918   0.255   0.621
 4069TIP3   OH212147   1.383   1.936   0.912
 4069TIP3    H112148   1.299   1.968   0.880
 4069TIP3    H212149   1.388   1.845   0.882
 4070TIP3   OH212150   4.793   5.523   1.024
 4070TIP3    H112151   4.774   5.432   1.003
 4070TIP3    H212152   4.801   5.566   0.939
 4071TIP3   OH212153   5.118   7.820   4.699
 4071TIP3    H112154   5.136   7.913   4.680
 4071TIP3    H212155   5.157   7.773   4.626
 4072TIP3   OH212156   3.628   1.369   4.044
 4072TIP3    H112157   3.631   1.338   3.954
 4072TIP3    H212158   3.569   1.308   4.089
 4073TIP3   OH212159   1.687   1.523   2.300
 4073TIP3    H112160   1.596   1.513   2.328
 4073TIP3    H212161   1.716   1.603   2.344
 4074TIP3   OH212162   0.232   0.696   0.520
 4074TIP3    H112163   0.201   0.614   0.480
 4074TIP3    H212164   0.232   0.759   0.448
 4075TIP3   OH212165   2.594   2.202   6.721
 4075TIP3    H112166   2.576   2.270   6.786
 4075TIP3    H212167   2.646   2.246   6.654
 4076TIP3   OH212168   4.916   6.280   1.635
 4076TIP3    H112169   4.828   6.246   1.618
 4076TIP3    H212170   4.929   6.266   1.729
 4077TIP3   OH212171   2.237   5.139   0.750
 4077TIP3    H112172   2.211   5.139   0.659
 4077TIP3    H212173   2.317   5.087   0.752
 4078TIP3   OH212174   1.463   4.021   4.919
 4078TIP3    H112175   1.470   4.001   5.012
 4078TIP3    H212176   1.385   4.075   4.912
 4079TIP3   OH212177   1.923   4.431   5.453
 4079TIP3    H112178   1.896   4.501   5.512
 4079TIP3    H212179   1.997   4.467   5.405
 4080TIP3   OH212180   6.249   1.627   5.775
 4080TIP3    H112181   6.308   1.560   5.740
 4080TIP3    H212182   6.217   1.590   5.857
 4081TIP3   OH212183   6.374   7.799   3.236
 4081TIP3    H112184   6.405   7.788   3.146
 4081TIP3    H212185   6.347   7.711   3.262
 4082TIP3   OH212186   7.716   3.513   6.090
 4082TIP3    H112187   7.811   3.523   6.083
 4082TIP3    H212188   7.703   3.463   6.170
 4083TIP3   OH212189   7.486   7.459   4.230
 4083TIP3    H112190   7.465   7.466   4.137
 4083TIP3    H212191   7.574   7.422   4.232
 4084TIP3   OH212192   7.000   6.273   2.909
 4084TIP3    H112193   7.015   6.298   3.000
 4084TIP3    H212194   7.082   6.298   2.865
 4085TIP3   OH212195   6.723   4.440   0.275
 4085TIP3    H112196   6.804   4.393   0.296
 4085TIP3    H212197   6.753   4.526   0.243
 4086TIP3   OH212198   1.439   7.662   2.910
 4086TIP3    H112199   1.359   7.618   2.938
 4086TIP3    H212200   1.454   7.730   2.977
 4087TIP3   OH212201   3.422   2.834   5.475
 4087TIP3    H112202   3.426   2.742   5.448
 4087TIP3    H212203   3.334   2.862   5.451
 4088TIP3   OH212204   3.904   5.185   3.167
 4088TIP3    H112205   3.917   5.090   3.158
 4088TIP3    H212206   3.984   5.223   3.130
 4089TIP3   OH212207   6.049   3.823   2.476
 4089TIP3    H112208   6.110   3.895   2.459
 4089TIP3    H212209   6.087   3.777   2.551
 4090TIP3   OH212210   8.212   3.301   6.103
 4090TIP3    H112211   8.259   3.334   6.027
 4090TIP3    H212212   8.153   3.235   6.067
 4091TIP3   OH212213   8.089   5.307   4.407
 4091TIP3    H112214   8.060   5.330   4.319
 4091TIP3    H212215   8.067   5.214   4.417
 4092TIP3   OH212216   7.488   6.743   6.361
 4092TIP3    H112217   7.573   6.711   6.391
 4092TIP3    H212218   7.474   6.824   6.411
 4093TIP3   OH212219   7.925   3.258   6.198
 4093TIP3    H112220   7.853   3.304   6.241
 4093TIP3    H212221   7.990   3.326   6.180
 4094TIP3   OH212222   3.324   5.397   4.376
 4094TIP3    H112223   3.290   5.462   4.438
 4094TIP3    H212224   3.250   5.340   4.358
 4095TIP3   OH212225   2.297   4.783   4.702
 4095TIP3    H112226   2.283   4.866   4.749
 4095TIP3    H212227   2.304   4.717   4.771
 4096TIP3   OH212228   4.006   2.242   6.477
 4096TIP3    H112229   3.980   2.249   6.385
 4096TIP3    H212230   3.935   2.285   6.525
 4097TIP3   OH212231  -0.057   5.925   4.233
 4097TIP3    H112232  -0.090   5.986   4.299
 4097TIP3    H212233   0.032   5.904   4.261
 4098TIP3   OH212234   6.645   0.886   0.923
 4098TIP3    H112235   6.670   0.848   1.008
 4098TIP3    H212236   6.623   0.977   0.944
 4099TIP3   OH212237   3.790   7.797   6.327
 4099TIP3    H112238   3.849   7.866   6.359
 4099TIP3    H212239   3.848   7.722   6.311
 4100TIP3   OH212240   2.394   5.864   4.477
 4100TIP3    H112241   2.307   5.876   4.440
 4100TIP3    H212242   2.437   5.803   4.418
 4101TIP3   OH212243   5.951   4.727   5.518
 4101TIP3    H112244   6.024   4.761   5.466
 4101TIP3    H212245   5.991   4.705   5.602
 4102TIP3   OH212246   1.143   4.394   6.078
 4102TIP3    H112247   1.067   4.387   6.020
 4102TIP3    H212248   1.136   4.318   6.136
 4103TIP3   OH212249   7.347   0.626   4.509
 4103TIP3    H112250   7.315   0.584   4.430
 4103TIP3    H212251   7.442   0.615   4.505
 4104TIP3   OH212252   0.911   7.784   5.127
 4104TIP3    H112253   0.958   7.756   5.048
 4104TIP3    H212254   0.980   7.816   5.185
 4105TIP3   OH212255   1.515   6.491   0.621
 4105TIP3    H112256   1.505   6.476   0.527
 4105TIP3    H212257   1.598   6.450   0.643
 4106TIP3   OH212258   8.108   4.574   6.740
 4106TIP3    H112259   8.079   4.650   6.690
 4106TIP3    H212260   8.117   4.607   6.830
 4107TIP3   OH212261   1.277   0.421   6.597
 4107TIP3    H112262   1.257   0.510   6.627
 4107TIP3    H212263   1.241   0.417   6.508
 4108TIP3   OH212264   7.549   1.988   4.264
 4108TIP3    H112265   7.474   1.978   4.206
 4108TIP3    H212266   7.625   1.973   4.207
 4109TIP3   OH212267   3.336   7.664   2.541
 4109TIP3    H112268   3.318   7.654   2.635
 4109TIP3    H212269   3.342   7.758   2.528
 4110TIP3   OH212270   3.891   2.060   1.992
 4110TIP3    H112271   3.858   2.019   1.913
 4110TIP3    H212272   3.881   2.154   1.977
 4111TIP3   OH212273   4.019   4.951   4.822
 4111TIP3    H112274   4.029   4.867   4.866
 4111TIP3    H212275   4.096   4.958   4.766
 4112TIP3   OH212276   1.406   5.279   1.059
 4112TIP3    H112277   1.333   5.267   1.120
 4112TIP3    H212278   1.480   5.238   1.103
 4113TIP3   OH212279   3.067   5.197   4.871
 4113TIP3    H112280   3.020   5.125   4.912
 4113TIP3    H212281   3.047   5.273   4.925
 4114TIP3   OH212282   4.182   4.390   5.133
 4114TIP3    H112283   4.236   4.434   5.067
 4114TIP3    H212284   4.129   4.327   5.084
 4115TIP3   OH212285   6.173   4.210   6.149
 4115TIP3    H112286   6.091   4.225   6.103
 4115TIP3    H212287   6.193   4.118   6.133
 4116TIP3   OH212288   3.796   4.600   4.418
 4116TIP3    H112289   3.851   4.628   4.491
 4116TIP3    H212290   3.849   4.535   4.372
 4117TIP3   OH212291   0.407   3.467   1.680
 4117TIP3    H112292   0.351   3.528   1.631
 4117TIP3    H212293   0.345   3.407   1.721
 4118TIP3   OH212294   1.246   5.863   5.015
 4118TIP3    H112295   1.295   5.945   5.025
 4118TIP3    H212296   1.167   5.889   4.967
 4119TIP3   OH212297   0.861   1.233   4.344
 4119TIP3    H112298   0.827   1.154   4.385
 4119TIP3    H212299   0.945   1.248   4.388
 4120TIP3   OH212300   2.357   7.690   0.108
 4120TIP3    H112301   2.293   7.731   0.167
 4120TIP3    H212302   2.431   7.750   0.107
 4121TIP3   OH212303   7.198   0.536   0.414
 4121TIP3    H112304   7.236   0.590   0.346
 4121TIP3    H212305   7.230   0.448   0.395
 4122TIP3   OH212306   3.969   7.282   3.376
 4122TIP3    H112307   3.959   7.369   3.336
 4122TIP3    H212308   4.060   7.258   3.355
 4123TIP3   OH212309   0.542   3.417   3.389
 4123TIP3    H112310   0.538   3.502   3.344
 4123TIP3    H212311   0.495   3.357   3.331
 4124TIP3   OH212312   1.371   1.146   3.132
 4124TIP3    H112313   1.356   1.102   3.215
 4124TIP3    H212314   1.337   1.086   3.066
 4125TIP3   OH212315   4.468   2.157   0.254
 4125TIP3    H112316   4.437   2.074   0.217
 4125TIP3    H212317   4.430   2.160   0.341
 4126TIP3   OH212318   8.312   0.337   0.596
 4126TIP3    H112319   8.301   0.424   0.556
 4126TIP3    H212320   8.343   0.356   0.685
 4127TIP3   OH212321   1.518   1.298   6.459
 4127TIP3    H112322   1.445   1.331   6.407
 4127TIP3    H212323   1.534   1.210   6.424
 4128TIP3   OH212324   3.052   7.700   3.342
 4128TIP3    H112325   3.040   7.705   3.436
 4128TIP3    H212326   3.147   7.696   3.330
 4129TIP3   OH212327   4.990   5.120   1.193
 4129TIP3    H112328   4.927   5.096   1.125
 4129TIP3    H212329   4.974   5.056   1.263
 4130TIP3   OH212330   3.000   0.462   6.099
 4130TIP3    H112331   2.999   0.369   6.079
 4130TIP3    H212332   2.967   0.504   6.019
 4131TIP3   OH212333   7.092   3.117   6.590
 4131TIP3    H112334   7.044   3.123   6.507
 4131TIP3    H212335   7.070   3.030   6.623
 4132TIP3   OH212336   8.066   0.393   6.458
 4132TIP3    H112337   7.988   0.434   6.495
 4132TIP3    H212338   8.118   0.466   6.424
 4133TIP3   OH212339   7.664   3.836   6.563
 4133TIP3    H112340   7.690   3.757   6.516
 4133TIP3    H212341   7.592   3.807   6.620
 4134TIP3   OH212342   2.203   2.847   5.565
 4134TIP3    H112343   2.146   2.866   5.640
 4134TIP3    H212344   2.198   2.752   5.555
 4135TIP3   OH212345   2.250   2.754   1.692
 4135TIP3    H112346   2.179   2.818   1.685
 4135TIP3    H212347   2.205   2.671   1.714
 4136TIP3   OH212348   2.363   3.122   4.614
 4136TIP3    H112349   2.361   3.207   4.658
 4136TIP3    H212350   2.292   3.072   4.654
 4137TIP3   OH212351   7.683   4.237   5.098
 4137TIP3    H112352   7.611   4.274   5.148
 4137TIP3    H212353   7.641   4.188   5.027
 4138TIP3   OH212354   8.304   3.006   0.672
 4138TIP3    H112355   8.350   3.023   0.590
 4138TIP3    H212356   8.351   2.932   0.711
 4139TIP3   OH212357   8.035   1.625   2.957
 4139TIP3    H112358   8.104   1.566   2.989
 4139TIP3    H212359   8.030   1.694   3.024
 4140TIP3   OH212360   3.334   0.422   6.471
 4140TIP3    H112361   3.290   0.486   6.527
 4140TIP3    H212362   3.427   0.439   6.484
 4141TIP3   OH212363   6.152   6.297   6.803
 4141TIP3    H112364   6.228   6.309   6.859
 4141TIP3    H212365   6.104   6.380   6.810
 4142TIP3   OH212366   2.283   0.370   1.802
 4142TIP3    H112367   2.351   0.306   1.821
 4142TIP3    H212368   2.324   0.455   1.823
 4143TIP3   OH212369   1.906   3.789   5.954
 4143TIP3    H112370   1.935   3.869   5.911
 4143TIP3    H212371   1.813   3.782   5.930
 4144TIP3   OH212372   7.053   2.185   0.827
 4144TIP3    H112373   7.070   2.273   0.861
 4144TIP3    H212374   7.014   2.199   0.741
 4145TIP3   OH212375   3.482   4.723   3.186
 4145TIP3    H112376   3.558   4.772   3.218
 4145TIP3    H212377   3.493   4.721   3.091
 4146TIP3   OH212378   5.304   5.936   5.545
 4146TIP3    H112379   5.286   6.015   5.494
 4146TIP3    H212380   5.268   5.864   5.491
 4147TIP3   OH212381   0.120   4.266   2.209
 4147TIP3    H112382   0.161   4.300   2.288
 4147TIP3    H212383   0.127   4.171   2.218
 4148TIP3   OH212384   5.731   4.866   4.157
 4148TIP3    H112385   5.645   4.882   4.197
 4148TIP3    H212386   5.770   4.954   4.150
 4149TIP3   OH212387   3.429   0.408   1.022
 4149TIP3    H112388   3.374   0.450   0.956
 4149TIP3    H212389   3.517   0.442   1.006
 4150TIP3   OH212390   1.983   0.639   0.480
 4150TIP3    H112391   1.920   0.600   0.541
 4150TIP3    H212392   2.059   0.660   0.534
 4151TIP3   OH212393   8.290   5.994   6.254
 4151TIP3    H112394   8.296   6.039   6.170
 4151TIP3    H212395   8.344   5.916   6.245
 4152TIP3   OH212396   8.195   1.704   4.696
 4152TIP3    H112397   8.113   1.697   4.744
 4152TIP3    H212398   8.259   1.659   4.752
 4153TIP3   OH212399   0.772   2.780   0.842
 4153TIP3    H112400   0.812   2.698   0.812
 4153TIP3    H212401   0.839   2.846   0.825
 4154TIP3   OH212402   3.686   6.110   4.342
 4154TIP3    H112403   3.693   6.165   4.421
 4154TIP3    H212404   3.592   6.098   4.330
 4155TIP3   OH212405   1.663   4.255   3.188
 4155TIP3    H112406   1.615   4.338   3.190
 4155TIP3    H212407   1.638   4.214   3.105
 4156TIP3   OH212408   6.927   3.248   2.143
 4156TIP3    H112409   6.914   3.341   2.125
 4156TIP3    H212410   6.839   3.213   2.153
 4157TIP3   OH212411   0.145   5.965   5.559
 4157TIP3    H112412   0.196   5.886   5.542
 4157TIP3    H212413   0.145   6.012   5.475
 4158TIP3   OH212414   5.568   1.497   5.393
 4158TIP3    H112415   5.644   1.443   5.416
 4158TIP3    H212416   5.589   1.584   5.425
 4159TIP3   OH212417   3.202   6.391   2.955
 4159TIP3    H112418   3.215   6.382   2.860
 4159TIP3    H212419   3.290   6.391   2.991
 4160TIP3   OH212420   0.543   7.665   1.898
 4160TIP3    H112421   0.457   7.705   1.887
 4160TIP3    H212422   0.576   7.701   1.980
 4161TIP3   OH212423   2.083   7.814   5.703
 4161TIP3    H112424   2.120   7.857   5.780
 4161TIP3    H212425   2.082   7.721   5.725
 4162TIP3   OH212426   4.631   1.117   2.274
 4162TIP3    H112427   4.673   1.105   2.359
 4162TIP3    H212428   4.594   1.205   2.278
 4163TIP3   OH212429   0.542   7.333   2.980
 4163TIP3    H112430   0.588   7.415   2.962
 4163TIP3    H212431   0.516   7.340   3.072
 4164TIP3   OH212432   1.635   1.208   0.225
 4164TIP3    H112433   1.725   1.213   0.193
 4164TIP3    H212434   1.587   1.163   0.156
 4165TIP3   OH212435   3.565   3.790   6.157
 4165TIP3    H112436   3.566   3.884   6.175
 4165TIP3    H212437   3.603   3.783   6.069
 4166TIP3   OH212438   7.810   0.843   0.571
 4166TIP3    H112439   7.821   0.766   0.627
 4166TIP3    H212440   7.742   0.895   0.615
 4167TIP3   OH212441   3.597   5.538   6.314
 4167TIP3    H112442   3.560   5.452   6.296
 4167TIP3    H212443   3.607   5.540   6.410
 4168TIP3   OH212444   7.538   4.242   0.059
 4168TIP3    H112445   7.517   4.231  -0.034
 4168TIP3    H212446   7.616   4.189   0.072
 4169TIP3   OH212447   1.482   3.740   2.382
 4169TIP3    H112448   1.433   3.682   2.441
 4169TIP3    H212449   1.414   3.787   2.333
 4170TIP3   OH212450   2.922   3.912   5.816
 4170TIP3    H112451   2.917   3.961   5.898
 4170TIP3    H212452   2.940   3.822   5.843
 4171TIP3   OH212453   0.157   6.673   5.505
 4171TIP3    H112454   0.227   6.615   5.476
 4171TIP3    H212455   0.079   6.640   5.461
 4172TIP3   OH212456   1.665   4.591   5.256
 4172TIP3    H112457   1.616   4.607   5.175
 4172TIP3    H212458   1.751   4.564   5.227
 4173TIP3   OH212459   7.141   2.705   6.625
 4173TIP3    H112460   7.110   2.638   6.564
 4173TIP3    H212461   7.197   2.656   6.687
 4174TIP3   OH212462   1.357   6.441   5.151
 4174TIP3    H112463   1.307   6.437   5.069
 4174TIP3    H212464   1.410   6.520   5.142
 4175TIP3   OH212465   4.414   3.005   0.630
 4175TIP3    H112466   4.440   2.969   0.545
 4175TIP3    H212467   4.496   3.033   0.670
 4176TIP3   OH212468   4.511   2.497   1.142
 4176TIP3    H112469   4.590   2.514   1.092
 4176TIP3    H212470   4.439   2.513   1.080
 4177TIP3   OH212471   3.810   3.700   5.765
 4177TIP3    H112472   3.831   3.653   5.684
 4177TIP3    H212473   3.791   3.630   5.828
 4178TIP3   OH212474   1.701   7.722   1.547
 4178TIP3    H112475   1.768   7.682   1.491
 4178TIP3    H212476   1.681   7.654   1.612
 4179TIP3   OH212477   4.288   0.140   2.542
 4179TIP3    H112478   4.230   0.082   2.592
 4179TIP3    H212479   4.376   0.105   2.558
 4180TIP3   OH212480   0.258   0.638   2.312
 4180TIP3    H112481   0.250   0.552   2.271
 4180TIP3    H212482   0.324   0.683   2.260
 4181TIP3   OH212483   6.585   7.303   0.135
 4181TIP3    H112484   6.638   7.226   0.115
 4181TIP3    H212485   6.562   7.294   0.227
 4182TIP3   OH212486   0.134   3.540   4.656
 4182TIP3    H112487   0.141   3.447   4.632
 4182TIP3    H212488   0.080   3.541   4.735
 4183TIP3   OH212489   0.382   2.323   0.799
 4183TIP3    H112490   0.453   2.386   0.811
 4183TIP3    H212491   0.405   2.276   0.719
 4184TIP3   OH212492   1.274   3.505   3.437
 4184TIP3    H112493   1.357   3.512   3.484
 4184TIP3    H212494   1.230   3.431   3.479
 4185TIP3   OH212495   6.914   5.150   1.007
 4185TIP3    H112496   6.964   5.191   1.079
 4185TIP3    H212497   6.823   5.151   1.037
 4186TIP3   OH212498   1.722   1.713   1.000
 4186TIP3    H112499   1.736   1.805   1.022
 4186TIP3    H212500   1.660   1.682   1.066
 4187TIP3   OH212501   4.639   2.366   5.755
 4187TIP3    H112502   4.706   2.367   5.824
 4187TIP3    H212503   4.689   2.363   5.674
 4188TIP3   OH212504   0.065   4.786   1.994
 4188TIP3    H112505  -0.002   4.759   2.056
 4188TIP3    H212506   0.146   4.748   2.028
 4189TIP3   OH212507   8.002   7.004   5.799
 4189TIP3    H112508   8.055   7.081   5.818
 4189TIP3    H212509   7.962   6.980   5.883
 4190TIP3   OH212510   6.286   4.357   1.899
 4190TIP3    H112511   6.254   4.274   1.862
 4190TIP3    H212512   6.248   4.360   1.987
 4191TIP3   OH212513   2.328   7.369   0.073
 4191TIP3    H112514   2.302   7.373  -0.019
 4191TIP3    H212515   2.351   7.460   0.095
 4192TIP3   OH212516   1.957   2.520   1.388
 4192TIP3    H112517   1.992   2.609   1.388
 4192TIP3    H212518   1.952   2.495   1.480
 4193TIP3   OH212519   1.035   5.190   4.017
 4193TIP3    H112520   1.129   5.193   4.034
 4193TIP3    H212521   1.000   5.267   4.062
 4194TIP3   OH212522   6.779   2.620   0.477
 4194TIP3    H112523   6.831   2.540   0.488
 4194TIP3    H212524   6.801   2.651   0.389
 4195TIP3   OH212525   7.920   6.033   4.723
 4195TIP3    H112526   7.909   5.998   4.812
 4195TIP3    H212527   7.883   6.121   4.727
 4196TIP3   OH212528   1.541   3.914   2.630
 4196TIP3    H112529   1.543   3.823   2.599
 4196TIP3    H212530   1.508   3.908   2.720
 4197TIP3   OH212531   8.170   3.354   2.193
 4197TIP3    H112532   8.116   3.418   2.147
 4197TIP3    H212533   8.255   3.398   2.204
 4198TIP3   OH212534   3.760   2.971   3.076
 4198TIP3    H112535   3.769   2.888   3.029
 4198TIP3    H212536   3.738   2.946   3.165
 4199TIP3   OH212537   6.631   2.248   4.824
 4199TIP3    H112538   6.595   2.274   4.739
 4199TIP3    H212539   6.703   2.309   4.839
 4200TIP3   OH212540   3.889   7.373   2.703
 4200TIP3    H112541   3.896   7.295   2.648
 4200TIP3    H212542   3.937   7.350   2.783
 4201TIP3   OH212543   8.148   3.703   4.170
 4201TIP3    H112544   8.071   3.678   4.120
 4201TIP3    H212545   8.175   3.623   4.215
 4202TIP3   OH212546   7.308   6.738   0.792
 4202TIP3    H112547   7.308   6.682   0.714
 4202TIP3    H212548   7.240   6.701   0.848
 4203TIP3   OH212549   3.648   4.801   2.685
 4203TIP3    H112550   3.609   4.714   2.689
 4203TIP3    H212551   3.741   4.787   2.702
 4204TIP3   OH212552   2.863   3.688   2.228
 4204TIP3    H112553   2.821   3.664   2.311
 4204TIP3    H212554   2.876   3.605   2.183
 4205TIP3   OH212555   7.333   0.302   2.269
 4205TIP3    H112556   7.269   0.334   2.207
 4205TIP3    H212557   7.290   0.229   2.313
 4206TIP3   OH212558   1.853   6.139   4.699
 4206TIP3    H112559   1.906   6.219   4.692
 4206TIP3    H212560   1.916   6.068   4.686
 4207TIP3   OH212561   5.070   4.836   2.292
 4207TIP3    H112562   5.082   4.914   2.347
 4207TIP3    H212563   5.045   4.767   2.354
 4208TIP3   OH212564   1.803   4.759   3.515
 4208TIP3    H112565   1.818   4.721   3.602
 4208TIP3    H212566   1.773   4.685   3.462
 4209TIP3   OH212567   1.891   5.675   1.250
 4209TIP3    H112568   1.969   5.729   1.238
 4209TIP3    H212569   1.869   5.686   1.343
 4210TIP3   OH212570   6.948   3.923   6.183
 4210TIP3    H112571   6.972   4.011   6.153
 4210TIP3    H212572   7.031   3.884   6.213
 4211TIP3   OH212573   6.478   7.683   4.629
 4211TIP3    H112574   6.520   7.746   4.569
 4211TIP3    H212575   6.430   7.624   4.571
 4212TIP3   OH212576   4.944   3.126   2.328
 4212TIP3    H112577   4.940   3.220   2.310
 4212TIP3    H212578   5.036   3.104   2.314
 4213TIP3   OH212579   1.365   1.187   5.244
 4213TIP3    H112580   1.292   1.125   5.234
 4213TIP3    H212581   1.426   1.142   5.303
 4214TIP3   OH212582   1.299   2.262   4.253
 4214TIP3    H112583   1.252   2.296   4.177
 4214TIP3    H212584   1.230   2.230   4.311
 4215TIP3   OH212585   0.662   6.862   6.506
 4215TIP3    H112586   0.608   6.861   6.585
 4215TIP3    H212587   0.599   6.854   6.435
 4216TIP3   OH212588   8.005   1.782   3.179
 4216TIP3    H112589   8.014   1.869   3.218
 4216TIP3    H212590   7.983   1.725   3.252
 4217TIP3   OH212591   4.143   6.858   0.004
 4217TIP3    H112592   4.215   6.911  -0.029
 4217TIP3    H212593   4.067   6.884  -0.048
 4218TIP3   OH212594   5.042   3.953   3.548
 4218TIP3    H112595   5.088   3.873   3.573
 4218TIP3    H212596   4.953   3.924   3.526
 4219TIP3   OH212597   6.672   1.640   5.965
 4219TIP3    H112598   6.645   1.653   5.875
 4219TIP3    H212599   6.689   1.729   5.998
 4220TIP3   OH212600   6.284   6.197   5.382
 4220TIP3    H112601   6.242   6.198   5.295
 4220TIP3    H212602   6.334   6.278   5.385
 4221TIP3   OH212603   7.774   2.582   0.824
 4221TIP3    H112604   7.710   2.510   0.826
 4221TIP3    H212605   7.847   2.550   0.877
 4222TIP3   OH212606   7.763   2.025   6.905
 4222TIP3    H112607   7.813   1.982   6.837
 4222TIP3    H212608   7.683   2.054   6.861
 4223TIP3   OH212609   4.130   5.298   5.000
 4223TIP3    H112610   4.075   5.255   4.934
 4223TIP3    H212611   4.219   5.274   4.975
 4224TIP3   OH212612   3.078   7.424   3.067
 4224TIP3    H112613   3.116   7.510   3.084
 4224TIP3    H212614   3.026   7.436   2.988
 4225TIP3   OH212615   1.746   4.803   4.539
 4225TIP3    H112616   1.701   4.739   4.594
 4225TIP3    H212617   1.743   4.766   4.451
 4226TIP3   OH212618   5.554   5.721   2.791
 4226TIP3    H112619   5.490   5.728   2.862
 4226TIP3    H212620   5.606   5.644   2.813
 4227TIP3   OH212621   1.830   5.973   1.338
 4227TIP3    H112622   1.814   5.927   1.256
 4227TIP3    H212623   1.893   6.041   1.316
 4228TIP3   OH212624   8.191   7.896   0.206
 4228TIP3    H112625   8.250   7.847   0.263
 4228TIP3    H212626   8.103   7.862   0.227
 4229TIP3   OH212627   7.013   2.807   3.413
 4229TIP3    H112628   7.040   2.722   3.379
 4229TIP3    H212629   7.046   2.871   3.350
 4230TIP3   OH212630   1.920   6.999   3.759
 4230TIP3    H112631   1.935   6.945   3.681
 4230TIP3    H212632   1.869   6.944   3.817
 4231TIP3   OH212633   3.177   4.501   5.645
 4231TIP3    H112634   3.206   4.485   5.555
 4231TIP3    H212635   3.094   4.547   5.636
 4232TIP3   OH212636   6.182   4.810   6.383
 4232TIP3    H112637   6.126   4.746   6.427
 4232TIP3    H212638   6.134   4.834   6.304
 4233TIP3   OH212639   6.812   2.512   1.631
 4233TIP3    H112640   6.816   2.488   1.538
 4233TIP3    H212641   6.724   2.548   1.642
 4234TIP3   OH212642   0.807   5.155   0.373
 4234TIP3    H112643   0.771   5.147   0.285
 4234TIP3    H212644   0.731   5.144   0.431
 4235TIP3   OH212645   6.889   1.804   4.071
 4235TIP3    H112646   6.808   1.814   4.120
 4235TIP3    H212647   6.938   1.737   4.119
 4236TIP3   OH212648   4.692   1.011   0.295
 4236TIP3    H112649   4.696   1.021   0.200
 4236TIP3    H212650   4.694   0.916   0.308
 4237TIP3   OH212651   7.356   2.912   1.014
 4237TIP3    H112652   7.404   2.973   0.958
 4237TIP3    H212653   7.294   2.968   1.062
 4238TIP3   OH212654   6.822   1.341   3.038
 4238TIP3    H112655   6.904   1.331   2.988
 4238TIP3    H212656   6.753   1.342   2.972
 4239TIP3   OH212657   3.995   2.240   5.025
 4239TIP3    H112658   3.919   2.295   5.006
 4239TIP3    H212659   4.070   2.298   5.012
 4240TIP3   OH212660   5.741   4.593   6.491
 4240TIP3    H112661   5.692   4.635   6.421
 4240TIP3    H212662   5.724   4.499   6.479
 4241TIP3   OH212663   2.479   7.359   3.969
 4241TIP3    H112664   2.565   7.347   4.011
 4241TIP3    H212665   2.416   7.331   4.035
 4242TIP3   OH212666   6.643   7.126   2.703
 4242TIP3    H112667   6.685   7.177   2.634
 4242TIP3    H212668   6.566   7.088   2.660
 4243TIP3   OH212669   1.932   0.762   5.187
 4243TIP3    H112670   1.952   0.672   5.211
 4243TIP3    H212671   1.992   0.815   5.239
 4244TIP3   OH212672   7.066   1.916   0.726
 4244TIP3    H112673   6.972   1.905   0.709
 4244TIP3    H212674   7.084   2.007   0.701
 4245TIP3   OH212675   5.754   0.952   5.845
 4245TIP3    H112676   5.801   0.889   5.791
 4245TIP3    H212677   5.786   1.037   5.816
 4246TIP3   OH212678   1.644   2.439   4.946
 4246TIP3    H112679   1.673   2.495   5.019
 4246TIP3    H212680   1.663   2.350   4.975
 4247TIP3   OH212681   4.806   5.299   6.140
 4247TIP3    H112682   4.892   5.285   6.101
 4247TIP3    H212683   4.758   5.351   6.075
 4248TIP3   OH212684   1.324   5.532   6.587
 4248TIP3    H112685   1.344   5.591   6.660
 4248TIP3    H212686   1.231   5.547   6.568
 4249TIP3   OH212687   1.149   1.840   2.063
 4249TIP3    H112688   1.214   1.823   1.994
 4249TIP3    H212689   1.113   1.925   2.041
 4250TIP3   OH212690   6.687   7.002   4.223
 4250TIP3    H112691   6.592   6.993   4.211
 4250TIP3    H212692   6.697   7.053   4.303
 4251TIP3   OH212693   4.279   0.945   5.884
 4251TIP3    H112694   4.288   0.977   5.794
 4251TIP3    H212695   4.357   0.977   5.929
 4252TIP3   OH212696   5.786   5.158   1.245
 4252TIP3    H112697   5.696   5.189   1.253
 4252TIP3    H212698   5.777   5.072   1.203
 4253TIP3   OH212699   3.758   4.174   4.288
 4253TIP3    H112700   3.816   4.117   4.237
 4253TIP3    H212701   3.716   4.115   4.351
 4254TIP3   OH212702   8.242   5.280   2.938
 4254TIP3    H112703   8.162   5.302   2.985
 4254TIP3    H212704   8.305   5.258   3.006
 4255TIP3   OH212705   0.190   5.733   6.720
 4255TIP3    H112706   0.116   5.772   6.674
 4255TIP3    H212707   0.168   5.640   6.728
 4256TIP3   OH212708   2.672   5.385   4.666
 4256TIP3    H112709   2.756   5.416   4.699
 4256TIP3    H212710   2.636   5.333   4.737
 4257TIP3   OH212711   3.538   5.258   0.843
 4257TIP3    H112712   3.621   5.227   0.805
 4257TIP3    H212713   3.547   5.243   0.937
 4258TIP3   OH212714   2.647   6.406   1.926
 4258TIP3    H112715   2.741   6.402   1.944
 4258TIP3    H212716   2.617   6.315   1.936
 4259TIP3   OH212717   2.042   1.159   4.983
 4259TIP3    H112718   2.078   1.246   4.966
 4259TIP3    H212719   2.097   1.099   4.934
 4260TIP3   OH212720   0.035   1.979   0.302
 4260TIP3    H112721   0.007   2.050   0.360
 4260TIP3    H212722   0.016   2.012   0.214
 4261TIP3   OH212723   1.629   1.681   2.526
 4261TIP3    H112724   1.631   1.775   2.548
 4261TIP3    H212725   1.621   1.638   2.611
 4262TIP3   OH212726   6.947   5.759   0.191
 4262TIP3    H112727   6.870   5.704   0.181
 4262TIP3    H212728   6.966   5.792   0.103
 4263TIP3   OH212729   3.834   6.389   0.987
 4263TIP3    H112730   3.871   6.336   0.917
 4263TIP3    H212731   3.739   6.382   0.976
 4264TIP3   OH212732   2.617   4.435   1.268
 4264TIP3    H112733   2.706   4.423   1.233
 4264TIP3    H212734   2.575   4.350   1.257
 4265TIP3   OH212735   8.124   3.630   0.039
 4265TIP3    H112736   8.157   3.694   0.102
 4265TIP3    H212737   8.191   3.628  -0.030
 4266TIP3   OH212738   0.405   2.682   0.175
 4266TIP3    H112739   0.433   2.609   0.230
 4266TIP3    H212740   0.316   2.658   0.149
 4267TIP3   OH212741   4.754   4.019   6.598
 4267TIP3    H112742   4.730   4.033   6.506
 4267TIP3    H212743   4.701   4.081   6.647
 4268TIP3   OH212744   6.747   5.606   0.102
 4268TIP3    H112745   6.664   5.655   0.100
 4268TIP3    H212746   6.743   5.549   0.026
 4269TIP3   OH212747   6.199   6.316   2.599
 4269TIP3    H112748   6.284   6.289   2.565
 4269TIP3    H212749   6.190   6.407   2.570
 4270TIP3   OH212750   6.307   0.201   3.677
 4270TIP3    H112751   6.379   0.258   3.650
 4270TIP3    H212752   6.317   0.122   3.624
 4271TIP3   OH212753   2.642   1.205   5.519
 4271TIP3    H112754   2.599   1.201   5.433
 4271TIP3    H212755   2.570   1.200   5.582
 4272TIP3   OH212756   2.901   3.273   5.064
 4272TIP3    H112757   2.877   3.365   5.064
 4272TIP3    H212758   2.993   3.272   5.091
 4273TIP3   OH212759   0.158   7.446   4.192
 4273TIP3    H112760   0.245   7.464   4.226
 4273TIP3    H212761   0.112   7.531   4.197
 4274TIP3   OH212762   0.487   5.859   1.267
 4274TIP3    H112763   0.582   5.865   1.268
 4274TIP3    H212764   0.469   5.766   1.249
 4275TIP3   OH212765   8.345   7.402   6.743
 4275TIP3    H112766   8.332   7.439   6.655
 4275TIP3    H212767   8.361   7.478   6.799
 4276TIP3   OH212768   6.293   6.403   1.845
 4276TIP3    H112769   6.316   6.478   1.900
 4276TIP3    H212770   6.333   6.422   1.760
 4277TIP3   OH212771   3.356   5.267   2.995
 4277TIP3    H112772   3.326   5.185   3.035
 4277TIP3    H212773   3.370   5.325   3.069
 4278TIP3   OH212774   3.635   0.418   6.850
 4278TIP3    H112775   3.625   0.405   6.755
 4278TIP3    H212776   3.729   0.417   6.864
 4279TIP3   OH212777   7.823   5.643   1.956
 4279TIP3    H112778   7.814   5.711   1.889
 4279TIP3    H212779   7.884   5.680   2.020
 4280TIP3   OH212780   2.831   0.236   2.342
 4280TIP3    H112781   2.922   0.261   2.330
 4280TIP3    H212782   2.813   0.176   2.270
 4281TIP3   OH212783   8.363   7.058   6.230
 4281TIP3    H112784   8.322   6.987   6.181
 4281TIP3    H212785   8.391   7.121   6.163
 4282TIP3   OH212786   5.151   6.665   3.986
 4282TIP3    H112787   5.228   6.663   3.929
 4282TIP3    H212788   5.150   6.753   4.023
 4283TIP3   OH212789   3.327   6.990   3.158
 4283TIP3    H112790   3.244   6.992   3.206
 4283TIP3    H212791   3.321   7.063   3.096
 4284TIP3   OH212792   6.601   7.805   5.461
 4284TIP3    H112793   6.665   7.754   5.510
 4284TIP3    H212794   6.593   7.887   5.510
 4285TIP3   OH212795   4.911   7.888   3.803
 4285TIP3    H112796   4.934   7.807   3.850
 4285TIP3    H212797   4.840   7.926   3.855
 4286TIP3   OH212798   7.418   0.123   2.523
 4286TIP3    H112799   7.483   0.142   2.455
 4286TIP3    H212800   7.341   0.093   2.474
 4287TIP3   OH212801   3.501   5.710   4.495
 4287TIP3    H112802   3.517   5.803   4.511
 4287TIP3    H212803   3.585   5.676   4.466
 4288TIP3   OH212804   5.632   5.069   4.679
 4288TIP3    H112805   5.619   5.163   4.665
 4288TIP3    H212806   5.601   5.054   4.768
 4289TIP3   OH212807   3.956   0.746   5.070
 4289TIP3    H112808   3.944   0.668   5.016
 4289TIP3    H212809   3.905   0.728   5.150
 4290TIP3   OH212810   3.259   7.390   5.492
 4290TIP3    H112811   3.172   7.363   5.523
 4290TIP3    H212812   3.310   7.310   5.492
 4291TIP3   OH212813   2.807   4.875   6.723
 4291TIP3    H112814   2.786   4.876   6.629
 4291TIP3    H212815   2.902   4.881   6.726
 4292TIP3   OH212816   0.893   4.948   5.030
 4292TIP3    H112817   0.947   4.931   5.107
 4292TIP3    H212818   0.826   5.009   5.061
 4293TIP3   OH212819   5.269   2.795   0.541
 4293TIP3    H112820   5.356   2.757   0.536
 4293TIP3    H212821   5.282   2.879   0.584
 4294TIP3   OH212822   4.494   4.814   4.208
 4294TIP3    H112823   4.468   4.894   4.255
 4294TIP3    H212824   4.587   4.826   4.191
 4295TIP3   OH212825   4.105   5.556   3.676
 4295TIP3    H112826   4.037   5.590   3.734
 4295TIP3    H212827   4.139   5.634   3.631
 4296TIP3   OH212828   0.529   3.597   5.280
 4296TIP3    H112829   0.494   3.589   5.369
 4296TIP3    H212830   0.512   3.688   5.256
 4297TIP3   OH212831   2.077   2.263   4.873
 4297TIP3    H112832   2.015   2.232   4.940
 4297TIP3    H212833   2.122   2.184   4.845
 4298TIP3   OH212834   7.003   6.942   0.237
 4298TIP3    H112835   7.051   7.007   0.289
 4298TIP3    H212836   6.958   6.993   0.170
 4299TIP3   OH212837   4.913   1.356   3.403
 4299TIP3    H112838   4.849   1.416   3.443
 4299TIP3    H212839   4.862   1.279   3.378
 4300TIP3   OH212840   1.319   7.305   3.598
 4300TIP3    H112841   1.235   7.307   3.552
 4300TIP3    H212842   1.363   7.386   3.571
 4301TIP3   OH212843   0.919   3.095   1.076
 4301TIP3    H112844   0.993   3.140   1.035
 4301TIP3    H212845   0.928   3.115   1.169
 4302TIP3   OH212846   7.476   7.210   1.142
 4302TIP3    H112847   7.459   7.296   1.103
 4302TIP3    H212848   7.571   7.199   1.135
 4303TIP3   OH212849   7.965   1.798   2.076
 4303TIP3    H112850   7.932   1.746   2.149
 4303TIP3    H212851   8.056   1.818   2.100
 4304TIP3   OH212852   4.656   4.173   4.255
 4304TIP3    H112853   4.665   4.101   4.317
 4304TIP3    H212854   4.616   4.244   4.305
 4305TIP3   OH212855   5.596   3.277   1.727
 4305TIP3    H112856   5.689   3.254   1.728
 4305TIP3    H212857   5.570   3.272   1.819
 4306TIP3   OH212858   3.354   4.163   2.101
 4306TIP3    H112859   3.348   4.249   2.143
 4306TIP3    H212860   3.435   4.166   2.050
 4307TIP3   OH212861   2.679   2.929   0.910
 4307TIP3    H112862   2.613   2.905   0.845
 4307TIP3    H212863   2.674   2.861   0.976
 4308TIP3   OH212864   7.430   0.031   0.881
 4308TIP3    H112865   7.352   0.087   0.886
 4308TIP3    H212866   7.476   0.061   0.802
 4309TIP3   OH212867   4.714   4.112   1.693
 4309TIP3    H112868   4.671   4.028   1.712
 4309TIP3    H212869   4.711   4.120   1.598
 4310TIP3   OH212870   7.385   6.466   3.299
 4310TIP3    H112871   7.333   6.400   3.253
 4310TIP3    H212872   7.408   6.425   3.382
 4311TIP3   OH212873   5.840   5.416   3.915
 4311TIP3    H112874   5.796   5.483   3.968
 4311TIP3    H212875   5.791   5.413   3.833
 4312TIP3   OH212876   4.792   0.925   0.043
 4312TIP3    H112877   4.850   0.920   0.120
 4312TIP3    H212878   4.852   0.940  -0.030
 4313TIP3   OH212879   7.397   5.495   3.520
 4313TIP3    H112880   7.447   5.572   3.493
 4313TIP3    H212881   7.369   5.515   3.609
 4314TIP3   OH212882   4.446   5.549   6.118
 4314TIP3    H112883   4.360   5.536   6.076
 4314TIP3    H212884   4.466   5.464   6.156
 4315TIP3   OH212885   5.316   3.824   2.011
 4315TIP3    H112886   5.330   3.730   2.007
 4315TIP3    H212887   5.227   3.834   2.045
 4316TIP3   OH212888   2.950   2.473   1.762
 4316TIP3    H112889   2.990   2.560   1.769
 4316TIP3    H212890   2.868   2.489   1.714
 4317TIP3   OH212891   2.559   1.139   4.053
 4317TIP3    H112892   2.614   1.217   4.065
 4317TIP3    H212893   2.480   1.157   4.104
 4318TIP3   OH212894   4.041   5.626   4.488
 4318TIP3    H112895   4.076   5.698   4.436
 4318TIP3    H212896   4.116   5.593   4.538
 4319TIP3   OH212897   4.693   6.651   1.439
 4319TIP3    H112898   4.751   6.639   1.514
 4319TIP3    H212899   4.696   6.567   1.393
 4320TIP3   OH212900   8.170   1.131   0.344
 4320TIP3    H112901   8.218   1.104   0.265
 4320TIP3    H212902   8.089   1.168   0.310
 4321TIP3   OH212903   8.184   7.325   5.535
 4321TIP3    H112904   8.151   7.384   5.603
 4321TIP3    H212905   8.249   7.270   5.581
 4322TIP3   OH212906   0.283   0.324   6.629
 4322TIP3    H112907   0.233   0.338   6.710
 4322TIP3    H212908   0.226   0.356   6.560
 4323TIP3   OH212909   4.632   4.133   1.441
 4323TIP3    H112910   4.608   4.212   1.393
 4323TIP3    H212911   4.595   4.061   1.389
 4324TIP3   OH212912   6.646   6.477   2.454
 4324TIP3    H112913   6.576   6.426   2.413
 4324TIP3    H212914   6.720   6.469   2.395
 4325TIP3   OH212915   4.116   1.583   3.635
 4325TIP3    H112916   4.064   1.658   3.606
 4325TIP3    H212917   4.075   1.556   3.718
 4326TIP3   OH212918   4.703   5.345   2.793
 4326TIP3    H112919   4.705   5.327   2.888
 4326TIP3    H212920   4.702   5.258   2.753
 4327TIP3   OH212921   2.331   5.706   3.091
 4327TIP3    H112922   2.407   5.694   3.147
 4327TIP3    H212923   2.333   5.632   3.031
 4328TIP3   OH212924   0.563   7.087   0.085
 4328TIP3    H112925   0.517   7.064   0.165
 4328TIP3    H212926   0.654   7.097   0.112
 4329TIP3   OH212927   0.402   6.786   1.276
 4329TIP3    H112928   0.486   6.752   1.308
 4329TIP3    H212929   0.386   6.737   1.196
 4330TIP3   OH212930   3.453   3.748   2.397
 4330TIP3    H112931   3.372   3.704   2.422
 4330TIP3    H212932   3.456   3.827   2.451
 4331TIP3   OH212933   0.873   3.905   5.757
 4331TIP3    H112934   0.789   3.948   5.773
 4331TIP3    H212935   0.935   3.978   5.749
 4332TIP3   OH212936   6.957   3.146   6.358
 4332TIP3    H112937   6.862   3.154   6.360
 4332TIP3    H212938   6.977   3.123   6.268
 4333TIP3   OH212939   5.606   7.426   1.673
 4333TIP3    H112940   5.571   7.440   1.761
 4333TIP3    H212941   5.655   7.506   1.654
 4334TIP3   OH212942   3.585   3.703   4.079
 4334TIP3    H112943   3.601   3.691   4.173
 4334TIP3    H212944   3.625   3.627   4.038
 4335TIP3   OH212945   2.894   2.964   6.369
 4335TIP3    H112946   2.988   2.972   6.355
 4335TIP3    H212947   2.875   3.024   6.441
 4336TIP3   OH212948   7.946   2.060   2.519
 4336TIP3    H112949   7.953   1.965   2.515
 4336TIP3    H212950   7.920   2.086   2.431
 4337TIP3   OH212951   7.053   1.194   2.078
 4337TIP3    H112952   6.990   1.259   2.109
 4337TIP3    H212953   7.039   1.191   1.983
 4338TIP3   OH212954   5.806   0.895   6.140
 4338TIP3    H112955   5.776   0.915   6.051
 4338TIP3    H212956   5.876   0.831   6.128
 4339TIP3   OH212957   7.179   6.010   6.577
 4339TIP3    H112958   7.243   6.047   6.517
 4339TIP3    H212959   7.226   6.001   6.660
 4340TIP3   OH212960   1.005   2.383   3.576
 4340TIP3    H112961   0.942   2.358   3.509
 4340TIP3    H212962   1.050   2.301   3.599
 4341TIP3   OH212963   5.071   2.552   5.605
 4341TIP3    H112964   5.057   2.463   5.637
 4341TIP3    H212965   5.157   2.577   5.638
 4342TIP3   OH212966   2.489   2.710   4.375
 4342TIP3    H112967   2.474   2.785   4.318
 4342TIP3    H212968   2.405   2.664   4.377
 4343TIP3   OH212969   0.308   7.069   6.214
 4343TIP3    H112970   0.293   7.157   6.179
 4343TIP3    H212971   0.403   7.062   6.225
 4344TIP3   OH212972   3.731   5.281   0.288
 4344TIP3    H112973   3.759   5.368   0.260
 4344TIP3    H212974   3.737   5.284   0.384
 4345TIP3   OH212975   6.127   7.729   1.860
 4345TIP3    H112976   6.129   7.788   1.785
 4345TIP3    H212977   6.120   7.786   1.936
 4346TIP3   OH212978   7.250   0.855   5.918
 4346TIP3    H112979   7.242   0.820   5.829
 4346TIP3    H212980   7.189   0.928   5.921
 4347TIP3   OH212981   6.952   6.050   3.994
 4347TIP3    H112982   6.970   6.030   4.086
 4347TIP3    H212983   7.010   6.123   3.974
 4348TIP3   OH212984   8.346   6.992   0.494
 4348TIP3    H112985   8.336   6.968   0.587
 4348TIP3    H212986   8.278   6.941   0.450
 4349TIP3   OH212987   6.420   0.267   5.160
 4349TIP3    H112988   6.341   0.314   5.131
 4349TIP3    H212989   6.404   0.249   5.253
 4350TIP3   OH212990   3.735   3.286   5.195
 4350TIP3    H112991   3.819   3.250   5.224
 4350TIP3    H212992   3.670   3.235   5.243
 4351TIP3   OH212993   0.054   7.082   3.647
 4351TIP3    H112994   0.132   7.073   3.593
 4351TIP3    H212995   0.064   7.016   3.716
 4352TIP3   OH212996   2.811   2.149   3.489
 4352TIP3    H112997   2.847   2.236   3.505
 4352TIP3    H212998   2.732   2.146   3.542
 4353TIP3   OH212999   3.143   1.671   3.054
 4353TIP3    H113000   3.134   1.634   2.966
 4353TIP3    H213001   3.098   1.609   3.111
 4354TIP3   OH213002   1.840   2.279   0.771
 4354TIP3    H113003   1.885   2.237   0.698
 4354TIP3    H213004   1.853   2.219   0.845
 4355TIP3   OH213005   1.678   2.887   3.548
 4355TIP3    H113006   1.656   2.795   3.537
 4355TIP3    H213007   1.638   2.911   3.632
 4356TIP3   OH213008   3.734   4.794   3.269
 4356TIP3    H113009   3.738   4.849   3.348
 4356TIP3    H213010   3.800   4.726   3.284
 4357TIP3   OH213011   3.808   5.256   6.376
 4357TIP3    H113012   3.736   5.238   6.315
 4357TIP3    H213013   3.872   5.304   6.324
 4358TIP3   OH213014   2.658   5.090   2.517
 4358TIP3    H113015   2.720   5.073   2.447
 4358TIP3    H213016   2.637   5.183   2.509
 4359TIP3   OH213017   0.793   1.274   1.588
 4359TIP3    H113018   0.860   1.310   1.646
 4359TIP3    H213019   0.713   1.320   1.612
 4360TIP3   OH213020   2.546   1.268   0.558
 4360TIP3    H113021   2.637   1.297   0.551
 4360TIP3    H213022   2.542   1.225   0.643
 4361TIP3   OH213023   1.333   0.846   4.211
 4361TIP3    H113024   1.378   0.769   4.177
 4361TIP3    H213025   1.390   0.879   4.280
 4362TIP3   OH213026   6.886   4.669   3.310
 4362TIP3    H113027   6.899   4.587   3.356
 4362TIP3    H213028   6.968   4.685   3.265
 4363TIP3   OH213029   0.972   3.341   2.195
 4363TIP3    H113030   0.900   3.394   2.232
 4363TIP3    H213031   1.010   3.297   2.270
 4364TIP3   OH213032   6.520   1.148   3.610
 4364TIP3    H113033   6.614   1.131   3.610
 4364TIP3    H213034   6.508   1.218   3.675
 4365TIP3   OH213035   2.433   3.112   0.516
 4365TIP3    H113036   2.419   3.203   0.488
 4365TIP3    H213037   2.361   3.063   0.476
 4366TIP3   OH213038   4.200   4.703   5.110
 4366TIP3    H113039   4.137   4.643   5.152
 4366TIP3    H213040   4.177   4.700   5.017
 4367TIP3   OH213041   6.029   0.889   6.521
 4367TIP3    H113042   6.020   0.966   6.465
 4367TIP3    H213043   5.965   0.902   6.591
 4368TIP3   OH213044   2.594   6.941   5.759
 4368TIP3    H113045   2.609   6.924   5.852
 4368TIP3    H213046   2.661   6.889   5.714
 4369TIP3   OH213047   8.379   5.295   6.574
 4369TIP3    H113048   8.326   5.375   6.578
 4369TIP3    H213049   8.402   5.277   6.665
 4370TIP3   OH213050   3.758   4.217   1.788
 4370TIP3    H113051   3.825   4.285   1.794
 4370TIP3    H213052   3.778   4.170   1.707
 4371TIP3   OH213053   6.513   0.602   0.888
 4371TIP3    H113054   6.441   0.585   0.828
 4371TIP3    H213055   6.515   0.697   0.898
 4372TIP3   OH213056   3.250   3.686   2.559
 4372TIP3    H113057   3.218   3.626   2.627
 4372TIP3    H213058   3.225   3.773   2.590
 4373TIP3   OH213059   2.763   4.565   2.901
 4373TIP3    H113060   2.696   4.632   2.917
 4373TIP3    H213061   2.793   4.538   2.988
 4374TIP3   OH213062   8.392   3.743   1.013
 4374TIP3    H113063   8.297   3.757   1.021
 4374TIP3    H213064   8.406   3.656   1.049
 4375TIP3   OH213065   1.596   6.272   1.377
 4375TIP3    H113066   1.538   6.214   1.329
 4375TIP3    H213067   1.565   6.360   1.356
 4376TIP3   OH213068   3.090   4.158   4.557
 4376TIP3    H113069   3.062   4.219   4.625
 4376TIP3    H213070   3.149   4.208   4.501
 4377TIP3   OH213071   1.126   3.645   2.321
 4377TIP3    H113072   1.196   3.583   2.299
 4377TIP3    H213073   1.065   3.593   2.374
 4378TIP3   OH213074   2.853   4.225   3.970
 4378TIP3    H113075   2.801   4.261   3.898
 4378TIP3    H213076   2.942   4.219   3.933
 4379TIP3   OH213077   6.660   7.170   1.486
 4379TIP3    H113078   6.592   7.236   1.501
 4379TIP3    H213079   6.739   7.209   1.524
 4380TIP3   OH213080   3.386   6.717   2.419
 4380TIP3    H113081   3.326   6.698   2.491
 4380TIP3    H213082   3.393   6.813   2.419
 4381TIP3   OH213083   4.470   1.170   5.436
 4381TIP3    H113084   4.399   1.232   5.418
 4381TIP3    H213085   4.514   1.159   5.353
 4382TIP3   OH213086   4.321   4.765   1.889
 4382TIP3    H113087   4.227   4.775   1.904
 4382TIP3    H213088   4.329   4.683   1.840
 4383TIP3   OH213089   3.837   2.884   6.236
 4383TIP3    H113090   3.830   2.805   6.289
 4383TIP3    H213091   3.822   2.956   6.298
 4384TIP3   OH213092   5.040   2.813   5.365
 4384TIP3    H113093   5.091   2.820   5.285
 4384TIP3    H213094   4.949   2.817   5.337
 4385TIP3   OH213095   4.207   1.484   5.742
 4385TIP3    H113096   4.239   1.512   5.827
 4385TIP3    H213097   4.153   1.407   5.761
 4386TIP3   OH213098   5.714   5.468   5.581
 4386TIP3    H113099   5.626   5.502   5.596
 4386TIP3    H213100   5.715   5.384   5.626
 4387TIP3   OH213101   6.419   0.398   0.616
 4387TIP3    H113102   6.464   0.370   0.696
 4387TIP3    H213103   6.435   0.492   0.611
 4388TIP3   OH213104   4.201   0.691   1.762
 4388TIP3    H113105   4.137   0.707   1.693
 4388TIP3    H213106   4.283   0.728   1.728
 4389TIP3   OH213107   1.600   7.641   0.636
 4389TIP3    H113108   1.666   7.575   0.612
 4389TIP3    H213109   1.622   7.666   0.725
 4390TIP3   OH213110   5.705   4.277   6.403
 4390TIP3    H113111   5.613   4.251   6.397
 4390TIP3    H213112   5.753   4.194   6.406
 4391TIP3   OH213113   7.883   7.154   6.523
 4391TIP3    H113114   7.845   7.242   6.529
 4391TIP3    H213115   7.894   7.125   6.613
 4392TIP3   OH213116   7.418   1.894   2.570
 4392TIP3    H113117   7.514   1.902   2.571
 4392TIP3    H213118   7.401   1.815   2.519
 4393TIP3   OH213119   5.825   5.495   0.429
 4393TIP3    H113120   5.845   5.401   0.432
 4393TIP3    H213121   5.881   5.529   0.359
 4394TIP3   OH213122   3.230   6.127   6.674
 4394TIP3    H113123   3.254   6.038   6.696
 4394TIP3    H213124   3.134   6.128   6.677
 4395TIP3   OH213125   7.202   5.461   6.603
 4395TIP3    H113126   7.130   5.507   6.647
 4395TIP3    H213127   7.161   5.423   6.525
 4396TIP3   OH213128   2.947   6.209   4.252
 4396TIP3    H113129   3.002   6.287   4.242
 4396TIP3    H213130   2.971   6.154   4.177
 4397TIP3   OH213131   4.654   0.703  -0.038
 4397TIP3    H113132   4.637   0.772   0.026
 4397TIP3    H213133   4.734   0.732  -0.083
 4398TIP3   OH213134   1.351   2.396   5.737
 4398TIP3    H113135   1.431   2.436   5.771
 4398TIP3    H213136   1.287   2.407   5.807
 4399TIP3   OH213137   6.570   1.768   6.814
 4399TIP3    H113138   6.565   1.758   6.719
 4399TIP3    H213139   6.630   1.842   6.827
 4400TIP3   OH213140   2.376   0.860   3.170
 4400TIP3    H113141   2.442   0.792   3.154
 4400TIP3    H213142   2.370   0.907   3.087
 4401TIP3   OH213143   4.030   3.084   3.295
 4401TIP3    H113144   4.039   3.073   3.390
 4401TIP3    H213145   3.967   3.018   3.269
 4402TIP3   OH213146   5.885   7.143   2.055
 4402TIP3    H113147   5.932   7.061   2.047
 4402TIP3    H213148   5.954   7.210   2.061
 4403TIP3   OH213149   4.184   7.409   6.318
 4403TIP3    H113150   4.218   7.379   6.402
 4403TIP3    H213151   4.232   7.490   6.300
 4404TIP3   OH213152   5.757   4.825   2.903
 4404TIP3    H113153   5.836   4.800   2.952
 4404TIP3    H213154   5.700   4.749   2.909
 4405TIP3   OH213155   6.358   1.164   0.446
 4405TIP3    H113156   6.351   1.090   0.386
 4405TIP3    H213157   6.352   1.241   0.389
 4406TIP3   OH213158   5.970   0.673   2.396
 4406TIP3    H113159   5.954   0.601   2.336
 4406TIP3    H213160   5.883   0.708   2.416
 4407TIP3   OH213161   7.964   3.004   2.183
 4407TIP3    H113162   7.962   3.075   2.118
 4407TIP3    H213163   7.883   3.016   2.233
 4408TIP3   OH213164   7.982   0.882   6.589
 4408TIP3    H113165   7.888   0.869   6.602
 4408TIP3    H213166   8.000   0.968   6.629
 4409TIP3   OH213167   1.234   3.783   3.335
 4409TIP3    H113168   1.235   3.809   3.427
 4409TIP3    H213169   1.259   3.691   3.335
 4410TIP3   OH213170   6.375   3.867   1.820
 4410TIP3    H113171   6.432   3.927   1.772
 4410TIP3    H213172   6.359   3.910   1.904
 4411TIP3   OH213173   2.371   4.180   1.419
 4411TIP3    H113174   2.281   4.153   1.402
 4411TIP3    H213175   2.413   4.177   1.333
 4412TIP3   OH213176   2.249   5.155   4.127
 4412TIP3    H113177   2.342   5.167   4.110
 4412TIP3    H213178   2.205   5.221   4.074
 4413TIP3   OH213179   3.558   0.116   1.993
 4413TIP3    H113180   3.653   0.129   1.983
 4413TIP3    H213181   3.526   0.200   2.026
 4414TIP3   OH213182   2.813   7.224   2.963
 4414TIP3    H113183   2.758   7.201   3.038
 4414TIP3    H213184   2.765   7.294   2.919
 4415TIP3   OH213185   0.455   4.112   4.775
 4415TIP3    H113186   0.502   4.155   4.846
 4415TIP3    H213187   0.508   4.131   4.697
 4416TIP3   OH213188   7.807   4.749   2.166
 4416TIP3    H113189   7.797   4.691   2.091
 4416TIP3    H213190   7.850   4.695   2.233
 4417TIP3   OH213191   3.987   6.567   2.679
 4417TIP3    H113192   4.050   6.614   2.626
 4417TIP3    H213193   4.029   6.558   2.765
 4418TIP3   OH213194   6.055   6.170   6.088
 4418TIP3    H113195   6.043   6.155   5.994
 4418TIP3    H213196   6.059   6.265   6.097
 4419TIP3   OH213197   4.315   3.180   6.636
 4419TIP3    H113198   4.359   3.194   6.552
 4419TIP3    H213199   4.292   3.267   6.666
 4420TIP3   OH213200   6.319   3.920   6.445
 4420TIP3    H113201   6.410   3.921   6.472
 4420TIP3    H213202   6.296   4.012   6.432
 4421TIP3   OH213203   1.509   0.698   6.828
 4421TIP3    H113204   1.463   0.759   6.771
 4421TIP3    H213205   1.515   0.744   6.912
 4422TIP3   OH213206   5.444   1.087   1.430
 4422TIP3    H113207   5.529   1.042   1.429
 4422TIP3    H213208   5.458   1.165   1.376
 4423TIP3   OH213209   6.613   2.958   6.062
 4423TIP3    H113210   6.658   3.042   6.049
 4423TIP3    H213211   6.679   2.892   6.038
 4424TIP3   OH213212   1.368   7.502   6.186
 4424TIP3    H113213   1.279   7.510   6.151
 4424TIP3    H213214   1.407   7.588   6.171
 4425TIP3   OH213215   8.303   4.953   3.153
 4425TIP3    H113216   8.387   4.950   3.199
 4425TIP3    H213217   8.270   5.041   3.167
 4426TIP3   OH213218   5.485   6.442   5.871
 4426TIP3    H113219   5.536   6.491   5.806
 4426TIP3    H213220   5.440   6.509   5.923
 4427TIP3   OH213221   3.690   6.849   1.504
 4427TIP3    H113222   3.599   6.879   1.497
 4427TIP3    H213223   3.693   6.805   1.589
 4428TIP3   OH213224   3.626   2.708   4.735
 4428TIP3    H113225   3.686   2.771   4.694
 4428TIP3    H213226   3.677   2.669   4.807
 4429TIP3   OH213227   2.793   6.071   0.359
 4429TIP3    H113228   2.810   6.093   0.268
 4429TIP3    H213229   2.856   6.125   0.408
 4430TIP3   OH213230   2.591   4.514   5.675
 4430TIP3    H113231   2.534   4.527   5.599
 4430TIP3    H213232   2.674   4.484   5.638
 4431TIP3   OH213233   7.560   0.708   2.717
 4431TIP3    H113234   7.519   0.624   2.737
 4431TIP3    H213235   7.618   0.724   2.791
 4432TIP3   OH213236   0.457   2.546   2.844
 4432TIP3    H113237   0.487   2.566   2.756
 4432TIP3    H213238   0.535   2.553   2.899
 4433TIP3   OH213239   0.743   6.029   2.388
 4433TIP3    H113240   0.810   6.025   2.320
 4433TIP3    H213241   0.672   6.080   2.349
 4434TIP3   OH213242   8.272   6.617   3.722
 4434TIP3    H113243   8.269   6.523   3.735
 4434TIP3    H213244   8.180   6.644   3.722
 4435TIP3   OH213245   3.752   3.057   6.427
 4435TIP3    H113246   3.692   3.116   6.380
 4435TIP3    H213247   3.715   3.052   6.516
 4436TIP3   OH213248   3.745   5.615   5.218
 4436TIP3    H113249   3.768   5.549   5.153
 4436TIP3    H213250   3.813   5.607   5.286
 4437TIP3   OH213251   3.283   0.810   6.122
 4437TIP3    H113252   3.372   0.844   6.115
 4437TIP3    H213253   3.227   0.884   6.098
 4438TIP3   OH213254   6.813   6.098   2.003
 4438TIP3    H113255   6.722   6.125   2.012
 4438TIP3    H213256   6.823   6.076   1.910
 4439TIP3   OH213257   2.041   1.934   5.626
 4439TIP3    H113258   2.050   2.019   5.668
 4439TIP3    H213259   1.952   1.935   5.589
 4440TIP3   OH213260   0.340   5.206   6.174
 4440TIP3    H113261   0.286   5.155   6.115
 4440TIP3    H213262   0.326   5.297   6.148
 4441TIP3   OH213263   3.605   1.304   4.808
 4441TIP3    H113264   3.665   1.379   4.817
 4441TIP3    H213265   3.661   1.227   4.823
 4442TIP3   OH213266   7.103   1.721   5.717
 4442TIP3    H113267   7.119   1.628   5.733
 4442TIP3    H213268   7.089   1.727   5.623
 4443TIP3   OH213269   2.052   7.056   4.439
 4443TIP3    H113270   2.091   7.051   4.351
 4443TIP3    H213271   1.958   7.045   4.424
 4444TIP3   OH213272   0.578   4.177   1.200
 4444TIP3    H113273   0.673   4.186   1.191
 4444TIP3    H213274   0.566   4.158   1.293
 4445TIP3   OH213275   4.234   4.262   3.402
 4445TIP3    H113276   4.162   4.208   3.434
 4445TIP3    H213277   4.297   4.199   3.367
 4446TIP3   OH213278   5.641   3.237   6.232
 4446TIP3    H113279   5.654   3.248   6.138
 4446TIP3    H213280   5.672   3.319   6.270
 4447TIP3   OH213281   2.030   6.553   3.926
 4447TIP3    H113282   2.042   6.497   4.003
 4447TIP3    H213283   2.106   6.612   3.927
 4448TIP3   OH213284   3.700   3.082   4.691
 4448TIP3    H113285   3.693   3.030   4.771
 4448TIP3    H213286   3.620   3.134   4.689
 4449TIP3   OH213287   2.005   0.154   5.653
 4449TIP3    H113288   2.001   0.062   5.628
 4449TIP3    H213289   2.001   0.202   5.570
 4450TIP3   OH213290   3.792   6.550   6.188
 4450TIP3    H113291   3.848   6.481   6.224
 4450TIP3    H213292   3.739   6.578   6.263
 4451TIP3   OH213293   4.826   6.162   3.052
 4451TIP3    H113294   4.780   6.161   2.969
 4451TIP3    H213295   4.918   6.148   3.029
 4452TIP3   OH213296   4.866   6.194   3.661
 4452TIP3    H113297   4.867   6.288   3.675
 4452TIP3    H213298   4.788   6.164   3.707
 4453TIP3   OH213299   0.980   7.671   4.666
 4453TIP3    H113300   1.042   7.662   4.594
 4453TIP3    H213301   0.898   7.699   4.624
 4454TIP3   OH213302   1.881   3.426   2.667
 4454TIP3    H113303   1.825   3.403   2.594
 4454TIP3    H213304   1.968   3.439   2.628
 4455TIP3   OH213305   3.973   4.440   1.779
 4455TIP3    H113306   3.897   4.465   1.727
 4455TIP3    H213307   3.938   4.428   1.868
 4456TIP3   OH213308   3.171   1.627   3.715
 4456TIP3    H113309   3.110   1.700   3.711
 4456TIP3    H213310   3.137   1.571   3.784
 4457TIP3   OH213311   0.488   7.654   0.050
 4457TIP3    H113312   0.548   7.581   0.036
 4457TIP3    H213313   0.516   7.693   0.133
 4458TIP3   OH213314   3.234   5.518   0.863
 4458TIP3    H113315   3.152   5.534   0.911
 4458TIP3    H213316   3.302   5.523   0.930
 4459TIP3   OH213317   2.438   7.896   3.312
 4459TIP3    H113318   2.469   7.963   3.373
 4459TIP3    H213319   2.485   7.817   3.338
 4460TIP3   OH213320   4.958   0.275   5.684
 4460TIP3    H113321   4.922   0.193   5.653
 4460TIP3    H213322   4.985   0.257   5.774
 4461TIP3   OH213323   4.176   4.765   3.868
 4461TIP3    H113324   4.125   4.823   3.924
 4461TIP3    H213325   4.256   4.814   3.849
 4462TIP3   OH213326   0.822   2.735   5.139
 4462TIP3    H113327   0.917   2.743   5.146
 4462TIP3    H213328   0.794   2.706   5.226
 4463TIP3   OH213329   0.105   4.530   6.754
 4463TIP3    H113330   0.054   4.602   6.717
 4463TIP3    H213331   0.074   4.452   6.708
 4464TIP3   OH213332   6.391   6.542   4.195
 4464TIP3    H113333   6.420   6.608   4.257
 4464TIP3    H213334   6.461   6.538   4.130
 4465TIP3   OH213335   7.343   2.593   2.325
 4465TIP3    H113336   7.386   2.510   2.307
 4465TIP3    H213337   7.250   2.570   2.332
 4466TIP3   OH213338   1.881   2.194   5.824
 4466TIP3    H113339   1.850   2.242   5.901
 4466TIP3    H213340   1.864   2.102   5.845
 4467TIP3   OH213341   4.594   1.224   1.114
 4467TIP3    H113342   4.555   1.148   1.158
 4467TIP3    H213343   4.687   1.204   1.109
 4468TIP3   OH213344   2.480   0.056   2.345
 4468TIP3    H113345   2.570   0.063   2.376
 4468TIP3    H213346   2.430   0.028   2.421
 4469TIP3   OH213347   0.752   1.113   3.838
 4469TIP3    H113348   0.671   1.070   3.865
 4469TIP3    H213349   0.747   1.116   3.743
 4470TIP3   OH213350   3.172   0.350   1.792
 4470TIP3    H113351   3.128   0.303   1.863
 4470TIP3    H213352   3.259   0.370   1.827
 4471TIP3   OH213353   7.991   6.609   4.344
 4471TIP3    H113354   7.901   6.578   4.337
 4471TIP3    H213355   8.036   6.542   4.395
 4472TIP3   OH213356   0.608   2.863   3.863
 4472TIP3    H113357   0.697   2.885   3.891
 4472TIP3    H213358   0.619   2.802   3.790
 4473TIP3   OH213359   0.971   7.789   3.329
 4473TIP3    H113360   0.912   7.779   3.405
 4473TIP3    H213361   1.056   7.759   3.361
 4474TIP3   OH213362   7.556   1.972   2.053
 4474TIP3    H113363   7.639   1.999   2.013
 4474TIP3    H213364   7.494   1.968   1.979
 4475TIP3   OH213365   2.930   6.733   4.225
 4475TIP3    H113366   2.991   6.680   4.174
 4475TIP3    H213367   2.977   6.814   4.244
 4476TIP3   OH213368   3.224   2.355   4.221
 4476TIP3    H113369   3.223   2.388   4.311
 4476TIP3    H213370   3.249   2.263   4.230
 4477TIP3   OH213371   5.167   6.693   2.788
 4477TIP3    H113372   5.230   6.636   2.831
 4477TIP3    H213373   5.135   6.641   2.714
 4478TIP3   OH213374   6.097   5.070   4.306
 4478TIP3    H113375   6.025   5.130   4.325
 4478TIP3    H213376   6.119   5.032   4.391
 4479TIP3   OH213377   4.125   5.003   0.190
 4479TIP3    H113378   4.151   4.919   0.229
 4479TIP3    H213379   4.029   5.006   0.201
 4480TIP3   OH213380   1.130   3.496   0.282
 4480TIP3    H113381   1.145   3.526   0.372
 4480TIP3    H213382   1.170   3.565   0.228
 4481TIP3   OH213383   1.765   5.991   2.299
 4481TIP3    H113384   1.691   6.036   2.338
 4481TIP3    H213385   1.774   5.911   2.351
 4482TIP3   OH213386   5.823   5.744   5.801
 4482TIP3    H113387   5.781   5.782   5.723
 4482TIP3    H213388   5.852   5.658   5.773
 4483TIP3   OH213389   4.421   4.524   2.711
 4483TIP3    H113390   4.371   4.553   2.788
 4483TIP3    H213391   4.492   4.471   2.747
 4484TIP3   OH213392   3.629   2.222   5.158
 4484TIP3    H113393   3.556   2.221   5.097
 4484TIP3    H213394   3.689   2.155   5.125
 4485TIP3   OH213395   5.727   4.409   0.320
 4485TIP3    H113396   5.806   4.445   0.361
 4485TIP3    H213397   5.671   4.385   0.394
 4486TIP3   OH213398   4.216   6.517   1.010
 4486TIP3    H113399   4.230   6.591   1.070
 4486TIP3    H213400   4.123   6.518   0.991
 4487TIP3   OH213401   6.299   0.124   4.852
 4487TIP3    H113402   6.329   0.154   4.766
 4487TIP3    H213403   6.296   0.204   4.905
 4488TIP3   OH213404   6.409   0.187   4.578
 4488TIP3    H113405   6.499   0.159   4.593
 4488TIP3    H213406   6.416   0.260   4.515
 4489TIP3   OH213407   6.755   0.824   4.710
 4489TIP3    H113408   6.770   0.908   4.753
 4489TIP3    H213409   6.791   0.760   4.771
 4490TIP3   OH213410   4.681   4.426   3.516
 4490TIP3    H113411   4.691   4.461   3.604
 4490TIP3    H213412   4.763   4.379   3.499
 4491TIP3   OH213413   6.561   4.730   6.576
 4491TIP3    H113414   6.643   4.708   6.531
 4491TIP3    H213415   6.583   4.727   6.669
 4492TIP3   OH213416   7.544   2.613   6.724
 4492TIP3    H113417   7.519   2.625   6.815
 4492TIP3    H213418   7.589   2.694   6.701
 4493TIP3   OH213419   3.381   0.639   0.204
 4493TIP3    H113420   3.379   0.642   0.300
 4493TIP3    H213421   3.289   0.642   0.177
 4494TIP3   OH213422   4.739   4.878   6.444
 4494TIP3    H113423   4.709   4.854   6.532
 4494TIP3    H213424   4.659   4.893   6.394
 4495TIP3   OH213425   7.210   3.138   5.288
 4495TIP3    H113426   7.251   3.072   5.343
 4495TIP3    H213427   7.216   3.102   5.199
 4496TIP3   OH213428   6.644   4.572   1.108
 4496TIP3    H113429   6.589   4.495   1.116
 4496TIP3    H213430   6.677   4.589   1.196
 4497TIP3   OH213431   4.616   5.097   4.712
 4497TIP3    H113432   4.700   5.053   4.724
 4497TIP3    H213433   4.566   5.077   4.792
 4498TIP3   OH213434   7.808   2.927   5.279
 4498TIP3    H113435   7.899   2.896   5.288
 4498TIP3    H213436   7.777   2.935   5.369
 4499TIP3   OH213437   2.405   6.118   1.485
 4499TIP3    H113438   2.393   6.184   1.553
 4499TIP3    H213439   2.375   6.036   1.524
 4500TIP3   OH213440   6.280   4.129   0.034
 4500TIP3    H113441   6.295   4.089   0.119
 4500TIP3    H213442   6.331   4.210   0.037
 4501TIP3   OH213443   0.317   5.469   0.486
 4501TIP3    H113444   0.364   5.549   0.510
 4501TIP3    H213445   0.283   5.436   0.569
 4502TIP3   OH213446   0.443   4.424   6.381
 4502TIP3    H113447   0.503   4.410   6.307
 4502TIP3    H213448   0.360   4.447   6.339
 4503TIP3   OH213449   2.828   0.039   4.229
 4503TIP3    H113450   2.783   0.109   4.275
 4503TIP3    H213451   2.913   0.076   4.206
 4504TIP3   OH213452   5.924   3.833   4.164
 4504TIP3    H113453   5.980   3.910   4.156
 4504TIP3    H213454   5.898   3.832   4.257
 4505TIP3   OH213455   4.726   7.468   1.350
 4505TIP3    H113456   4.770   7.553   1.356
 4505TIP3    H213457   4.713   7.441   1.441
 4506TIP3   OH213458   1.172   5.763   5.312
 4506TIP3    H113459   1.190   5.825   5.383
 4506TIP3    H213460   1.206   5.807   5.233
 4507TIP3   OH213461   3.910   1.464   3.015
 4507TIP3    H113462   3.850   1.525   2.971
 4507TIP3    H213463   3.884   1.466   3.107
 4508TIP3   OH213464   5.189   5.947   6.360
 4508TIP3    H113465   5.284   5.961   6.353
 4508TIP3    H213466   5.154   5.986   6.279
 4509TIP3   OH213467   6.354   0.391   4.390
 4509TIP3    H113468   6.290   0.353   4.330
 4509TIP3    H213469   6.407   0.449   4.335
 4510TIP3   OH213470   0.003   4.736   2.721
 4510TIP3    H113471  -0.001   4.673   2.793
 4510TIP3    H213472   0.039   4.815   2.760
 4511TIP3   OH213473   7.130   2.538   1.708
 4511TIP3    H113474   7.037   2.520   1.716
 4511TIP3    H213475   7.170   2.453   1.687
 4512TIP3   OH213476   5.898   1.528   5.109
 4512TIP3    H113477   5.943   1.506   5.191
 4512TIP3    H213478   5.872   1.620   5.120
 4513TIP3   OH213479   3.453   4.069   6.682
 4513TIP3    H113480   3.529   4.043   6.734
 4513TIP3    H213481   3.398   3.991   6.679
 4514TIP3   OH213482   3.744   7.738   3.103
 4514TIP3    H113483   3.756   7.831   3.121
 4514TIP3    H213484   3.724   7.734   3.009
 4515TIP3   OH213485   1.689   7.879   6.528
 4515TIP3    H113486   1.770   7.828   6.527
 4515TIP3    H213487   1.684   7.917   6.441
 4516TIP3   OH213488   0.805   6.724   1.823
 4516TIP3    H113489   0.804   6.636   1.785
 4516TIP3    H213490   0.828   6.710   1.915
 4517TIP3   OH213491   1.825   6.727   4.455
 4517TIP3    H113492   1.875   6.676   4.519
 4517TIP3    H213493   1.832   6.817   4.487
 4518TIP3   OH213494   3.818   6.569   3.091
 4518TIP3    H113495   3.899   6.519   3.080
 4518TIP3    H213496   3.770   6.554   3.010
 4519TIP3   OH213497   7.338   4.826   1.934
 4519TIP3    H113498   7.247   4.805   1.955
 4519TIP3    H213499   7.336   4.851   1.841
 4520TIP3   OH213500   3.199   6.709   2.630
 4520TIP3    H113501   3.104   6.702   2.631
 4520TIP3    H213502   3.219   6.768   2.703
 4521TIP3   OH213503   1.016   0.229   6.180
 4521TIP3    H113504   1.000   0.135   6.176
 4521TIP3    H213505   1.043   0.253   6.091
 4522TIP3   OH213506   2.172   3.276   3.123
 4522TIP3    H113507   2.160   3.332   3.045
 4522TIP3    H213508   2.184   3.188   3.087
 4523TIP3   OH213509   2.173   2.301   2.282
 4523TIP3    H113510   2.097   2.340   2.325
 4523TIP3    H213511   2.138   2.263   2.202
 4524TIP3   OH213512   5.798   1.065   5.373
 4524TIP3    H113513   5.861   1.137   5.366
 4524TIP3    H213514   5.734   1.083   5.304
 4525TIP3   OH213515   1.728   3.898   6.387
 4525TIP3    H113516   1.690   3.818   6.352
 4525TIP3    H213517   1.713   3.963   6.318
 4526TIP3   OH213518   1.317   5.762   6.753
 4526TIP3    H113519   1.236   5.739   6.798
 4526TIP3    H213520   1.343   5.845   6.793
 4527TIP3   OH213521   2.488   3.525   0.392
 4527TIP3    H113522   2.432   3.603   0.387
 4527TIP3    H213523   2.560   3.550   0.450
 4528TIP3   OH213524   3.284   6.845   6.608
 4528TIP3    H113525   3.308   6.798   6.528
 4528TIP3    H213526   3.356   6.827   6.669
 4529TIP3   OH213527   2.799   2.014   3.247
 4529TIP3    H113528   2.818   2.044   3.336
 4529TIP3    H213529   2.721   2.063   3.221
 4530TIP3   OH213530   6.537   2.289   6.190
 4530TIP3    H113531   6.449   2.267   6.159
 4530TIP3    H213532   6.559   2.220   6.252
 4531TIP3   OH213533   6.529   2.172   0.113
 4531TIP3    H113534   6.584   2.220   0.051
 4531TIP3    H213535   6.590   2.117   0.162
 4532TIP3   OH213536   0.109   3.767   0.769
 4532TIP3    H113537   0.087   3.782   0.861
 4532TIP3    H213538   0.037   3.712   0.736
 4533TIP3   OH213539   4.165   7.811   1.535
 4533TIP3    H113540   4.163   7.855   1.620
 4533TIP3    H213541   4.073   7.799   1.512
 4534TIP3   OH213542   5.110   4.063   0.345
 4534TIP3    H113543   5.122   4.000   0.273
 4534TIP3    H213544   5.027   4.105   0.326
 4535TIP3   OH213545   8.114   0.527   5.824
 4535TIP3    H113546   8.170   0.509   5.748
 4535TIP3    H213547   8.034   0.479   5.806
 4536TIP3   OH213548   4.710   4.470   0.483
 4536TIP3    H113549   4.676   4.542   0.537
 4536TIP3    H213550   4.794   4.447   0.523
 4537TIP3   OH213551   3.440   1.132   3.687
 4537TIP3    H113552   3.359   1.169   3.652
 4537TIP3    H213553   3.469   1.071   3.620
 4538TIP3   OH213554   2.263   6.217   6.777
 4538TIP3    H113555   2.344   6.254   6.741
 4538TIP3    H213556   2.289   6.132   6.813
 4539TIP3   OH213557   6.629   3.736   5.091
 4539TIP3    H113558   6.581   3.726   5.009
 4539TIP3    H213559   6.566   3.709   5.159
 4540TIP3   OH213560   3.304   6.855   0.254
 4540TIP3    H113561   3.378   6.796   0.237
 4540TIP3    H213562   3.293   6.904   0.173
 4541TIP3   OH213563   5.248   5.257   2.174
 4541TIP3    H113564   5.292   5.227   2.254
 4541TIP3    H213565   5.312   5.243   2.105
 4542TIP3   OH213566   7.623   5.060   1.656
 4542TIP3    H113567   7.652   5.124   1.591
 4542TIP3    H213568   7.533   5.039   1.628
 4543TIP3   OH213569   1.468   7.779   3.978
 4543TIP3    H113570   1.511   7.842   3.921
 4543TIP3    H213571   1.535   7.711   3.992
 4544TIP3   OH213572   5.738   6.482   3.962
 4544TIP3    H113573   5.722   6.507   3.871
 4544TIP3    H213574   5.726   6.387   3.963
 4545TIP3   OH213575   6.554   1.705   5.258
 4545TIP3    H113576   6.593   1.744   5.336
 4545TIP3    H213577   6.473   1.666   5.289
 4546TIP3   OH213578   1.464   3.733   0.357
 4546TIP3    H113579   1.522   3.810   0.353
 4546TIP3    H213580   1.420   3.740   0.442
 4547TIP3   OH213581   7.173   3.275   1.672
 4547TIP3    H113582   7.155   3.309   1.760
 4547TIP3    H213583   7.224   3.195   1.687
 4548TIP3   OH213584   4.406   2.834   5.414
 4548TIP3    H113585   4.481   2.785   5.380
 4548TIP3    H213586   4.343   2.766   5.439
 4549TIP3   OH213587   4.656   5.794   0.118
 4549TIP3    H113588   4.674   5.701   0.112
 4549TIP3    H213589   4.568   5.799   0.158
 4550TIP3   OH213590   1.555   6.161   5.015
 4550TIP3    H113591   1.555   6.220   4.939
 4550TIP3    H213592   1.647   6.144   5.031
 4551TIP3   OH213593   6.755   1.398   3.481
 4551TIP3    H113594   6.717   1.364   3.400
 4551TIP3    H213595   6.847   1.372   3.477
 4552TIP3   OH213596   2.670  -0.016   1.883
 4552TIP3    H113597   2.608  -0.084   1.909
 4552TIP3    H213598   2.635   0.065   1.922
 4553TIP3   OH213599   8.113   4.133   4.447
 4553TIP3    H113600   8.106   4.221   4.411
 4553TIP3    H213601   8.107   4.145   4.542
 4554TIP3   OH213602   7.583   1.034   4.253
 4554TIP3    H113603   7.589   0.949   4.296
 4554TIP3    H213604   7.640   1.091   4.304
 4555TIP3   OH213605   2.075   3.713   4.218
 4555TIP3    H113606   2.106   3.644   4.159
 4555TIP3    H213607   2.103   3.795   4.177
 4556TIP3   OH213608   0.401   0.101   2.349
 4556TIP3    H113609   0.381   0.173   2.408
 4556TIP3    H213610   0.488   0.120   2.315
 4557TIP3   OH213611   5.415   3.288   4.700
 4557TIP3    H113612   5.427   3.197   4.670
 4557TIP3    H213613   5.467   3.340   4.639
 4558TIP3   OH213614   5.713   1.484   2.271
 4558TIP3    H113615   5.764   1.539   2.212
 4558TIP3    H213616   5.625   1.523   2.271
 4559TIP3   OH213617   5.145   3.641   4.422
 4559TIP3    H113618   5.228   3.662   4.464
 4559TIP3    H213619   5.120   3.721   4.376
 4560TIP3   OH213620   6.726   5.462   2.569
 4560TIP3    H113621   6.779   5.457   2.648
 4560TIP3    H213622   6.780   5.510   2.506
 4561TIP3   OH213623   2.894   2.365   2.647
 4561TIP3    H113624   2.883   2.391   2.556
 4561TIP3    H213625   2.974   2.410   2.675
 4562TIP3   OH213626   0.854   0.954   4.464
 4562TIP3    H113627   0.884   0.952   4.555
 4562TIP3    H213628   0.761   0.936   4.469
 4563TIP3   OH213629   7.488   2.724   5.892
 4563TIP3    H113630   7.510   2.816   5.881
 4563TIP3    H213631   7.571   2.678   5.881
 4564TIP3   OH213632   4.556   4.782   4.630
 4564TIP3    H113633   4.589   4.868   4.603
 4564TIP3    H213634   4.631   4.723   4.619
 4565TIP3   OH213635   3.288   2.930   5.141
 4565TIP3    H113636   3.355   2.883   5.189
 4565TIP3    H213637   3.274   2.880   5.061
 4566TIP3   OH213638   7.548   6.494   1.522
 4566TIP3    H113639   7.558   6.554   1.448
 4566TIP3    H213640   7.513   6.414   1.483
 4567TIP3   OH213641   0.485   1.234   0.452
 4567TIP3    H113642   0.426   1.162   0.428
 4567TIP3    H213643   0.429   1.312   0.454
 4568TIP3   OH213644   7.031   4.692   6.235
 4568TIP3    H113645   7.000   4.766   6.182
 4568TIP3    H213646   7.078   4.732   6.307
 4569TIP3   OH213647   7.701   0.307   5.134
 4569TIP3    H113648   7.657   0.351   5.206
 4569TIP3    H213649   7.649   0.330   5.057
 4570TIP3   OH213650   1.197   3.508   6.154
 4570TIP3    H113651   1.289   3.486   6.168
 4570TIP3    H213652   1.149   3.456   6.219
 4571TIP3   OH213653   0.289   3.191   4.896
 4571TIP3    H113654   0.365   3.249   4.902
 4571TIP3    H213655   0.326   3.103   4.894
 4572TIP3   OH213656   8.023   6.419   1.133
 4572TIP3    H113657   7.956   6.430   1.200
 4572TIP3    H213658   7.978   6.375   1.061
 4573TIP3   OH213659   6.621   2.581   4.291
 4573TIP3    H113660   6.583   2.646   4.350
 4573TIP3    H213661   6.596   2.497   4.329
 4574TIP3   OH213662   4.192   2.931   6.661
 4574TIP3    H113663   4.201   3.013   6.708
 4574TIP3    H213664   4.113   2.891   6.697
 4575TIP3   OH213665   1.614   2.461   5.839
 4575TIP3    H113666   1.681   2.521   5.806
 4575TIP3    H213667   1.617   2.472   5.934
 4576TIP3   OH213668   5.248   1.067   5.582
 4576TIP3    H113669   5.222   0.990   5.532
 4576TIP3    H213670   5.340   1.082   5.559
 4577TIP3   OH213671   1.383   6.047   2.301
 4577TIP3    H113672   1.375   5.965   2.253
 4577TIP3    H213673   1.418   6.021   2.387
 4578TIP3   OH213674   5.437   2.797   6.047
 4578TIP3    H113675   5.390   2.828   6.125
 4578TIP3    H213676   5.464   2.877   6.002
 4579TIP3   OH213677   6.313   4.033   5.852
 4579TIP3    H113678   6.250   4.027   5.924
 4579TIP3    H213679   6.393   3.995   5.887
 4580TIP3   OH213680   8.067   6.412   4.891
 4580TIP3    H113681   8.123   6.364   4.830
 4580TIP3    H213682   8.064   6.501   4.856
 4581TIP3   OH213683   6.578   7.805   4.368
 4581TIP3    H113684   6.579   7.871   4.437
 4581TIP3    H213685   6.566   7.854   4.287
 4582TIP3   OH213686   2.165   5.578   6.780
 4582TIP3    H113687   2.235   5.552   6.718
 4582TIP3    H213688   2.088   5.591   6.724
 4583TIP3   OH213689   7.377   7.643   3.112
 4583TIP3    H113690   7.301   7.595   3.144
 4583TIP3    H213691   7.416   7.680   3.191
 4584TIP3   OH213692   2.571   6.076   6.332
 4584TIP3    H113693   2.580   6.134   6.256
 4584TIP3    H213694   2.634   6.111   6.396
 4585TIP3   OH213695   1.415   5.147   6.446
 4585TIP3    H113696   1.334   5.195   6.431
 4585TIP3    H213697   1.440   5.171   6.536
 4586TIP3   OH213698   8.300   2.973   2.740
 4586TIP3    H113699   8.219   2.946   2.783
 4586TIP3    H213700   8.284   2.956   2.647
 4587TIP3   OH213701   5.244   3.086   0.540
 4587TIP3    H113702   5.288   3.169   0.559
 4587TIP3    H213703   5.157   3.095   0.579
 4588TIP3   OH213704   3.762   0.897   1.258
 4588TIP3    H113705   3.697   0.950   1.304
 4588TIP3    H213706   3.744   0.913   1.166
 4589TIP3   OH213707   7.380   5.833   0.017
 4589TIP3    H113708   7.427   5.915   0.029
 4589TIP3    H213709   7.308   5.837   0.079
 4590TIP3   OH213710   7.294   2.278   4.410
 4590TIP3    H113711   7.320   2.244   4.496
 4590TIP3    H213712   7.373   2.317   4.375
 4591TIP3   OH213713   5.041   1.072   2.252
 4591TIP3    H113714   5.120   1.084   2.199
 4591TIP3    H213715   5.012   1.160   2.273
 4592TIP3   OH213716   6.386   5.858   2.363
 4592TIP3    H113717   6.382   5.862   2.459
 4592TIP3    H213718   6.297   5.876   2.335
 4593TIP3   OH213719   5.328   3.005   0.814
 4593TIP3    H113720   5.254   3.066   0.818
 4593TIP3    H213721   5.291   2.920   0.839
 4594TIP3   OH213722   6.096   7.205   6.324
 4594TIP3    H113723   6.181   7.214   6.281
 4594TIP3    H213724   6.035   7.249   6.265
 4595TIP3   OH213725   7.908   0.417   1.821
 4595TIP3    H113726   7.981   0.472   1.851
 4595TIP3    H213727   7.830   0.457   1.860
 4596TIP3   OH213728   1.270   6.068   1.954
 4596TIP3    H113729   1.274   6.001   2.023
 4596TIP3    H213730   1.177   6.091   1.949
 4597TIP3   OH213731   2.509   1.996   2.389
 4597TIP3    H113732   2.472   2.083   2.403
 4597TIP3    H213733   2.602   2.011   2.373
 4598TIP3   OH213734   5.465   3.975   3.034
 4598TIP3    H113735   5.449   3.957   3.127
 4598TIP3    H213736   5.423   4.060   3.019
 4599TIP3   OH213737   5.683   2.363   5.856
 4599TIP3    H113738   5.671   2.450   5.895
 4599TIP3    H213739   5.770   2.366   5.817
 4600TIP3   OH213740   2.258   5.665   5.982
 4600TIP3    H113741   2.250   5.602   6.054
 4600TIP3    H213742   2.256   5.750   6.025
 4601TIP3   OH213743   5.170   4.983   5.157
 4601TIP3    H113744   5.170   4.891   5.128
 4601TIP3    H213745   5.085   5.017   5.130
 4602TIP3   OH213746   0.432   7.578   4.032
 4602TIP3    H113747   0.520   7.607   4.008
 4602TIP3    H213748   0.440   7.483   4.045
 4603TIP3   OH213749   0.576   5.765   3.181
 4603TIP3    H113750   0.530   5.754   3.098
 4603TIP3    H213751   0.642   5.831   3.164
 4604TIP3   OH213752   4.238   0.562   4.292
 4604TIP3    H113753   4.163   0.600   4.247
 4604TIP3    H213754   4.206   0.480   4.330
 4605TIP3   OH213755   6.200   2.685   5.841
 4605TIP3    H113756   6.170   2.738   5.768
 4605TIP3    H213757   6.261   2.741   5.889
 4606TIP3   OH213758   3.679   6.058   1.121
 4606TIP3    H113759   3.636   6.118   1.182
 4606TIP3    H213760   3.706   5.984   1.176
 4607TIP3   OH213761   1.049   5.117   6.018
 4607TIP3    H113762   1.039   5.147   5.928
 4607TIP3    H213763   1.109   5.180   6.058
 4608TIP3   OH213764   2.765   4.698   1.131
 4608TIP3    H113765   2.686   4.663   1.173
 4608TIP3    H213766   2.814   4.739   1.202
 4609TIP3   OH213767   2.950   2.800   4.895
 4609TIP3    H113768   2.946   2.791   4.990
 4609TIP3    H213769   2.891   2.873   4.875
 4610TIP3   OH213770   7.628   1.149   0.924
 4610TIP3    H113771   7.581   1.074   0.961
 4610TIP3    H213772   7.627   1.214   0.994
 4611TIP3   OH213773   2.918   1.926   0.701
 4611TIP3    H113774   2.846   1.986   0.717
 4611TIP3    H213775   2.973   1.970   0.636
 4612TIP3   OH213776   1.792   4.609   0.901
 4612TIP3    H113777   1.786   4.515   0.920
 4612TIP3    H213778   1.703   4.633   0.876
 4613TIP3   OH213779   2.909   2.447   6.618
 4613TIP3    H113780   2.950   2.401   6.690
 4613TIP3    H213781   2.980   2.461   6.555
 4614TIP3   OH213782   6.897   1.199   1.433
 4614TIP3    H113783   6.872   1.181   1.342
 4614TIP3    H213784   6.989   1.172   1.438
 4615TIP3   OH213785   3.270   2.836   0.389
 4615TIP3    H113786   3.305   2.794   0.468
 4615TIP3    H213787   3.328   2.910   0.373
 4616TIP3   OH213788   5.347   1.010   2.122
 4616TIP3    H113789   5.329   0.972   2.036
 4616TIP3    H213790   5.321   1.102   2.114
 4617TIP3   OH213791   4.449   2.444   5.595
 4617TIP3    H113792   4.502   2.446   5.674
 4617TIP3    H213793   4.417   2.354   5.590
 4618TIP3   OH213794   8.373   3.076   3.505
 4618TIP3    H113795   8.371   2.984   3.482
 4618TIP3    H213796   8.285   3.108   3.488
 4619TIP3   OH213797   8.210   5.927  -0.008
 4619TIP3    H113798   8.239   5.978  -0.084
 4619TIP3    H213799   8.273   5.855  -0.002
 4620TIP3   OH213800   7.732   1.730   1.486
 4620TIP3    H113801   7.672   1.775   1.426
 4620TIP3    H213802   7.690   1.737   1.572
 4621TIP3   OH213803   5.146   6.141   0.784
 4621TIP3    H113804   5.055   6.140   0.813
 4621TIP3    H213805   5.197   6.144   0.864
 4622TIP3   OH213806   2.583   6.784   2.753
 4622TIP3    H113807   2.609   6.746   2.669
 4622TIP3    H213808   2.510   6.842   2.731
 4623TIP3   OH213809   2.778   5.449   3.913
 4623TIP3    H113810   2.747   5.524   3.965
 4623TIP3    H213811   2.835   5.400   3.973
 4624TIP3   OH213812   6.004   0.204   6.381
 4624TIP3    H113813   5.934   0.188   6.317
 4624TIP3    H213814   5.975   0.158   6.460
 4625TIP3   OH213815   3.597   2.374   0.090
 4625TIP3    H113816   3.690   2.379   0.067
 4625TIP3    H213817   3.588   2.290   0.135
 4626TIP3   OH213818   5.369   2.513   4.590
 4626TIP3    H113819   5.433   2.443   4.603
 4626TIP3    H213820   5.338   2.501   4.500
 4627TIP3   OH213821   1.937   2.158   4.603
 4627TIP3    H113822   2.030   2.168   4.585
 4627TIP3    H213823   1.928   2.178   4.696
 4628TIP3   OH213824   3.202   2.484   4.458
 4628TIP3    H113825   3.273   2.547   4.448
 4628TIP3    H213826   3.178   2.490   4.551
 4629TIP3   OH213827   1.401   2.652   4.633
 4629TIP3    H113828   1.393   2.590   4.706
 4629TIP3    H213829   1.366   2.604   4.558
 4630TIP3   OH213830   5.453   3.301   2.948
 4630TIP3    H113831   5.475   3.394   2.945
 4630TIP3    H213832   5.403   3.286   2.868
 4631TIP3   OH213833   6.435   5.542   0.162
 4631TIP3    H113834   6.451   5.635   0.145
 4631TIP3    H213835   6.406   5.507   0.078
 4632TIP3   OH213836   1.385   5.093   0.286
 4632TIP3    H113837   1.349   5.086   0.375
 4632TIP3    H213838   1.420   5.182   0.282
 4633TIP3   OH213839   2.310   4.475   3.544
 4633TIP3    H113840   2.363   4.506   3.470
 4633TIP3    H213841   2.361   4.498   3.621
 4634TIP3   OH213842   5.014   3.615   1.884
 4634TIP3    H113843   5.015   3.674   1.809
 4634TIP3    H213844   5.054   3.534   1.852
 4635TIP3   OH213845   1.571   4.093   5.491
 4635TIP3    H113846   1.507   4.127   5.553
 4635TIP3    H213847   1.535   4.009   5.462
 4636TIP3   OH213848   5.718   4.654   1.159
 4636TIP3    H113849   5.639   4.636   1.108
 4636TIP3    H213850   5.790   4.635   1.098
 4637TIP3   OH213851   4.915   6.184   4.372
 4637TIP3    H113852   4.924   6.117   4.440
 4637TIP3    H213853   5.005   6.201   4.343
 4638TIP3   OH213854   0.084   0.782   6.300
 4638TIP3    H113855   0.096   0.745   6.388
 4638TIP3    H213856   0.153   0.741   6.248
 4639TIP3   OH213857   6.795   6.752   2.685
 4639TIP3    H113858   6.842   6.758   2.602
 4639TIP3    H213859   6.835   6.677   2.729
 4640TIP3   OH213860   1.686   1.529   3.550
 4640TIP3    H113861   1.741   1.600   3.584
 4640TIP3    H213862   1.596   1.556   3.570
 4641TIP3   OH213863   7.636   5.169   4.630
 4641TIP3    H113864   7.548   5.181   4.594
 4641TIP3    H213865   7.628   5.095   4.690
 4642TIP3   OH213866   3.851   7.585   5.381
 4642TIP3    H113867   3.907   7.658   5.407
 4642TIP3    H213868   3.796   7.621   5.311
 4643TIP3   OH213869   7.601   3.227   4.159
 4643TIP3    H113870   7.624   3.311   4.200
 4643TIP3    H213871   7.509   3.214   4.183
 4644TIP3   OH213872   5.658   1.546   6.474
 4644TIP3    H113873   5.633   1.553   6.566
 4644TIP3    H213874   5.647   1.635   6.439
 4645TIP3   OH213875   0.800   0.650   1.653
 4645TIP3    H113876   0.798   0.608   1.739
 4645TIP3    H213877   0.839   0.736   1.669
 4646TIP3   OH213878   5.671   5.403   4.170
 4646TIP3    H113879   5.654   5.496   4.184
 4646TIP3    H213880   5.750   5.385   4.223
 4647TIP3   OH213881   4.599   4.387   1.644
 4647TIP3    H113882   4.648   4.305   1.639
 4647TIP3    H213883   4.555   4.384   1.729
 4648TIP3   OH213884   1.595   1.532   4.430
 4648TIP3    H113885   1.523   1.552   4.491
 4648TIP3    H213886   1.615   1.440   4.447
 4649TIP3   OH213887   4.860   0.879   5.362
 4649TIP3    H113888   4.946   0.915   5.340
 4649TIP3    H213889   4.808   0.892   5.283
 4650TIP3   OH213890   0.322   0.927   2.847
 4650TIP3    H113891   0.408   0.893   2.820
 4650TIP3    H213892   0.342   1.001   2.904
 4651TIP3   OH213893   1.463   2.621  -0.007
 4651TIP3    H113894   1.514   2.551   0.032
 4651TIP3    H213895   1.492   2.701   0.038
 4652TIP3   OH213896   0.765   0.441   5.392
 4652TIP3    H113897   0.672   0.442   5.415
 4652TIP3    H213898   0.780   0.526   5.349
 4653TIP3   OH213899   0.104   3.510   6.787
 4653TIP3    H113900   0.178   3.454   6.810
 4653TIP3    H213901   0.122   3.538   6.697
 4654TIP3   OH213902   3.160   4.795   4.964
 4654TIP3    H113903   3.121   4.827   4.883
 4654TIP3    H213904   3.190   4.706   4.943
 4655TIP3   OH213905   4.911   5.499   0.289
 4655TIP3    H113906   4.913   5.409   0.256
 4655TIP3    H213907   4.862   5.548   0.223
 4656TIP3   OH213908   5.147   3.831   0.167
 4656TIP3    H113909   5.076   3.787   0.214
 4656TIP3    H213910   5.130   3.811   0.075
 4657TIP3   OH213911   4.671   7.261   1.895
 4657TIP3    H113912   4.682   7.173   1.860
 4657TIP3    H213913   4.760   7.289   1.918
 4658TIP3   OH213914   2.611   3.926   6.238
 4658TIP3    H113915   2.620   3.896   6.329
 4658TIP3    H213916   2.646   4.015   6.239
 4659TIP3   OH213917   3.431   4.255   3.639
 4659TIP3    H113918   3.441   4.308   3.718
 4659TIP3    H213919   3.440   4.164   3.670
 4660TIP3   OH213920   3.484   3.646   0.318
 4660TIP3    H113921   3.435   3.617   0.241
 4660TIP3    H213922   3.469   3.579   0.384
 4661TIP3   OH213923   1.686   2.628   6.072
 4661TIP3    H113924   1.657   2.703   6.124
 4661TIP3    H213925   1.774   2.650   6.043
 4662TIP3   OH213926   5.736   1.388   3.838
 4662TIP3    H113927   5.664   1.330   3.815
 4662TIP3    H213928   5.694   1.472   3.857
 4663TIP3   OH213929   6.578   4.428   6.276
 4663TIP3    H113930   6.515   4.482   6.324
 4663TIP3    H213931   6.589   4.473   6.192
 4664TIP3   OH213932   5.534   0.208   0.082
 4664TIP3    H113933   5.568   0.250   0.003
 4664TIP3    H213934   5.449   0.249   0.096
 4665TIP3   OH213935   3.563   2.687   5.823
 4665TIP3    H113936   3.658   2.692   5.820
 4665TIP3    H213937   3.543   2.645   5.907
 4666TIP3   OH213938   0.517   2.234   1.681
 4666TIP3    H113939   0.431   2.273   1.663
 4666TIP3    H213940   0.576   2.274   1.617
 4667TIP3   OH213941   3.328   6.709   1.726
 4667TIP3    H113942   3.330   6.708   1.821
 4667TIP3    H213943   3.362   6.623   1.700
 4668TIP3   OH213944   7.406   2.834   3.615
 4668TIP3    H113945   7.444   2.850   3.528
 4668TIP3    H213946   7.466   2.771   3.656
 4669TIP3   OH213947   7.918   4.997   0.520
 4669TIP3    H113948   7.891   4.919   0.569
 4669TIP3    H213949   7.887   5.071   0.574
 4670TIP3   OH213950   1.666   5.633   2.066
 4670TIP3    H113951   1.660   5.550   2.018
 4670TIP3    H213952   1.718   5.690   2.009
 4671TIP3   OH213953   8.253   3.606   0.709
 4671TIP3    H113954   8.196   3.560   0.648
 4671TIP3    H213955   8.203   3.684   0.733
 4672TIP3   OH213956   6.221   6.811   2.014
 4672TIP3    H113957   6.172   6.735   2.046
 4672TIP3    H213958   6.153   6.873   1.984
 4673TIP3   OH213959   0.826   2.304   4.007
 4673TIP3    H113960   0.796   2.214   4.022
 4673TIP3    H213961   0.882   2.298   3.930
 4674TIP3   OH213962   6.186   6.072   2.365
 4674TIP3    H113963   6.256   6.132   2.390
 4674TIP3    H213964   6.111   6.129   2.348
 4675TIP3   OH213965   5.043   7.381   1.356
 4675TIP3    H113966   5.135   7.378   1.383
 4675TIP3    H213967   5.042   7.441   1.282
 4676TIP3   OH213968   2.177   5.241   4.395
 4676TIP3    H113969   2.221   5.325   4.406
 4676TIP3    H213970   2.207   5.209   4.310
 4677TIP3   OH213971   2.086   0.705   2.328
 4677TIP3    H113972   2.011   0.696   2.387
 4677TIP3    H213973   2.162   0.686   2.383
 4678TIP3   OH213974   1.544   1.813   1.539
 4678TIP3    H113975   1.581   1.852   1.460
 4678TIP3    H213976   1.617   1.765   1.578
 4679TIP3   OH213977   1.026   4.633   3.761
 4679TIP3    H113978   1.076   4.556   3.734
 4679TIP3    H213979   1.033   4.693   3.687
 4680TIP3   OH213980   4.691   0.726   3.998
 4680TIP3    H113981   4.708   0.670   3.922
 4680TIP3    H213982   4.718   0.814   3.969
 4681TIP3   OH213983   1.616   7.049   5.374
 4681TIP3    H113984   1.526   7.060   5.344
 4681TIP3    H213985   1.639   7.134   5.412
 4682TIP3   OH213986   6.014   7.100   3.357
 4682TIP3    H113987   5.948   7.042   3.395
 4682TIP3    H213988   6.085   7.041   3.331
 4683TIP3   OH213989   7.008   2.722   5.829
 4683TIP3    H113990   6.951   2.799   5.828
 4683TIP3    H213991   7.028   2.708   5.921
 4684TIP3   OH213992   6.393   1.812   2.823
 4684TIP3    H113993   6.348   1.852   2.897
 4684TIP3    H213994   6.454   1.750   2.863
 4685TIP3   OH213995   2.486   1.324   4.981
 4685TIP3    H113996   2.418   1.296   5.043
 4685TIP3    H213997   2.451   1.300   4.895
 4686TIP3   OH213998   8.092   5.260   0.486
 4686TIP3    H113999   8.074   5.290   0.396
 4686TIP3    H214000   8.031   5.187   0.499
 4687TIP3   OH214001   8.044   5.538   1.547
 4687TIP3    H114002   8.139   5.549   1.544
 4687TIP3    H214003   8.026   5.515   1.639
 4688TIP3   OH214004   1.896   7.491   4.496
 4688TIP3    H114005   1.886   7.549   4.420
 4688TIP3    H214006   1.844   7.533   4.565
 4689TIP3   OH214007   5.976   7.746   2.408
 4689TIP3    H114008   5.890   7.722   2.373
 4689TIP3    H214009   5.979   7.842   2.400
 4690TIP3   OH214010   5.170   7.253   4.016
 4690TIP3    H114011   5.133   7.181   3.966
 4690TIP3    H214012   5.155   7.331   3.963
 4691TIP3   OH214013   0.284   4.331   3.704
 4691TIP3    H114014   0.329   4.327   3.788
 4691TIP3    H214015   0.192   4.318   3.726
 4692TIP3   OH214016   1.259   6.300   4.627
 4692TIP3    H114017   1.288   6.371   4.571
 4692TIP3    H214018   1.239   6.228   4.567
 4693TIP3   OH214019   4.951   1.704   4.174
 4693TIP3    H114020   4.948   1.612   4.149
 4693TIP3    H214021   5.039   1.716   4.212
 4694TIP3   OH214022   0.724   3.133   4.719
 4694TIP3    H114023   0.703   3.042   4.698
 4694TIP3    H214024   0.734   3.175   4.633
 4695TIP3   OH214025   1.237   1.525   6.021
 4695TIP3    H114026   1.281   1.440   6.018
 4695TIP3    H214027   1.145   1.505   6.003
 4696TIP3   OH214028   0.878   6.800   6.299
 4696TIP3    H114029   0.804   6.825   6.355
 4696TIP3    H214030   0.952   6.791   6.360
 4697TIP3   OH214031   1.700   5.936   0.444
 4697TIP3    H114032   1.761   5.966   0.511
 4697TIP3    H214033   1.613   5.949   0.482
 4698TIP3   OH214034   1.099   7.301   4.795
 4698TIP3    H114035   1.094   7.281   4.702
 4698TIP3    H214036   1.088   7.396   4.799
 4699TIP3   OH214037   0.914   4.675   1.492
 4699TIP3    H114038   0.849   4.628   1.545
 4699TIP3    H214039   0.864   4.743   1.447
 4700TIP3   OH214040   7.646   7.009   4.212
 4700TIP3    H114041   7.576   7.051   4.261
 4700TIP3    H214042   7.628   7.030   4.120
 4701TIP3   OH214043   3.957   5.518   5.935
 4701TIP3    H114044   3.867   5.522   5.904
 4701TIP3    H214045   3.987   5.430   5.911
 4702TIP3   OH214046   2.688   1.054   3.100
 4702TIP3    H114047   2.601   1.083   3.074
 4702TIP3    H214048   2.680   1.036   3.194
 4703TIP3   OH214049   4.879   1.920   4.713
 4703TIP3    H114050   4.974   1.920   4.722
 4703TIP3    H214051   4.858   1.834   4.675
 4704TIP3   OH214052   2.690   4.125   4.723
 4704TIP3    H114053   2.728   4.053   4.774
 4704TIP3    H214054   2.670   4.192   4.789
 4705TIP3   OH214055   5.155   3.251   6.477
 4705TIP3    H114056   5.178   3.275   6.566
 4705TIP3    H214057   5.060   3.262   6.473
 4706TIP3   OH214058   1.240   1.202   2.712
 4706TIP3    H114059   1.335   1.210   2.705
 4706TIP3    H214060   1.210   1.290   2.734
 4707TIP3   OH214061   3.625   7.535   0.513
 4707TIP3    H114062   3.621   7.447   0.475
 4707TIP3    H214063   3.707   7.536   0.562
 4708TIP3   OH214064   5.738   0.238   3.031
 4708TIP3    H114065   5.806   0.290   3.075
 4708TIP3    H214066   5.773   0.150   3.027
 4709TIP3   OH214067   3.518   1.079   2.354
 4709TIP3    H114068   3.508   1.061   2.261
 4709TIP3    H214069   3.430   1.099   2.385
 4710TIP3   OH214070   8.168   0.575   0.510
 4710TIP3    H114071   8.164   0.634   0.585
 4710TIP3    H214072   8.077   0.548   0.496
 4711TIP3   OH214073   0.833   7.169   0.545
 4711TIP3    H114074   0.749   7.211   0.561
 4711TIP3    H214075   0.814   7.098   0.484
 4712TIP3   OH214076   5.809   1.177   6.818
 4712TIP3    H114077   5.837   1.209   6.732
 4712TIP3    H214078   5.717   1.154   6.806
 4713TIP3   OH214079   4.572   2.216   3.432
 4713TIP3    H114080   4.506   2.203   3.500
 4713TIP3    H214081   4.536   2.171   3.356
 4714TIP3   OH214082   4.405   4.163   5.171
 4714TIP3    H114083   4.411   4.132   5.261
 4714TIP3    H214084   4.312   4.152   5.148
 4715TIP3   OH214085   4.891   3.044   4.275
 4715TIP3    H114086   4.949   3.032   4.350
 4715TIP3    H214087   4.914   3.130   4.240
 4716TIP3   OH214088   4.097   7.204   3.770
 4716TIP3    H114089   4.126   7.134   3.829
 4716TIP3    H214090   4.135   7.283   3.807
 4717TIP3   OH214091   2.655   6.609   5.487
 4717TIP3    H114092   2.675   6.516   5.479
 4717TIP3    H214093   2.583   6.624   5.426
 4718TIP3   OH214094   2.765   5.121   6.021
 4718TIP3    H114095   2.734   5.052   5.961
 4718TIP3    H214096   2.757   5.082   6.108
 4719TIP3   OH214097   3.832   4.100   6.159
 4719TIP3    H114098   3.796   4.031   6.103
 4719TIP3    H214099   3.820   4.180   6.107
 4720TIP3   OH214100   3.535   5.649   1.247
 4720TIP3    H114101   3.609   5.599   1.281
 4720TIP3    H214102   3.550   5.739   1.277
 4721TIP3   OH214103   4.949   1.190   5.457
 4721TIP3    H114104   4.986   1.173   5.371
 4721TIP3    H214105   4.922   1.282   5.454
 4722TIP3   OH214106   2.109   4.656   3.512
 4722TIP3    H114107   2.191   4.606   3.506
 4722TIP3    H214108   2.132   4.743   3.481
 4723TIP3   OH214109   2.964   7.554   6.485
 4723TIP3    H114110   2.937   7.476   6.437
 4723TIP3    H214111   2.910   7.553   6.565
 4724TIP3   OH214112   7.682   7.601   4.889
 4724TIP3    H114113   7.764   7.595   4.840
 4724TIP3    H214114   7.614   7.603   4.823
 4725TIP3   OH214115   7.034   2.360   3.458
 4725TIP3    H114116   7.066   2.356   3.549
 4725TIP3    H214117   6.951   2.313   3.460
 4726TIP3   OH214118   3.849   4.327   0.607
 4726TIP3    H114119   3.800   4.260   0.561
 4726TIP3    H214120   3.933   4.333   0.560
 4727TIP3   OH214121   8.340   7.719   0.516
 4727TIP3    H114122   8.341   7.702   0.422
 4727TIP3    H214123   8.347   7.632   0.556
 4728TIP3   OH214124   7.182   0.147   1.899
 4728TIP3    H114125   7.187   0.213   1.968
 4728TIP3    H214126   7.092   0.151   1.867
 4729TIP3   OH214127   7.404   2.118   0.726
 4729TIP3    H114128   7.480   2.136   0.670
 4729TIP3    H214129   7.328   2.130   0.669
 4730TIP3   OH214130   2.183   6.750   3.390
 4730TIP3    H114131   2.254   6.789   3.340
 4730TIP3    H214132   2.154   6.676   3.336
 4731TIP3   OH214133   8.454   7.806   2.529
 4731TIP3    H114134   8.440   7.755   2.449
 4731TIP3    H214135   8.381   7.868   2.529
 4732TIP3   OH214136   7.746   7.236   4.917
 4732TIP3    H114137   7.777   7.275   4.999
 4732TIP3    H214138   7.651   7.250   4.918
 4733TIP3   OH214139   6.815   6.196   4.545
 4733TIP3    H114140   6.846   6.237   4.626
 4733TIP3    H214141   6.867   6.238   4.476
 4734TIP3   OH214142   1.346   3.425   3.899
 4734TIP3    H114143   1.337   3.366   3.973
 4734TIP3    H214144   1.280   3.492   3.913
 4735TIP3   OH214145   1.691   7.733   6.261
 4735TIP3    H114146   1.716   7.642   6.277
 4735TIP3    H214147   1.632   7.729   6.186
 4736TIP3   OH214148   3.283   0.713   1.641
 4736TIP3    H114149   3.368   0.688   1.676
 4736TIP3    H214150   3.288   0.690   1.548
 4737TIP3   OH214151   5.614   4.193   5.498
 4737TIP3    H114152   5.522   4.174   5.482
 4737TIP3    H214153   5.627   4.171   5.591
 4738TIP3   OH214154   3.229   3.387   3.997
 4738TIP3    H114155   3.248   3.418   4.085
 4738TIP3    H214156   3.143   3.346   4.004
 4739TIP3   OH214157   0.733   5.936   3.643
 4739TIP3    H114158   0.788   5.940   3.565
 4739TIP3    H214159   0.737   5.844   3.671
 4740TIP3   OH214160   1.504   3.433   0.292
 4740TIP3    H114161   1.433   3.432   0.355
 4740TIP3    H214162   1.510   3.525   0.264
 4741TIP3   OH214163   1.050   5.900   5.634
 4741TIP3    H114164   1.086   5.956   5.702
 4741TIP3    H214165   1.099   5.923   5.555
 4742TIP3   OH214166   4.781   0.030   4.590
 4742TIP3    H114167   4.761   0.064   4.677
 4742TIP3    H214168   4.699  -0.010   4.560
 4743TIP3   OH214169   3.364   1.532   6.541
 4743TIP3    H114170   3.384   1.468   6.473
 4743TIP3    H214171   3.278   1.506   6.574
 4744TIP3   OH214172   2.973   2.743   1.829
 4744TIP3    H114173   2.894   2.762   1.779
 4744TIP3    H214174   3.042   2.794   1.785
 4745TIP3   OH214175   4.729   5.646   4.300
 4745TIP3    H114176   4.795   5.601   4.352
 4745TIP3    H214177   4.701   5.582   4.235
 4746TIP3   OH214178   5.118   5.905   0.984
 4746TIP3    H114179   5.202   5.951   0.988
 4746TIP3    H214180   5.060   5.955   1.042
 4747TIP3   OH214181   7.938   1.832   1.046
 4747TIP3    H114182   7.885   1.878   1.111
 4747TIP3    H214183   8.024   1.874   1.051
 4748TIP3   OH214184   1.402   3.453   6.504
 4748TIP3    H114185   1.474   3.514   6.516
 4748TIP3    H214186   1.370   3.471   6.416
 4749TIP3   OH214187   7.956   6.546   0.233
 4749TIP3    H114188   7.927   6.595   0.310
 4749TIP3    H214189   8.018   6.481   0.267
 4750TIP3   OH214190   7.991   4.074   1.627
 4750TIP3    H114191   7.988   4.079   1.722
 4750TIP3    H214192   7.942   3.995   1.605
 4751TIP3   OH214193   0.462   5.535   6.741
 4751TIP3    H114194   0.388   5.503   6.689
 4751TIP3    H214195   0.534   5.542   6.679
 4752TIP3   OH214196   5.384   2.301   4.029
 4752TIP3    H114197   5.322   2.229   4.015
 4752TIP3    H214198   5.445   2.295   3.956
 4753TIP3   OH214199   6.223   6.559   1.258
 4753TIP3    H114200   6.228   6.464   1.269
 4753TIP3    H214201   6.148   6.572   1.200
 4754TIP3   OH214202   6.041   5.731   0.675
 4754TIP3    H114203   6.096   5.653   0.668
 4754TIP3    H214204   6.024   5.741   0.769
 4755TIP3   OH214205   1.103   2.198   0.676
 4755TIP3    H114206   1.071   2.133   0.738
 4755TIP3    H214207   1.107   2.152   0.592
 4756TIP3   OH214208   7.666   0.193   5.626
 4756TIP3    H114209   7.702   0.123   5.680
 4756TIP3    H214210   7.589   0.223   5.675
 4757TIP3   OH214211   5.542   3.299   5.477
 4757TIP3    H114212   5.622   3.353   5.479
 4757TIP3    H214213   5.570   3.216   5.440
 4758TIP3   OH214214   8.014   5.711   5.779
 4758TIP3    H114215   8.054   5.689   5.863
 4758TIP3    H214216   7.928   5.747   5.801
 4759TIP3   OH214217   6.568   4.144   4.586
 4759TIP3    H114218   6.605   4.219   4.540
 4759TIP3    H214219   6.473   4.158   4.581
 4760TIP3   OH214220   6.748   4.411   6.470
 4760TIP3    H114221   6.672   4.405   6.412
 4760TIP3    H214222   6.710   4.416   6.558
 4761TIP3   OH214223   0.953   7.587   2.104
 4761TIP3    H114224   1.032   7.566   2.055
 4761TIP3    H214225   0.899   7.635   2.042
 4762TIP3   OH214226   5.064   1.066   2.525
 4762TIP3    H114227   5.061   1.051   2.430
 4762TIP3    H214228   5.115   0.993   2.559
 4763TIP3   OH214229   7.722   7.337   4.260
 4763TIP3    H114230   7.786   7.322   4.330
 4763TIP3    H214231   7.775   7.338   4.180
 4764TIP3   OH214232   5.019   7.730   2.500
 4764TIP3    H114233   5.098   7.721   2.553
 4764TIP3    H214234   5.045   7.699   2.413
 4765TIP3   OH214235   4.173   0.854   4.931
 4765TIP3    H114236   4.242   0.795   4.960
 4765TIP3    H214237   4.104   0.846   4.997
 4766TIP3   OH214238   4.396   6.920   0.293
 4766TIP3    H114239   4.410   6.890   0.203
 4766TIP3    H214240   4.348   7.002   0.284
 4767TIP3   OH214241   3.529   3.625   0.987
 4767TIP3    H114242   3.604   3.684   0.984
 4767TIP3    H214243   3.548   3.565   1.059
 4768TIP3   OH214244   0.631   5.466   6.343
 4768TIP3    H114245   0.552   5.511   6.374
 4768TIP3    H214246   0.615   5.373   6.362
 4769TIP3   OH214247   4.353   3.756   5.162
 4769TIP3    H114248   4.394   3.689   5.218
 4769TIP3    H214249   4.413   3.765   5.088
 4770TIP3   OH214250   2.866   2.649   4.133
 4770TIP3    H114251   2.923   2.573   4.135
 4770TIP3    H214252   2.778   2.613   4.120
 4771TIP3   OH214253   3.055   6.014   0.030
 4771TIP3    H114254   3.097   6.074   0.092
 4771TIP3    H214255   3.125   5.989  -0.030
 4772TIP3   OH214256   4.260   0.130   5.158
 4772TIP3    H114257   4.309   0.117   5.076
 4772TIP3    H214258   4.224   0.219   5.150
 4773TIP3   OH214259   6.418   3.717   0.072
 4773TIP3    H114260   6.475   3.646   0.104
 4773TIP3    H214261   6.467   3.755  -0.001
 4774TIP3   OH214262   0.117   6.253   3.366
 4774TIP3    H114263   0.043   6.280   3.420
 4774TIP3    H214264   0.170   6.333   3.357
 4775TIP3   OH214265   7.972   6.244   1.526
 4775TIP3    H114266   8.025   6.232   1.605
 4775TIP3    H214267   8.032   6.223   1.454
 4776TIP3   OH214268   5.058   3.362   1.765
 4776TIP3    H114269   5.082   3.302   1.836
 4776TIP3    H214270   5.020   3.305   1.698
 4777TIP3   OH214271   7.516   2.356   5.380
 4777TIP3    H114272   7.512   2.354   5.476
 4777TIP3    H214273   7.523   2.449   5.358
 4778TIP3   OH214274   6.141   0.717   2.892
 4778TIP3    H114275   6.083   0.789   2.918
 4778TIP3    H214276   6.174   0.682   2.975
 4779TIP3   OH214277   2.672   2.966   5.666
 4779TIP3    H114278   2.695   3.056   5.690
 4779TIP3    H214279   2.690   2.961   5.572
 4780TIP3   OH214280   8.270   1.954   4.760
 4780TIP3    H114281   8.244   1.874   4.714
 4780TIP3    H214282   8.206   1.964   4.830
 4781TIP3   OH214283   3.402   1.740   2.987
 4781TIP3    H114284   3.318   1.694   2.986
 4781TIP3    H214285   3.465   1.676   3.019
 4782TIP3   OH214286   0.335   1.617   1.670
 4782TIP3    H114287   0.408   1.592   1.612
 4782TIP3    H214288   0.313   1.537   1.717
 4783TIP3   OH214289   6.009   7.117   1.338
 4783TIP3    H114290   6.073   7.064   1.385
 4783TIP3    H214291   5.925   7.092   1.377
 4784TIP3   OH214292   2.203   0.551   1.473
 4784TIP3    H114293   2.171   0.627   1.423
 4784TIP3    H214294   2.288   0.579   1.506
 4785TIP3   OH214295   5.896   0.988   3.580
 4785TIP3    H114296   5.941   1.022   3.502
 4785TIP3    H214297   5.896   1.062   3.641
 4786TIP3   OH214298   4.307   0.107   2.254
 4786TIP3    H114299   4.321   0.138   2.344
 4786TIP3    H214300   4.236   0.161   2.221
 4787TIP3   OH214301   0.110   2.054   5.629
 4787TIP3    H114302   0.090   2.043   5.536
 4787TIP3    H214303   0.032   2.021   5.674
 4788TIP3   OH214304   5.162   1.012   4.657
 4788TIP3    H114305   5.218   1.018   4.579
 4788TIP3    H214306   5.115   1.095   4.659
 4789TIP3   OH214307   6.734   1.648   0.499
 4789TIP3    H114308   6.700   1.562   0.523
 4789TIP3    H214309   6.729   1.699   0.580
 4790TIP3   OH214310   4.231   3.836   2.038
 4790TIP3    H114311   4.255   3.850   2.129
 4790TIP3    H214312   4.209   3.923   2.004
 4791TIP3   OH214313   7.148   7.451   0.602
 4791TIP3    H114314   7.230   7.483   0.563
 4791TIP3    H214315   7.133   7.366   0.560
 4792TIP3   OH214316   2.933   1.077   0.048
 4792TIP3    H114317   2.896   1.127  -0.025
 4792TIP3    H214318   2.910   1.129   0.125
 4793TIP3   OH214319   8.259   2.287   0.175
 4793TIP3    H114320   8.204   2.365   0.165
 4793TIP3    H214321   8.232   2.249   0.258
 4794TIP3   OH214322   6.104   6.373   5.821
 4794TIP3    H114323   6.165   6.303   5.799
 4794TIP3    H214324   6.021   6.347   5.781
 4795TIP3   OH214325   2.671   2.029   0.792
 4795TIP3    H114326   2.623   2.004   0.871
 4795TIP3    H214327   2.631   1.977   0.722
 4796TIP3   OH214328   0.717   5.669   3.712
 4796TIP3    H114329   0.758   5.640   3.793
 4796TIP3    H214330   0.719   5.592   3.655
 4797TIP3   OH214331   2.197   6.715   4.478
 4797TIP3    H114332   2.211   6.683   4.389
 4797TIP3    H214333   2.210   6.810   4.471
 4798TIP3   OH214334   4.994   6.013   2.812
 4798TIP3    H114335   4.949   6.065   2.745
 4798TIP3    H214336   5.038   6.078   2.867
 4799TIP3   OH214337   2.292   2.787   5.925
 4799TIP3    H114338   2.228   2.776   5.995
 4799TIP3    H214339   2.285   2.707   5.873
 4800TIP3   OH214340   6.558   0.117   1.819
 4800TIP3    H114341   6.489   0.056   1.845
 4800TIP3    H214342   6.635   0.089   1.868
 4801TIP3   OH214343   4.030   4.278   3.979
 4801TIP3    H114344   4.106   4.224   3.958
 4801TIP3    H214345   3.987   4.294   3.895
 4802TIP3   OH214346   1.446   5.914   3.843
 4802TIP3    H114347   1.494   5.832   3.830
 4802TIP3    H214348   1.456   5.933   3.937
 4803TIP3   OH214349   2.929   4.899   0.287
 4803TIP3    H114350   2.983   4.951   0.347
 4803TIP3    H214351   2.948   4.935   0.200
 4804TIP3   OH214352   8.211   7.004   1.656
 4804TIP3    H114353   8.172   6.932   1.606
 4804TIP3    H214354   8.166   7.001   1.740
 4805TIP3   OH214355   6.970   0.806   0.466
 4805TIP3    H114356   7.035   0.875   0.479
 4805TIP3    H214357   6.899   0.828   0.525
 4806TIP3   OH214358   7.097   1.049   2.308
 4806TIP3    H114359   7.037   1.075   2.378
 4806TIP3    H214360   7.080   1.112   2.237
 4807TIP3   OH214361   6.901   3.347   4.965
 4807TIP3    H114362   6.978   3.400   4.982
 4807TIP3    H214363   6.869   3.323   5.052
 4808TIP3   OH214364   7.064   1.088   4.313
 4808TIP3    H114365   7.116   1.011   4.291
 4808TIP3    H214366   7.127   1.160   4.316
 4809TIP3   OH214367   1.242   0.636   3.173
 4809TIP3    H114368   1.206   0.568   3.230
 4809TIP3    H214369   1.334   0.613   3.164
 4810TIP3   OH214370   6.494   2.156   2.495
 4810TIP3    H114371   6.495   2.076   2.547
 4810TIP3    H214372   6.402   2.183   2.492
 4811TIP3   OH214373   7.970   1.889   4.686
 4811TIP3    H114374   7.957   1.973   4.730
 4811TIP3    H214375   7.938   1.824   4.748
 4812TIP3   OH214376   5.833   0.052   2.333
 4812TIP3    H114377   5.841   0.050   2.238
 4812TIP3    H214378   5.833   0.145   2.355
 4813TIP3   OH214379   8.020   2.910   4.010
 4813TIP3    H114380   8.114   2.897   4.024
 4813TIP3    H214381   7.996   2.978   4.073
 4814TIP3   OH214382   5.150   7.336   0.113
 4814TIP3    H114383   5.216   7.405   0.115
 4814TIP3    H214384   5.200   7.255   0.126
 4815TIP3   OH214385   7.694   6.092   3.444
 4815TIP3    H114386   7.619   6.081   3.504
 4815TIP3    H214387   7.704   6.187   3.437
 4816TIP3   OH214388   4.559   0.736   1.927
 4816TIP3    H114389   4.647   0.702   1.945
 4816TIP3    H214390   4.559   0.824   1.963
 4817TIP3   OH214391   2.570   0.671   3.553
 4817TIP3    H114392   2.639   0.629   3.502
 4817TIP3    H214393   2.547   0.607   3.620
 4818TIP3   OH214394   1.524   4.640   1.132
 4818TIP3    H114395   1.611   4.677   1.144
 4818TIP3    H214396   1.518   4.571   1.198
 4819TIP3   OH214397   0.612   0.221   1.849
 4819TIP3    H114398   0.659   0.264   1.921
 4819TIP3    H214399   0.520   0.243   1.864
 4820TIP3   OH214400   5.540   6.797   4.309
 4820TIP3    H114401   5.586   6.760   4.384
 4820TIP3    H214402   5.579   6.754   4.233
 4821TIP3   OH214403   3.696   3.135   5.574
 4821TIP3    H114404   3.720   3.227   5.583
 4821TIP3    H214405   3.618   3.135   5.519
 4822TIP3   OH214406   5.339   0.004   0.084
 4822TIP3    H114407   5.261   0.053   0.057
 4822TIP3    H214408   5.413   0.060   0.057
 4823TIP3   OH214409   0.290   6.574   3.610
 4823TIP3    H114410   0.241   6.583   3.692
 4823TIP3    H214411   0.373   6.533   3.636
 4824TIP3   OH214412   0.240   1.089   4.458
 4824TIP3    H114413   0.153   1.073   4.496
 4824TIP3    H214414   0.298   1.100   4.534
 4825TIP3   OH214415   3.839   3.768   0.423
 4825TIP3    H114416   3.925   3.749   0.385
 4825TIP3    H214417   3.779   3.762   0.349
 4826TIP3   OH214418   7.357   2.258   4.139
 4826TIP3    H114419   7.300   2.332   4.118
 4826TIP3    H214420   7.309   2.207   4.203
 4827TIP3   OH214421   5.256   1.534   2.281
 4827TIP3    H114422   5.338   1.578   2.256
 4827TIP3    H214423   5.247   1.553   2.375
 4828TIP3   OH214424   4.141   0.694   3.647
 4828TIP3    H114425   4.090   0.616   3.668
 4828TIP3    H214426   4.208   0.663   3.585
 4829TIP3   OH214427   7.858   4.579   0.226
 4829TIP3    H114428   7.928   4.532   0.182
 4829TIP3    H214429   7.826   4.517   0.292
 4830TIP3   OH214430   7.557   5.675   0.314
 4830TIP3    H114431   7.584   5.664   0.223
 4830TIP3    H214432   7.473   5.629   0.320
 4831TIP3   OH214433   1.704   1.115   5.807
 4831TIP3    H114434   1.686   1.203   5.774
 4831TIP3    H214435   1.764   1.129   5.880
 4832TIP3   OH214436   6.800   4.700   0.668
 4832TIP3    H114437   6.706   4.690   0.682
 4832TIP3    H214438   6.840   4.653   0.741
 4833TIP3   OH214439   0.624   4.776   6.741
 4833TIP3    H114440   0.548   4.830   6.722
 4833TIP3    H214441   0.639   4.726   6.661
 4834TIP3   OH214442   1.540   0.810   3.969
 4834TIP3    H114443   1.575   0.899   3.967
 4834TIP3    H214444   1.545   0.784   4.061
 4835TIP3   OH214445   3.160   2.895   5.396
 4835TIP3    H114446   3.124   2.984   5.397
 4835TIP3    H214447   3.109   2.849   5.330
 4836TIP3   OH214448   2.098   2.496   6.198
 4836TIP3    H114449   2.073   2.546   6.120
 4836TIP3    H214450   2.185   2.529   6.220
 4837TIP3   OH214451   6.043   4.546   4.051
 4837TIP3    H114452   6.050   4.632   4.092
 4837TIP3    H214453   6.134   4.521   4.031
 4838TIP3   OH214454   3.176   1.018   0.655
 4838TIP3    H114455   3.227   1.055   0.583
 4838TIP3    H214456   3.155   1.093   0.710
 4839TIP3   OH214457   2.091   3.973   1.635
 4839TIP3    H114458   2.087   4.018   1.719
 4839TIP3    H214459   2.184   3.978   1.610
 4840TIP3   OH214460   7.408   1.329   2.370
 4840TIP3    H114461   7.415   1.260   2.304
 4840TIP3    H214462   7.498   1.352   2.390
 4841TIP3   OH214463   1.340   1.012   3.374
 4841TIP3    H114464   1.297   0.966   3.446
 4841TIP3    H214465   1.345   1.103   3.403
 4842TIP3   OH214466   4.670   3.188   6.686
 4842TIP3    H114467   4.742   3.126   6.695
 4842TIP3    H214468   4.594   3.135   6.664
 4843TIP3   OH214469   2.168   2.584   5.614
 4843TIP3    H114470   2.084   2.559   5.576
 4843TIP3    H214471   2.167   2.546   5.702
 4844TIP3   OH214472   7.674   7.892   3.403
 4844TIP3    H114473   7.702   7.941   3.326
 4844TIP3    H214474   7.697   7.801   3.384
 4845TIP3   OH214475   3.964   5.071   3.703
 4845TIP3    H114476   4.039   5.067   3.644
 4845TIP3    H214477   4.000   5.052   3.790
 4846TIP3   OH214478   5.939   2.441   6.744
 4846TIP3    H114479   6.008   2.506   6.733
 4846TIP3    H214480   5.857   2.491   6.742
 4847TIP3   OH214481   7.406   2.835   5.127
 4847TIP3    H114482   7.408   2.769   5.197
 4847TIP3    H214483   7.416   2.785   5.046
 4848TIP3   OH214484   4.050   7.460   1.165
 4848TIP3    H114485   4.130   7.407   1.169
 4848TIP3    H214486   4.046   7.504   1.250
 4849TIP3   OH214487   8.076   4.415   4.673
 4849TIP3    H114488   8.082   4.502   4.712
 4849TIP3    H214489   8.153   4.411   4.615
 4850TIP3   OH214490   6.564   0.874   3.093
 4850TIP3    H114491   6.518   0.900   3.013
 4850TIP3    H214492   6.582   0.781   3.082
 4851TIP3   OH214493   2.308   7.456   0.497
 4851TIP3    H114494   2.214   7.447   0.479
 4851TIP3    H214495   2.327   7.548   0.479
 4852TIP3   OH214496   4.749   5.107   3.535
 4852TIP3    H114497   4.669   5.075   3.576
 4852TIP3    H214498   4.733   5.200   3.519
 4853TIP3   OH214499   6.060   1.293   5.155
 4853TIP3    H114500   6.047   1.375   5.108
 4853TIP3    H214501   5.999   1.297   5.229
 4854TIP3   OH214502   7.767   7.401   6.510
 4854TIP3    H114503   7.809   7.485   6.493
 4854TIP3    H214504   7.703   7.392   6.440
 4855TIP3   OH214505   6.635   2.602   2.540
 4855TIP3    H114506   6.673   2.542   2.604
 4855TIP3    H214507   6.604   2.545   2.469
 4856TIP3   OH214508   3.810   1.778   2.405
 4856TIP3    H114509   3.860   1.827   2.471
 4856TIP3    H214510   3.731   1.749   2.452
 4857TIP3   OH214511   5.052   0.732   2.869
 4857TIP3    H114512   4.963   0.751   2.842
 4857TIP3    H214513   5.106   0.800   2.828
 4858TIP3   OH214514   7.727   7.415   3.589
 4858TIP3    H114515   7.666   7.342   3.573
 4858TIP3    H214516   7.802   7.397   3.532
 4859TIP3   OH214517   5.843   2.893   4.998
 4859TIP3    H114518   5.890   2.810   4.994
 4859TIP3    H214519   5.799   2.892   5.083
 4860TIP3   OH214520   7.614   6.849   3.400
 4860TIP3    H114521   7.666   6.930   3.398
 4860TIP3    H214522   7.533   6.874   3.444
 4861TIP3   OH214523   3.732   0.799   1.989
 4861TIP3    H114524   3.776   0.744   1.925
 4861TIP3    H214525   3.765   0.770   2.073
 4862TIP3   OH214526   6.764   1.238   1.660
 4862TIP3    H114527   6.789   1.218   1.570
 4862TIP3    H214528   6.817   1.313   1.685
 4863TIP3   OH214529   1.588   3.990   4.093
 4863TIP3    H114530   1.680   3.984   4.068
 4863TIP3    H214531   1.586   3.968   4.186
 4864TIP3   OH214532   1.512   0.953   6.369
 4864TIP3    H114533   1.556   1.000   6.298
 4864TIP3    H214534   1.438   0.909   6.326
 4865TIP3   OH214535   2.336   1.653   5.048
 4865TIP3    H114536   2.374   1.636   4.962
 4865TIP3    H214537   2.379   1.733   5.078
 4866TIP3   OH214538   4.656   7.055   2.856
 4866TIP3    H114539   4.709   7.039   2.934
 4866TIP3    H214540   4.689   6.993   2.792
 4867TIP3   OH214541   7.871   5.256   1.221
 4867TIP3    H114542   7.917   5.199   1.283
 4867TIP3    H214543   7.840   5.196   1.153
 4868TIP3   OH214544   2.368   1.394   3.582
 4868TIP3    H114545   2.441   1.353   3.629
 4868TIP3    H214546   2.359   1.480   3.623
 4869TIP3   OH214547   4.870   3.214   6.390
 4869TIP3    H114548   4.807   3.210   6.462
 4869TIP3    H214549   4.868   3.127   6.351
 4870TIP3   OH214550   4.942   6.750   3.807
 4870TIP3    H114551   4.999   6.738   3.883
 4870TIP3    H214552   4.926   6.844   3.803
 4871TIP3   OH214553   2.399   3.633   2.377
 4871TIP3    H114554   2.321   3.580   2.363
 4871TIP3    H214555   2.380   3.717   2.336
 4872TIP3   OH214556   1.463   0.909   2.903
 4872TIP3    H114557   1.461   0.816   2.883
 4872TIP3    H214558   1.550   0.938   2.873
 4873TIP3   OH214559   3.355   2.204   0.644
 4873TIP3    H114560   3.398   2.119   0.651
 4873TIP3    H214561   3.419   2.259   0.599
 4874TIP3   OH214562   6.324   3.056   2.422
 4874TIP3    H114563   6.308   2.980   2.365
 4874TIP3    H214564   6.297   3.026   2.509
 4875TIP3   OH214565   7.686   6.800   4.500
 4875TIP3    H114566   7.609   6.806   4.443
 4875TIP3    H214567   7.669   6.724   4.555
 4876TIP3   OH214568   5.025   4.387   2.892
 4876TIP3    H114569   5.042   4.333   2.969
 4876TIP3    H214570   4.965   4.455   2.923
 4877TIP3   OH214571   1.213   5.048   1.957
 4877TIP3    H114572   1.188   5.010   1.873
 4877TIP3    H214573   1.138   5.101   1.983
 4878TIP3   OH214574   6.869   0.840   6.353
 4878TIP3    H114575   6.961   0.865   6.342
 4878TIP3    H214576   6.832   0.907   6.409
 4879TIP3   OH214577   7.744   2.480   0.357
 4879TIP3    H114578   7.814   2.438   0.407
 4879TIP3    H214579   7.755   2.447   0.268
 4880TIP3   OH214580   4.398   2.679   2.371
 4880TIP3    H114581   4.392   2.642   2.283
 4880TIP3    H214582   4.439   2.610   2.423
 4881TIP3   OH214583   5.970   3.078   2.625
 4881TIP3    H114584   6.049   3.112   2.667
 4881TIP3    H214585   5.899   3.132   2.660
 4882TIP3   OH214586   3.040   2.920   4.406
 4882TIP3    H114587   3.034   2.824   4.402
 4882TIP3    H214588   2.990   2.944   4.484
 4883TIP3   OH214589   5.013   2.551   4.761
 4883TIP3    H114590   5.102   2.517   4.756
 4883TIP3    H214591   4.968   2.493   4.822
 4884TIP3   OH214592   2.430   0.431   5.349
 4884TIP3    H114593   2.361   0.497   5.341
 4884TIP3    H214594   2.440   0.417   5.443
 4885TIP3   OH214595   5.985   1.414   5.670
 4885TIP3    H114596   5.965   1.456   5.754
 4885TIP3    H214597   6.001   1.487   5.610
 4886TIP3   OH214598   7.695   4.193   3.551
 4886TIP3    H114599   7.632   4.175   3.482
 4886TIP3    H214600   7.657   4.267   3.599
 4887TIP3   OH214601   3.051   6.024   4.057
 4887TIP3    H114602   3.119   6.003   4.121
 4887TIP3    H214603   3.092   6.008   3.972
 4888TIP3   OH214604   2.266   0.141   1.243
 4888TIP3    H114605   2.215   0.219   1.265
 4888TIP3    H214606   2.354   0.160   1.275
 4889TIP3   OH214607   3.917   2.191   1.489
 4889TIP3    H114608   3.832   2.192   1.532
 4889TIP3    H214609   3.960   2.113   1.523
 4890TIP3   OH214610   6.688   1.236   2.020
 4890TIP3    H114611   6.671   1.143   2.032
 4890TIP3    H214612   6.632   1.261   1.947
 4891TIP3   OH214613   7.970   0.497   2.937
 4891TIP3    H114614   7.875   0.510   2.938
 4891TIP3    H214615   8.005   0.578   2.901
 4892TIP3   OH214616   2.866   2.606   5.636
 4892TIP3    H114617   2.795   2.604   5.571
 4892TIP3    H214618   2.829   2.652   5.711
 4893TIP3   OH214619   0.637   0.495   4.576
 4893TIP3    H114620   0.697   0.467   4.645
 4893TIP3    H214621   0.600   0.413   4.543
 4894TIP3   OH214622   0.916   7.399   0.123
 4894TIP3    H114623   1.001   7.355   0.121
 4894TIP3    H214624   0.895   7.405   0.216
 4895TIP3   OH214625   3.091   3.101   2.534
 4895TIP3    H114626   3.138   3.110   2.617
 4895TIP3    H214627   3.161   3.095   2.468
 4896TIP3   OH214628   3.704   2.630   0.392
 4896TIP3    H114629   3.717   2.612   0.485
 4896TIP3    H214630   3.621   2.587   0.371
 4897TIP3   OH214631   3.726   6.264   2.472
 4897TIP3    H114632   3.732   6.169   2.478
 4897TIP3    H214633   3.813   6.296   2.495
 4898TIP3   OH214634   1.923   3.857   2.951
 4898TIP3    H114635   1.960   3.927   3.005
 4898TIP3    H214636   1.851   3.823   3.004
 4899TIP3   OH214637   7.202   5.697   5.053
 4899TIP3    H114638   7.286   5.650   5.055
 4899TIP3    H214639   7.159   5.672   5.135
 4900TIP3   OH214640   7.963   0.841   5.687
 4900TIP3    H114641   7.972   0.865   5.779
 4900TIP3    H214642   8.042   0.874   5.646
 4901TIP3   OH214643   7.499   5.540   6.435
 4901TIP3    H114644   7.456   5.464   6.475
 4901TIP3    H214645   7.438   5.568   6.367
 4902TIP3   OH214646   2.303   6.800   6.065
 4902TIP3    H114647   2.317   6.895   6.070
 4902TIP3    H214648   2.318   6.779   5.973
 4903TIP3   OH214649   5.966   0.514   5.730
 4903TIP3    H114650   6.012   0.594   5.757
 4903TIP3    H214651   6.020   0.443   5.766
 4904TIP3   OH214652   7.084   5.651   0.406
 4904TIP3    H114653   7.076   5.729   0.462
 4904TIP3    H214654   7.045   5.678   0.322
 4905TIP3   OH214655   2.628   3.228   5.541
 4905TIP3    H114656   2.714   3.267   5.522
 4905TIP3    H214657   2.612   3.249   5.633
 4906TIP3   OH214658   7.169   6.621   0.210
 4906TIP3    H114659   7.199   6.686   0.274
 4906TIP3    H214660   7.248   6.571   0.189
 4907TIP3   OH214661   4.583   3.339   3.809
 4907TIP3    H114662   4.513   3.290   3.766
 4907TIP3    H214663   4.628   3.274   3.863
 4908TIP3   OH214664   5.958   2.198   4.689
 4908TIP3    H114665   5.929   2.151   4.611
 4908TIP3    H214666   5.883   2.197   4.748
 4909TIP3   OH214667   0.862   1.654   0.192
 4909TIP3    H114668   0.798   1.724   0.206
 4909TIP3    H214669   0.814   1.573   0.208
 4910TIP3   OH214670   1.857   6.978   4.778
 4910TIP3    H114671   1.795   7.018   4.839
 4910TIP3    H214672   1.942   7.015   4.803
 4911TIP3   OH214673   3.742   3.720   6.732
 4911TIP3    H114674   3.820   3.666   6.721
 4911TIP3    H214675   3.670   3.667   6.699
 4912TIP3   OH214676   7.857   0.796   1.468
 4912TIP3    H114677   7.935   0.791   1.413
 4912TIP3    H214678   7.787   0.758   1.414
 4913TIP3   OH214679   6.560   2.134   3.372
 4913TIP3    H114680   6.609   2.200   3.421
 4913TIP3    H214681   6.611   2.123   3.291
 4914TIP3   OH214682   3.585   0.770   0.042
 4914TIP3    H114683   3.531   0.717   0.099
 4914TIP3    H214684   3.541   0.767  -0.043
 4915TIP3   OH214685   0.792   5.612   0.558
 4915TIP3    H114686   0.712   5.625   0.610
 4915TIP3    H214687   0.787   5.680   0.491
 4916TIP3   OH214688   6.293   2.936   2.667
 4916TIP3    H114689   6.219   2.894   2.711
 4916TIP3    H214690   6.367   2.879   2.684
 4917TIP3   OH214691   1.808   6.450   3.433
 4917TIP3    H114692   1.859   6.507   3.490
 4917TIP3    H214693   1.851   6.365   3.440
 4918TIP3   OH214694   1.546   6.009   2.534
 4918TIP3    H114695   1.495   6.022   2.614
 4918TIP3    H214696   1.569   5.916   2.535
 4919TIP3   OH214697   4.122   0.786   5.573
 4919TIP3    H114698   4.044   0.789   5.517
 4919TIP3    H214699   4.158   0.875   5.568
 4920TIP3   OH214700   0.596   4.052   5.738
 4920TIP3    H114701   0.512   4.007   5.752
 4920TIP3    H214702   0.576   4.119   5.672
 4921TIP3   OH214703   5.540   4.092   5.150
 4921TIP3    H114704   5.535   4.183   5.178
 4921TIP3    H214705   5.493   4.089   5.067
 4922TIP3   OH214706   1.931   2.700   2.645
 4922TIP3    H114707   1.911   2.749   2.565
 4922TIP3    H214708   1.931   2.765   2.715
 4923TIP3   OH214709   4.673   6.999   1.814
 4923TIP3    H114710   4.624   6.953   1.882
 4923TIP3    H214711   4.742   6.938   1.788
 4924TIP3   OH214712   5.585   7.765   1.393
 4924TIP3    H114713   5.633   7.840   1.357
 4924TIP3    H214714   5.608   7.764   1.486
 4925TIP3   OH214715   4.661   0.766   5.771
 4925TIP3    H114716   4.684   0.749   5.863
 4925TIP3    H214717   4.746   0.773   5.727
 4926TIP3   OH214718   2.688   7.418   2.826
 4926TIP3    H114719   2.674   7.364   2.749
 4926TIP3    H214720   2.600   7.444   2.853
 4927TIP3   OH214721   7.284   0.153   0.148
 4927TIP3    H114722   7.335   0.210   0.092
 4927TIP3    H214723   7.320   0.065   0.133
 4928TIP3   OH214724   1.609   6.865   2.956
 4928TIP3    H114725   1.544   6.796   2.937
 4928TIP3    H214726   1.692   6.818   2.962
 4929TIP3   OH214727   0.209   2.951   1.924
 4929TIP3    H114728   0.130   2.987   1.964
 4929TIP3    H214729   0.212   2.860   1.953
 4930TIP3   OH214730   1.175   5.891   0.077
 4930TIP3    H114731   1.196   5.918   0.167
 4930TIP3    H214732   1.200   5.965   0.023
 4931TIP3   OH214733   4.811   3.579   6.386
 4931TIP3    H114734   4.765   3.552   6.466
 4931TIP3    H214735   4.754   3.645   6.346
 4932TIP3   OH214736   5.650   7.865   3.522
 4932TIP3    H114737   5.626   7.936   3.462
 4932TIP3    H214738   5.632   7.785   3.472
 4933TIP3   OH214739   4.875   1.261   0.254
 4933TIP3    H114740   4.786   1.229   0.268
 4933TIP3    H214741   4.911   1.204   0.186
 4934TIP3   OH214742   4.818   4.324   2.386
 4934TIP3    H114743   4.862   4.327   2.301
 4934TIP3    H214744   4.727   4.348   2.367
 4935TIP3   OH214745   3.657   2.742   6.736
 4935TIP3    H114746   3.578   2.734   6.682
 4935TIP3    H214747   3.637   2.693   6.816
 4936TIP3   OH214748   1.153   3.867   3.092
 4936TIP3    H114749   1.186   3.783   3.060
 4936TIP3    H214750   1.190   3.874   3.181
 4937TIP3   OH214751   3.051   7.266   6.894
 4937TIP3    H114752   3.030   7.211   6.969
 4937TIP3    H214753   3.010   7.222   6.819
 4938TIP3   OH214754   4.640   2.170   1.067
 4938TIP3    H114755   4.637   2.111   0.991
 4938TIP3    H214756   4.693   2.244   1.037
 4939TIP3   OH214757   3.785   2.281   3.999
 4939TIP3    H114758   3.783   2.374   4.023
 4939TIP3    H214759   3.693   2.257   3.987
 4940TIP3   OH214760   8.056   2.351   4.141
 4940TIP3    H114761   8.034   2.356   4.048
 4940TIP3    H214762   8.151   2.340   4.143
 4941TIP3   OH214763   7.787   1.662   4.053
 4941TIP3    H114764   7.751   1.710   4.128
 4941TIP3    H214765   7.710   1.642   3.999
 4942TIP3   OH214766   3.490   4.523   6.518
 4942TIP3    H114767   3.459   4.602   6.474
 4942TIP3    H214768   3.443   4.522   6.602
 4943TIP3   OH214769   2.270   4.658   5.932
 4943TIP3    H114770   2.197   4.602   5.959
 4943TIP3    H214771   2.237   4.747   5.943
 4944TIP3   OH214772   6.801   6.246   2.686
 4944TIP3    H114773   6.776   6.338   2.683
 4944TIP3    H214774   6.832   6.233   2.776
 4945TIP3   OH214775   0.863   4.356   6.259
 4945TIP3    H114776   0.863   4.424   6.327
 4945TIP3    H214777   0.952   4.321   6.260
 4946TIP3   OH214778   0.037   6.809   1.657
 4946TIP3    H114779   0.069   6.786   1.570
 4946TIP3    H214780  -0.016   6.887   1.643
 4947TIP3   OH214781   2.727   3.729   2.712
 4947TIP3    H114782   2.715   3.766   2.800
 4947TIP3    H214783   2.639   3.704   2.684
 4948TIP3   OH214784   7.225   3.412   4.610
 4948TIP3    H114785   7.209   3.505   4.626
 4948TIP3    H214786   7.139   3.377   4.587
 4949TIP3   OH214787   4.614   1.148   0.804
 4949TIP3    H114788   4.665   1.213   0.853
 4949TIP3    H214789   4.525   1.159   0.837
 4950TIP3   OH214790   7.103   2.561   3.290
 4950TIP3    H114791   7.093   2.496   3.360
 4950TIP3    H214792   7.183   2.535   3.245
 4951TIP3   OH214793   6.202   6.103   0.016
 4951TIP3    H114794   6.173   6.077   0.104
 4951TIP3    H214795   6.232   6.193   0.027
 4952TIP3   OH214796   0.897   3.741   3.701
 4952TIP3    H114797   0.805   3.735   3.674
 4952TIP3    H214798   0.894   3.739   3.797
 4953TIP3   OH214799   7.099   1.413   6.820
 4953TIP3    H114800   7.124   1.501   6.847
 4953TIP3    H214801   7.056   1.376   6.898
 4954TIP3   OH214802   6.164   4.023   3.139
 4954TIP3    H114803   6.115   3.955   3.092
 4954TIP3    H214804   6.219   4.064   3.073
 4955TIP3   OH214805   1.069   1.556   4.890
 4955TIP3    H114806   1.008   1.579   4.959
 4955TIP3    H214807   1.100   1.640   4.855
 4956TIP3   OH214808   1.295   6.506   2.199
 4956TIP3    H114809   1.212   6.554   2.195
 4956TIP3    H214810   1.341   6.544   2.274
 4957TIP3   OH214811   8.228   6.028   2.068
 4957TIP3    H114812   8.140   5.997   2.091
 4957TIP3    H214813   8.286   5.957   2.096
 4958TIP3   OH214814   7.990   7.838   3.244
 4958TIP3    H114815   7.939   7.772   3.198
 4958TIP3    H214816   7.926   7.907   3.266
 4959TIP3   OH214817   7.992   0.348   1.324
 4959TIP3    H114818   7.993   0.401   1.404
 4959TIP3    H214819   7.934   0.274   1.345
 4960TIP3   OH214820   4.710   5.061   3.273
 4960TIP3    H114821   4.655   5.135   3.298
 4960TIP3    H214822   4.747   5.029   3.355
 4961TIP3   OH214823   6.938   2.771   1.538
 4961TIP3    H114824   6.875   2.795   1.606
 4961TIP3    H214825   6.970   2.685   1.564
 4962TIP3   OH214826   1.276  -0.004   2.517
 4962TIP3    H114827   1.204   0.038   2.566
 4962TIP3    H214828   1.234  -0.037   2.437
 4963TIP3   OH214829   6.191   3.527   3.938
 4963TIP3    H114830   6.135   3.459   3.977
 4963TIP3    H214831   6.132   3.575   3.879
 4964TIP3   OH214832   7.913   3.583   4.099
 4964TIP3    H114833   7.862   3.583   4.181
 4964TIP3    H214834   7.847   3.581   4.030
 4965TIP3   OH214835   2.759   5.887   6.839
 4965TIP3    H114836   2.827   5.897   6.772
 4965TIP3    H214837   2.707   5.967   6.833
 4966TIP3   OH214838   6.876   0.793   2.878
 4966TIP3    H114839   6.911   0.705   2.894
 4966TIP3    H214840   6.934   0.851   2.927
 4967TIP3   OH214841   1.534   2.787   1.490
 4967TIP3    H114842   1.602   2.759   1.551
 4967TIP3    H214843   1.581   2.805   1.409
 4968TIP3   OH214844   2.454   1.128   6.324
 4968TIP3    H114845   2.378   1.150   6.378
 4968TIP3    H214846   2.426   1.053   6.271
 4969TIP3   OH214847   7.052   1.306   2.873
 4969TIP3    H114848   7.141   1.336   2.890
 4969TIP3    H214849   7.056   1.269   2.784
 4970TIP3   OH214850   5.930   7.364   1.243
 4970TIP3    H114851   5.973   7.284   1.273
 4970TIP3    H214852   5.928   7.356   1.148
 4971TIP3   OH214853   6.386   2.096   5.494
 4971TIP3    H114854   6.419   2.139   5.415
 4971TIP3    H214855   6.294   2.125   5.500
 4972TIP3   OH214856   7.973   4.006   1.305
 4972TIP3    H114857   8.006   4.004   1.395
 4972TIP3    H214858   7.951   3.915   1.286
 4973TIP3   OH214859   4.363   3.045   3.305
 4973TIP3    H114860   4.445   3.065   3.260
 4973TIP3    H214861   4.326   3.131   3.327
 4974TIP3   OH214862   2.344   6.731   2.070
 4974TIP3    H114863   2.352   6.707   1.977
 4974TIP3    H214864   2.298   6.657   2.110
 4975TIP3   OH214865   1.523   3.285   2.956
 4975TIP3    H114866   1.619   3.283   2.961
 4975TIP3    H214867   1.494   3.258   3.043
 4976TIP3   OH214868   7.266   0.752   0.813
 4976TIP3    H114869   7.326   0.827   0.819
 4976TIP3    H214870   7.186   0.782   0.856
 4977TIP3   OH214871   4.771   3.647   4.668
 4977TIP3    H114872   4.683   3.610   4.664
 4977TIP3    H214873   4.783   3.690   4.583
 4978TIP3   OH214874   8.070   3.704   5.591
 4978TIP3    H114875   8.077   3.629   5.533
 4978TIP3    H214876   8.075   3.668   5.679
 4979TIP3   OH214877   6.445   7.089   2.971
 4979TIP3    H114878   6.443   7.173   3.017
 4979TIP3    H214879   6.359   7.084   2.928
 4980TIP3   OH214880   7.463   4.896   5.795
 4980TIP3    H114881   7.508   4.853   5.722
 4980TIP3    H214882   7.452   4.986   5.766
 4981TIP3   OH214883   2.809   6.615   4.622
 4981TIP3    H114884   2.787   6.702   4.656
 4981TIP3    H214885   2.738   6.558   4.654
 4982TIP3   OH214886   4.048   1.769   0.793
 4982TIP3    H114887   3.968   1.721   0.773
 4982TIP3    H214888   4.117   1.702   0.787
 4983TIP3   OH214889   5.157   7.440   6.420
 4983TIP3    H114890   5.214   7.504   6.462
 4983TIP3    H214891   5.190   7.435   6.330
 4984TIP3   OH214892   7.143   0.936   6.368
 4984TIP3    H114893   7.201   0.896   6.303
 4984TIP3    H214894   7.089   0.997   6.317
 4985TIP3   OH214895  -0.003   3.375   0.715
 4985TIP3    H114896   0.001   3.347   0.806
 4985TIP3    H214897  -0.030   3.467   0.719
 4986TIP3   OH214898   5.215   5.336   4.888
 4986TIP3    H114899   5.178   5.423   4.875
 4986TIP3    H214900   5.142   5.276   4.874
 4987TIP3   OH214901   2.341   2.945   3.945
 4987TIP3    H114902   2.249   2.957   3.970
 4987TIP3    H214903   2.360   3.020   3.888
 4988TIP3   OH214904   1.614   0.361   0.897
 4988TIP3    H114905   1.662   0.335   0.976
 4988TIP3    H214906   1.673   0.338   0.825
 4989TIP3   OH214907   7.166   0.724   2.650
 4989TIP3    H114908   7.217   0.647   2.626
 4989TIP3    H214909   7.184   0.736   2.744
 4990TIP3   OH214910   3.453   1.681   1.094
 4990TIP3    H114911   3.410   1.760   1.062
 4990TIP3    H214912   3.479   1.634   1.015
 4991TIP3   OH214913   1.554   7.839   3.634
 4991TIP3    H114914   1.513   7.754   3.648
 4991TIP3    H214915   1.647   7.819   3.625
 4992TIP3   OH214916   5.460   6.505   0.419
 4992TIP3    H114917   5.387   6.460   0.461
 4992TIP3    H214918   5.445   6.493   0.325
 4993TIP3   OH214919   4.363   3.657   4.762
 4993TIP3    H114920   4.335   3.641   4.671
 4993TIP3    H214921   4.281   3.663   4.811
 4994TIP3   OH214922   6.613   7.056   0.733
 4994TIP3    H114923   6.528   7.092   0.761
 4994TIP3    H214924   6.655   7.030   0.815
 4995TIP3   OH214925   2.166   2.997   2.638
 4995TIP3    H114926   2.078   3.034   2.631
 4995TIP3    H214927   2.218   3.066   2.680
 4996TIP3   OH214928   3.929   0.590   3.916
 4996TIP3    H114929   3.864   0.660   3.907
 4996TIP3    H214930   3.926   0.544   3.832
 4997TIP3   OH214931   7.918   5.368   0.979
 4997TIP3    H114932   7.938   5.461   0.970
 4997TIP3    H214933   7.903   5.356   1.073
 4998TIP3   OH214934   8.195   7.702   4.745
 4998TIP3    H114935   8.244   7.703   4.663
 4998TIP3    H214936   8.178   7.794   4.765
 4999TIP3   OH214937   2.672   2.443   3.766
 4999TIP3    H114938   2.731   2.368   3.777
 4999TIP3    H214939   2.667   2.456   3.671
 5000TIP3   OH214940   8.262   6.820   6.083
 5000TIP3    H114941   8.263   6.899   6.030
 5000TIP3    H214942   8.323   6.760   6.039
 5001TIP3   OH214943   0.067   6.389   4.976
 5001TIP3    H114944   0.044   6.340   4.897
 5001TIP3    H214945  -0.015   6.396   5.024
 5002TIP3   OH214946   6.289   5.374   4.693
 5002TIP3    H114947   6.312   5.413   4.778
 5002TIP3    H214948   6.202   5.336   4.707
 5003TIP3   OH214949   7.827   7.630   2.625
 5003TIP3    H114950   7.821   7.638   2.720
 5003TIP3    H214951   7.859   7.540   2.611
 5004TIP3   OH214952   3.059   5.362   3.938
 5004TIP3    H114953   3.073   5.407   4.021
 5004TIP3    H214954   3.084   5.426   3.871
 5005TIP3   OH214955   7.731   7.603   0.923
 5005TIP3    H114956   7.692   7.689   0.937
 5005TIP3    H214957   7.770   7.580   1.007
 5006TIP3   OH214958   7.584   1.846   0.797
 5006TIP3    H114959   7.547   1.882   0.878
 5006TIP3    H214960   7.535   1.765   0.781
 5007TIP3   OH214961   5.837   1.575   3.454
 5007TIP3    H114962   5.815   1.616   3.538
 5007TIP3    H214963   5.796   1.631   3.389
 5008TIP3   OH214964   2.090   3.933   2.513
 5008TIP3    H114965   2.077   3.965   2.423
 5008TIP3    H214966   2.030   3.859   2.521
 5009TIP3   OH214967   8.243   6.853   0.084
 5009TIP3    H114968   8.204   6.860   0.171
 5009TIP3    H214969   8.262   6.760   0.074
 5010TIP3   OH214970   7.450   4.158   3.334
 5010TIP3    H114971   7.383   4.096   3.307
 5010TIP3    H214972   7.403   4.224   3.385
 5011TIP3   OH214973   2.025   0.966   2.548
 5011TIP3    H114974   2.090   1.023   2.507
 5011TIP3    H214975   1.957   1.026   2.579
 5012TIP3   OH214976   8.286   6.353   6.390
 5012TIP3    H114977   8.286   6.422   6.324
 5012TIP3    H214978   8.361   6.298   6.367
 5013TIP3   OH214979   3.898   7.183   0.145
 5013TIP3    H114980   3.925   7.154   0.058
 5013TIP3    H214981   3.823   7.240   0.129
 5014TIP3   OH214982   0.474   5.233   1.024
 5014TIP3    H114983   0.515   5.214   0.940
 5014TIP3    H214984   0.389   5.272   1.001
 5015TIP3   OH214985   1.753   5.338   5.532
 5015TIP3    H114986   1.756   5.243   5.542
 5015TIP3    H214987   1.794   5.354   5.446
 5016TIP3   OH214988   0.506   4.067   6.488
 5016TIP3    H114989   0.599   4.050   6.504
 5016TIP3    H214990   0.476   4.115   6.565
 5017TIP3   OH214991   4.136   0.534   6.580
 5017TIP3    H114992   4.144   0.443   6.550
 5017TIP3    H214993   4.047   0.560   6.556
 5018TIP3   OH214994   6.355   2.823   5.434
 5018TIP3    H114995   6.396   2.749   5.479
 5018TIP3    H214996   6.288   2.784   5.378
 5019TIP3   OH214997   4.334   7.357   2.911
 5019TIP3    H114998   4.421   7.321   2.927
 5019TIP3    H214999   4.283   7.330   2.987
 5020TIP3   OH215000   3.816   1.540   1.807
 5020TIP3    H115001   3.875   1.587   1.866
 5020TIP3    H215002   3.847   1.562   1.720
 5021TIP3   OH215003   7.915   1.415   4.396
 5021TIP3    H115004   7.919   1.432   4.302
 5021TIP3    H215005   7.861   1.486   4.430
 5022TIP3   OH215006   4.462   2.372   2.396
 5022TIP3    H115007   4.425   2.378   2.484
 5022TIP3    H215008   4.393   2.336   2.342
 5023TIP3   OH215009   2.675   3.245   3.800
 5023TIP3    H115010   2.739   3.213   3.865
 5023TIP3    H215011   2.709   3.214   3.716
 5024TIP3   OH215012   6.110   5.075   1.523
 5024TIP3    H115013   6.156   5.112   1.448
 5024TIP3    H215014   6.082   4.988   1.494
 5025TIP3   OH215015   5.290   7.801   2.843
 5025TIP3    H115016   5.371   7.843   2.872
 5025TIP3    H215017   5.278   7.832   2.754
 5026TIP3   OH215018   6.770   3.703   3.611
 5026TIP3    H115019   6.785   3.730   3.520
 5026TIP3    H215020   6.826   3.626   3.622
 5027TIP3   OH215021   4.974   6.717   0.308
 5027TIP3    H115022   4.927   6.637   0.288
 5027TIP3    H215023   5.011   6.745   0.224
 5028TIP3   OH215024   7.090   4.044   3.815
 5028TIP3    H115025   6.995   4.048   3.802
 5028TIP3    H215026   7.126   4.087   3.737
 5029TIP3   OH215027   4.251   6.003   5.118
 5029TIP3    H115028   4.215   5.936   5.176
 5029TIP3    H215029   4.215   5.982   5.032
 5030TIP3   OH215030   3.055   4.082   0.215
 5030TIP3    H115031   2.994   4.090   0.288
 5030TIP3    H215032   3.025   4.005   0.167
 5031TIP3   OH215033   2.280   6.053   5.598
 5031TIP3    H115034   2.351   6.114   5.617
 5031TIP3    H215035   2.228   6.049   5.678
 5032TIP3   OH215036   2.862   6.378   5.413
 5032TIP3    H115037   2.811   6.386   5.332
 5032TIP3    H215038   2.811   6.318   5.467
 5033TIP3   OH215039   8.129   3.224   2.431
 5033TIP3    H115040   8.209   3.251   2.474
 5033TIP3    H215041   8.135   3.261   2.343
 5034TIP3   OH215042   4.521   0.418   1.619
 5034TIP3    H115043   4.454   0.429   1.685
 5034TIP3    H215044   4.599   0.459   1.656
 5035TIP3   OH215045   1.723   3.803   0.966
 5035TIP3    H115046   1.650   3.863   0.979
 5035TIP3    H215047   1.729   3.793   0.871
 5036TIP3   OH215048   0.544   4.744   5.188
 5036TIP3    H115049   0.466   4.728   5.240
 5036TIP3    H215050   0.559   4.838   5.197
 5037TIP3   OH215051   3.456   4.216   6.420
 5037TIP3    H115052   3.447   4.186   6.511
 5037TIP3    H215053   3.506   4.297   6.427
 5038TIP3   OH215054   8.082   3.760   1.543
 5038TIP3    H115055   8.168   3.761   1.500
 5038TIP3    H215056   8.089   3.690   1.609
 5039TIP3   OH215057   0.142   2.063   3.434
 5039TIP3    H115058   0.090   2.022   3.365
 5039TIP3    H215059   0.104   2.028   3.515
 5040TIP3   OH215060   8.235   1.742   5.007
 5040TIP3    H115061   8.146   1.738   4.971
 5040TIP3    H215062   8.238   1.825   5.053
 5041TIP3   OH215063   7.983   1.213   0.980
 5041TIP3    H115064   8.051   1.275   1.006
 5041TIP3    H215065   7.926   1.264   0.922
 5042TIP3   OH215066   0.619   7.759   2.139
 5042TIP3    H115067   0.681   7.824   2.171
 5042TIP3    H215068   0.614   7.694   2.209
 5043TIP3   OH215069   8.325   3.368   5.839
 5043TIP3    H115070   8.347   3.276   5.821
 5043TIP3    H215071   8.353   3.414   5.760
 5044TIP3   OH215072   2.662   3.967   0.938
 5044TIP3    H115073   2.668   4.063   0.930
 5044TIP3    H215074   2.660   3.936   0.848
 5045TIP3   OH215075   0.364   3.071   5.879
 5045TIP3    H115076   0.349   2.987   5.835
 5045TIP3    H215077   0.316   3.063   5.962
 5046TIP3   OH215078   6.013   6.710   3.177
 5046TIP3    H115079   6.097   6.716   3.224
 5046TIP3    H215080   5.972   6.795   3.190
 5047TIP3   OH215081   2.179   1.686   1.703
 5047TIP3    H115082   2.118   1.640   1.760
 5047TIP3    H215083   2.251   1.624   1.690
 5048TIP3   OH215084   7.010   5.876   3.543
 5048TIP3    H115085   7.024   5.801   3.484
 5048TIP3    H215086   6.952   5.842   3.611
 5049TIP3   OH215087   2.486   2.468   3.252
 5049TIP3    H115088   2.486   2.458   3.347
 5049TIP3    H215089   2.562   2.522   3.233
 5050TIP3   OH215090   5.789   6.705   5.360
 5050TIP3    H115091   5.758   6.629   5.311
 5050TIP3    H215092   5.866   6.673   5.407
 5051TIP3   OH215093   1.485   3.495   2.775
 5051TIP3    H115094   1.576   3.526   2.779
 5051TIP3    H215095   1.487   3.411   2.821
 5052TIP3   OH215096   1.441   7.425   5.321
 5052TIP3    H115097   1.503   7.476   5.373
 5052TIP3    H215098   1.494   7.363   5.273
 5053TIP3   OH215099   4.955   5.711   1.196
 5053TIP3    H115100   4.904   5.635   1.167
 5053TIP3    H215101   4.906   5.787   1.162
 5054TIP3   OH215102   6.097   1.073   1.150
 5054TIP3    H115103   6.134   1.080   1.062
 5054TIP3    H215104   6.140   1.142   1.200
 5055TIP3   OH215105   0.334   7.695   4.540
 5055TIP3    H115106   0.293   7.708   4.455
 5055TIP3    H215107   0.377   7.610   4.534
 5056TIP3   OH215108   7.820   7.932   2.455
 5056TIP3    H115109   7.745   7.873   2.445
 5056TIP3    H215110   7.786   8.007   2.503
 5057TIP3   OH215111   8.128   2.119   1.073
 5057TIP3    H115112   8.180   2.042   1.095
 5057TIP3    H215113   8.182   2.169   1.012
 5058TIP3   OH215114   4.315   1.373   5.155
 5058TIP3    H115115   4.334   1.466   5.142
 5058TIP3    H215116   4.236   1.372   5.208
 5059TIP3   OH215117   7.587   7.860   5.496
 5059TIP3    H115118   7.597   7.912   5.416
 5059TIP3    H215119   7.646   7.785   5.483
 5060TIP3   OH215120   1.971   2.139   1.784
 5060TIP3    H115121   1.971   2.164   1.691
 5060TIP3    H215122   2.040   2.073   1.791
 5061TIP3   OH215123   2.727   3.905   0.388
 5061TIP3    H115124   2.652   3.925   0.445
 5061TIP3    H215125   2.688   3.881   0.304
 5062TIP3   OH215126   5.174   7.756   0.073
 5062TIP3    H115127   5.219   7.824   0.123
 5062TIP3    H215128   5.210   7.674   0.107
 5063TIP3   OH215129   3.497   6.747   2.784
 5063TIP3    H115130   3.419   6.786   2.746
 5063TIP3    H215131   3.498   6.779   2.874
 5064TIP3   OH215132   4.975   0.753   2.402
 5064TIP3    H115133   4.954   0.671   2.358
 5064TIP3    H215134   5.065   0.772   2.374
 5065TIP3   OH215135   6.800   2.616   2.239
 5065TIP3    H115136   6.800   2.649   2.329
 5065TIP3    H215137   6.720   2.564   2.232
 5066TIP3   OH215138   0.853   0.346   6.370
 5066TIP3    H115139   0.932   0.324   6.320
 5066TIP3    H215140   0.786   0.359   6.303
 5067TIP3   OH215141   4.930   2.602   0.123
 5067TIP3    H115142   4.868   2.590   0.052
 5067TIP3    H215143   4.881   2.582   0.203
 5068TIP3   OH215144   7.466   5.162   0.404
 5068TIP3    H115145   7.420   5.096   0.455
 5068TIP3    H215146   7.403   5.232   0.391
 5069TIP3   OH215147   4.387   2.503   0.680
 5069TIP3    H115148   4.311   2.476   0.629
 5069TIP3    H215149   4.383   2.599   0.680
 5070TIP3   OH215150   5.084   5.502   1.441
 5070TIP3    H115151   5.124   5.418   1.420
 5070TIP3    H215152   5.155   5.566   1.429
 5071TIP3   OH215153   5.510   1.699   2.669
 5071TIP3    H115154   5.486   1.783   2.707
 5071TIP3    H215155   5.589   1.719   2.617
 5072TIP3   OH215156   6.672   4.691   6.861
 5072TIP3    H115157   6.582   4.658   6.863
 5072TIP3    H215158   6.725   4.620   6.898
 5073TIP3   OH215159   5.291   0.096   2.855
 5073TIP3    H115160   5.246   0.035   2.797
 5073TIP3    H215161   5.371   0.051   2.880
 5074TIP3   OH215162   6.151   4.415   5.182
 5074TIP3    H115163   6.077   4.456   5.227
 5074TIP3    H215164   6.138   4.322   5.196
 5075TIP3   OH215165   3.344   2.847   2.502
 5075TIP3    H115166   3.431   2.808   2.508
 5075TIP3    H215167   3.347   2.898   2.421
 5076TIP3   OH215168   5.699   5.740   6.540
 5076TIP3    H115169   5.701   5.773   6.630
 5076TIP3    H215170   5.644   5.803   6.493
 5077TIP3   OH215171   2.399   3.069   0.800
 5077TIP3    H115172   2.381   3.088   0.708
 5077TIP3    H215173   2.453   3.143   0.830
 5078TIP3   OH215174   0.058   0.923   2.698
 5078TIP3    H115175   0.095   0.845   2.654
 5078TIP3    H215176   0.113   0.934   2.776
 5079TIP3   OH215177   4.942   2.845   1.317
 5079TIP3    H115178   5.008   2.870   1.252
 5079TIP3    H215179   4.861   2.883   1.285
 5080TIP3   OH215180   0.392   6.576   0.102
 5080TIP3    H115181   0.400   6.623   0.185
 5080TIP3    H215182   0.478   6.536   0.088
 5081TIP3   OH215183   5.341   2.465   4.311
 5081TIP3    H115184   5.431   2.453   4.282
 5081TIP3    H215185   5.288   2.450   4.233
 5082TIP3   OH215186   5.046   6.626   5.218
 5082TIP3    H115187   5.053   6.720   5.233
 5082TIP3    H215188   5.015   6.618   5.128
 5083TIP3   OH215189   1.315   5.422   3.078
 5083TIP3    H115190   1.344   5.331   3.081
 5083TIP3    H215191   1.272   5.431   2.993
 5084TIP3   OH215192   4.100   5.568   5.025
 5084TIP3    H115193   4.011   5.572   4.993
 5084TIP3    H215194   4.129   5.479   5.005
 5085TIP3   OH215195   2.264   0.847   3.944
 5085TIP3    H115196   2.265   0.783   4.015
 5085TIP3    H215197   2.250   0.795   3.865
 5086TIP3   OH215198   4.443   3.777   3.007
 5086TIP3    H115199   4.410   3.706   3.062
 5086TIP3    H215200   4.456   3.736   2.921
 5087TIP3   OH215201   3.674   2.078   6.853
 5087TIP3    H115202   3.709   2.163   6.879
 5087TIP3    H215203   3.580   2.092   6.845
 5088TIP3   OH215204   2.785   4.050   2.088
 5088TIP3    H115205   2.831   4.102   2.154
 5088TIP3    H215206   2.780   4.107   2.012
 5089TIP3   OH215207   5.112   1.980   1.114
 5089TIP3    H115208   5.075   1.908   1.062
 5089TIP3    H215209   5.104   1.950   1.205
 5090TIP3   OH215210   5.722   6.032   1.227
 5090TIP3    H115211   5.748   6.045   1.319
 5090TIP3    H215212   5.628   6.018   1.231
 5091TIP3   OH215213   4.612   3.786   6.466
 5091TIP3    H115214   4.673   3.845   6.511
 5091TIP3    H215215   4.577   3.731   6.536
 5092TIP3   OH215216   7.241   5.941   4.966
 5092TIP3    H115217   7.216   5.853   4.994
 5092TIP3    H215218   7.167   5.996   4.993
 5093TIP3   OH215219   0.546   1.806   6.404
 5093TIP3    H115220   0.610   1.877   6.403
 5093TIP3    H215221   0.597   1.726   6.395
 5094TIP3   OH215222   1.010   0.758   4.972
 5094TIP3    H115223   0.971   0.687   4.921
 5094TIP3    H215224   0.943   0.826   4.973
 5095TIP3   OH215225   4.179   1.227   5.863
 5095TIP3    H115226   4.263   1.249   5.902
 5095TIP3    H215227   4.167   1.133   5.881
 5096TIP3   OH215228   1.953   3.631   6.613
 5096TIP3    H115229   1.865   3.642   6.649
 5096TIP3    H215230   2.008   3.690   6.665
 5097TIP3   OH215231   7.258   1.597   2.693
 5097TIP3    H115232   7.299   1.517   2.726
 5097TIP3    H215233   7.299   1.611   2.607
 5098TIP3   OH215234   6.078   1.473   1.058
 5098TIP3    H115235   6.026   1.549   1.083
 5098TIP3    H215236   6.064   1.465   0.964
 5099TIP3   OH215237   6.173   3.781   5.707
 5099TIP3    H115238   6.109   3.851   5.709
 5099TIP3    H215239   6.121   3.701   5.694
 5100TIP3   OH215240   0.812   2.920   0.173
 5100TIP3    H115241   0.741   2.981   0.154
 5100TIP3    H215242   0.779   2.835   0.146
 5101TIP3   OH215243   8.084   3.093   6.353
 5101TIP3    H115244   8.033   3.146   6.292
 5101TIP3    H215245   8.146   3.046   6.297
 5102TIP3   OH215246   4.720   2.797   1.688
 5102TIP3    H115247   4.752   2.876   1.645
 5102TIP3    H215248   4.771   2.726   1.649
 5103TIP3   OH215249   4.154   1.697   1.065
 5103TIP3    H115250   4.182   1.724   0.978
 5103TIP3    H215251   4.127   1.605   1.054
 5104TIP3   OH215252   0.827   1.101   3.576
 5104TIP3    H115253   0.889   1.099   3.503
 5104TIP3    H215254   0.819   1.009   3.604
 5105TIP3   OH215255   4.112   0.021   2.730
 5105TIP3    H115256   4.050   0.091   2.751
 5105TIP3    H215257   4.168   0.015   2.807
 5106TIP3   OH215258   5.300   3.213   4.103
 5106TIP3    H115259   5.280   3.119   4.106
 5106TIP3    H215260   5.333   3.227   4.014
 5107TIP3   OH215261   6.331   0.740   1.564
 5107TIP3    H115262   6.328   0.759   1.470
 5107TIP3    H215263   6.375   0.655   1.570
 5108TIP3   OH215264   4.417   4.780   6.073
 5108TIP3    H115265   4.489   4.784   6.010
 5108TIP3    H215266   4.390   4.688   6.074
 5109TIP3   OH215267   6.535   4.698   0.688
 5109TIP3    H115268   6.491   4.642   0.752
 5109TIP3    H215269   6.466   4.755   0.655
 5110TIP3   OH215270   5.244   2.940   4.126
 5110TIP3    H115271   5.217   2.869   4.185
 5110TIP3    H215272   5.283   2.896   4.051
 5111TIP3   OH215273   2.318   6.986   2.144
 5111TIP3    H115274   2.345   7.027   2.061
 5111TIP3    H215275   2.333   6.893   2.130
 5112TIP3   OH215276   6.048   1.786   3.662
 5112TIP3    H115277   6.139   1.814   3.663
 5112TIP3    H215278   6.049   1.700   3.705
 5113TIP3   OH215279   2.835   5.983   5.005
 5113TIP3    H115280   2.811   6.068   4.968
 5113TIP3    H215281   2.862   6.002   5.095
 5114TIP3   OH215282   2.962   4.843   3.223
 5114TIP3    H115283   3.054   4.848   3.195
 5114TIP3    H215284   2.963   4.784   3.298
 5115TIP3   OH215285   1.252   2.778   1.326
 5115TIP3    H115286   1.206   2.793   1.243
 5115TIP3    H215287   1.290   2.863   1.347
 5116TIP3   OH215288   0.980   3.404   1.577
 5116TIP3    H115289   0.977   3.487   1.625
 5116TIP3    H215290   0.988   3.337   1.645
 5117TIP3   OH215291   6.498   0.092   0.514
 5117TIP3    H115292   6.516  -0.002   0.513
 5117TIP3    H215293   6.437   0.104   0.587
 5118TIP3   OH215294   0.012   0.214   6.055
 5118TIP3    H115295   0.078   0.152   6.086
 5118TIP3    H215296  -0.047   0.225   6.129
 5119TIP3   OH215297   2.119   7.380   0.694
 5119TIP3    H115298   2.063   7.306   0.670
 5119TIP3    H215299   2.201   7.363   0.647
 5120TIP3   OH215300   3.093   7.697   5.827
 5120TIP3    H115301   3.107   7.775   5.772
 5120TIP3    H215302   3.052   7.730   5.906
 5121TIP3   OH215303   0.309   7.036   3.939
 5121TIP3    H115304   0.240   6.981   3.902
 5121TIP3    H215305   0.385   6.980   3.944
 5122TIP3   OH215306   2.094   1.904   5.934
 5122TIP3    H115307   2.029   1.922   6.002
 5122TIP3    H215308   2.155   1.978   5.940
 5123TIP3   OH215309   0.448   1.488   6.744
 5123TIP3    H115310   0.493   1.424   6.799
 5123TIP3    H215311   0.363   1.447   6.725
 5124TIP3   OH215312   6.673   5.863   5.764
 5124TIP3    H115313   6.623   5.874   5.683
 5124TIP3    H215314   6.671   5.769   5.781
 5125TIP3   OH215315   3.277   2.468   0.876
 5125TIP3    H115316   3.360   2.461   0.922
 5125TIP3    H215317   3.286   2.410   0.801
 5126TIP3   OH215318   6.742   3.951   1.825
 5126TIP3    H115319   6.793   3.888   1.876
 5126TIP3    H215320   6.696   4.003   1.891
 5127TIP3   OH215321   1.206   2.378   1.530
 5127TIP3    H115322   1.249   2.378   1.445
 5127TIP3    H215323   1.241   2.455   1.575
 5128TIP3   OH215324   4.252   6.949   2.346
 5128TIP3    H115325   4.299   6.919   2.424
 5128TIP3    H215326   4.161   6.954   2.373
 5129TIP3   OH215327   6.824   4.236   2.919
 5129TIP3    H115328   6.842   4.327   2.942
 5129TIP3    H215329   6.768   4.204   2.990
 5130TIP3   OH215330   3.094   3.802   3.953
 5130TIP3    H115331   3.115   3.742   3.881
 5130TIP3    H215332   3.006   3.835   3.932
 5131TIP3   OH215333   1.257   4.495   5.352
 5131TIP3    H115334   1.214   4.505   5.437
 5131TIP3    H215335   1.347   4.471   5.373
 5132TIP3   OH215336   2.882   2.643   2.081
 5132TIP3    H115337   2.925   2.696   2.014
 5132TIP3    H215338   2.915   2.554   2.066
 5133TIP3   OH215339   1.541   7.218   6.594
 5133TIP3    H115340   1.595   7.224   6.516
 5133TIP3    H215341   1.467   7.163   6.567
 5134TIP3   OH215342   2.153   2.164   5.760
 5134TIP3    H115343   2.212   2.235   5.737
 5134TIP3    H215344   2.070   2.207   5.781
 5135TIP3   OH215345   3.032   5.879   1.665
 5135TIP3    H115346   2.986   5.795   1.665
 5135TIP3    H215347   3.119   5.858   1.699
 5136TIP3   OH215348   0.368   1.972   1.821
 5136TIP3    H115349   0.434   1.954   1.887
 5136TIP3    H215350   0.320   1.889   1.813
 5137TIP3   OH215351   5.648   1.963   0.824
 5137TIP3    H115352   5.676   1.977   0.914
 5137TIP3    H215353   5.583   2.031   0.807
 5138TIP3   OH215354   1.853   6.468   0.127
 5138TIP3    H115355   1.835   6.374   0.118
 5138TIP3    H215356   1.909   6.475   0.204
 5139TIP3   OH215357   6.575   1.455   6.398
 5139TIP3    H115358   6.537   1.494   6.319
 5139TIP3    H215359   6.565   1.522   6.465
 5140TIP3   OH215360   2.732   3.348   1.738
 5140TIP3    H115361   2.663   3.304   1.689
 5140TIP3    H215362   2.696   3.358   1.826
 5141TIP3   OH215363   1.027   0.916   1.991
 5141TIP3    H115364   1.074   0.863   2.055
 5141TIP3    H215365   1.084   0.991   1.975
 5142TIP3   OH215366   0.758   5.051   5.446
 5142TIP3    H115367   0.758   5.123   5.382
 5142TIP3    H215368   0.842   5.060   5.491
 5143TIP3   OH215369   0.226   2.169   2.062
 5143TIP3    H115370   0.298   2.126   2.107
 5143TIP3    H215371   0.160   2.099   2.051
 5144TIP3   OH215372   0.416   3.226   5.232
 5144TIP3    H115373   0.354   3.274   5.175
 5144TIP3    H215374   0.502   3.249   5.198
 5145TIP3   OH215375   0.552   3.723   6.016
 5145TIP3    H115376   0.532   3.715   6.109
 5145TIP3    H215377   0.648   3.729   6.012
 5146TIP3   OH215378   3.381   0.557   4.646
 5146TIP3    H115379   3.389   0.535   4.553
 5146TIP3    H215380   3.461   0.522   4.685
 5147TIP3   OH215381   8.009   1.663   5.204
 5147TIP3    H115382   7.926   1.669   5.251
 5147TIP3    H215383   8.043   1.576   5.226
 5148TIP3   OH215384   5.061   6.431   0.759
 5148TIP3    H115385   4.995   6.363   0.772
 5148TIP3    H215386   5.012   6.507   0.729
 5149TIP3   OH215387   1.235   2.239   2.391
 5149TIP3    H115388   1.293   2.188   2.335
 5149TIP3    H215389   1.155   2.187   2.397
 5150TIP3   OH215390   5.551   4.563   0.676
 5150TIP3    H115391   5.610   4.534   0.746
 5150TIP3    H215392   5.541   4.657   0.691
 5151TIP3   OH215393   4.461   5.902   5.994
 5151TIP3    H115394   4.478   5.963   6.066
 5151TIP3    H215395   4.366   5.903   5.985
 5152TIP3   OH215396   0.313   6.899   5.924
 5152TIP3    H115397   0.261   6.877   6.002
 5152TIP3    H215398   0.255   6.882   5.850
 5153TIP3   OH215399   5.132   4.699   3.264
 5153TIP3    H115400   5.067   4.681   3.332
 5153TIP3    H215401   5.185   4.770   3.300
 5154TIP3   OH215402   2.509   7.464   4.577
 5154TIP3    H115403   2.425   7.490   4.615
 5154TIP3    H215404   2.574   7.519   4.622
 5155TIP3   OH215405   2.209   0.335   4.947
 5155TIP3    H115406   2.289   0.385   4.932
 5155TIP3    H215407   2.238   0.256   4.993
 5156TIP3   OH215408   3.740   7.456   3.199
 5156TIP3    H115409   3.701   7.523   3.142
 5156TIP3    H215410   3.748   7.499   3.284
 5157TIP3   OH215411   7.136   7.826   0.499
 5157TIP3    H115412   7.157   7.911   0.537
 5157TIP3    H215413   7.185   7.763   0.551
 5158TIP3   OH215414   1.748   5.054   0.360
 5158TIP3    H115415   1.720   5.140   0.391
 5158TIP3    H215416   1.807   5.022   0.428
 5159TIP3   OH215417   0.646   7.737   5.205
 5159TIP3    H115418   0.657   7.676   5.132
 5159TIP3    H215419   0.732   7.778   5.215
 5160TIP3   OH215420   3.886   3.462   0.960
 5160TIP3    H115421   3.974   3.425   0.973
 5160TIP3    H215422   3.827   3.389   0.980
 5161TIP3   OH215423   6.195   1.006   2.700
 5161TIP3    H115424   6.117   1.003   2.646
 5161TIP3    H215425   6.201   1.097   2.730
 5162TIP3   OH215426   4.177   0.412   5.111
 5162TIP3    H115427   4.150   0.454   5.030
 5162TIP3    H215428   4.144   0.470   5.180
 5163TIP3   OH215429   3.046   5.725   2.784
 5163TIP3    H115430   3.119   5.713   2.844
 5163TIP3    H215431   2.969   5.702   2.834
 5164TIP3   OH215432   0.522   2.786   4.125
 5164TIP3    H115433   0.578   2.863   4.132
 5164TIP3    H215434   0.528   2.758   4.034
 5165TIP3   OH215435   6.962   0.882   5.491
 5165TIP3    H115436   7.057   0.887   5.499
 5165TIP3    H215437   6.935   0.973   5.479
 5166TIP3   OH215438   1.278   0.466   2.001
 5166TIP3    H115439   1.299   0.393   1.943
 5166TIP3    H215440   1.335   0.454   2.077
 5167TIP3   OH215441   7.379   7.709   6.720
 5167TIP3    H115442   7.398   7.724   6.627
 5167TIP3    H215443   7.330   7.627   6.721
 5168TIP3   OH215444   6.978   3.877   4.219
 5168TIP3    H115445   7.019   3.838   4.297
 5168TIP3    H215446   6.960   3.967   4.244
 5169TIP3   OH215447   1.806   7.456   0.532
 5169TIP3    H115448   1.893   7.474   0.497
 5169TIP3    H215449   1.777   7.377   0.488
 5170TIP3   OH215450   7.705   3.367   6.335
 5170TIP3    H115451   7.722   3.316   6.415
 5170TIP3    H215452   7.727   3.457   6.359
 5171TIP3   OH215453   6.118   0.996   4.712
 5171TIP3    H115454   6.045   0.966   4.766
 5171TIP3    H215455   6.126   1.089   4.732
 5172TIP3   OH215456   0.300   2.915   4.244
 5172TIP3    H115457   0.343   2.854   4.184
 5172TIP3    H215458   0.368   2.937   4.308
 5173TIP3   OH215459   2.407   6.661   1.600
 5173TIP3    H115460   2.475   6.601   1.632
 5173TIP3    H215461   2.442   6.695   1.518
 5174TIP3   OH215462   3.100   6.989   4.609
 5174TIP3    H115463   3.188   6.989   4.571
 5174TIP3    H215464   3.077   6.896   4.617
 5175TIP3   OH215465   1.559   1.369   6.146
 5175TIP3    H115466   1.537   1.409   6.230
 5175TIP3    H215467   1.475   1.346   6.107
 5176TIP3   OH215468   7.955   3.540   4.620
 5176TIP3    H115469   7.889   3.513   4.683
 5176TIP3    H215470   7.913   3.609   4.569
 5177TIP3   OH215471   0.303   6.499   0.482
 5177TIP3    H115472   0.250   6.539   0.414
 5177TIP3    H215473   0.304   6.406   0.460
 5178TIP3   OH215474   1.337   1.119   0.385
 5178TIP3    H115475   1.284   1.102   0.463
 5178TIP3    H215476   1.427   1.105   0.414
 5179TIP3   OH215477   6.151   2.646   0.916
 5179TIP3    H115478   6.066   2.667   0.877
 5179TIP3    H215479   6.163   2.552   0.898
 5180TIP3   OH215480   7.097   2.700   4.613
 5180TIP3    H115481   7.088   2.658   4.528
 5180TIP3    H215482   7.192   2.711   4.625
 5181TIP3   OH215483   2.664   2.971   0.491
 5181TIP3    H115484   2.605   3.035   0.531
 5181TIP3    H215485   2.609   2.894   0.474
 5182TIP3   OH215486   3.948   4.232   6.448
 5182TIP3    H115487   3.921   4.170   6.516
 5182TIP3    H215488   4.023   4.190   6.405
 5183TIP3   OH215489   2.437   3.014   5.472
 5183TIP3    H115490   2.364   2.982   5.525
 5183TIP3    H215491   2.474   3.087   5.522
 5184TIP3   OH215492   5.236   1.105   4.013
 5184TIP3    H115493   5.215   1.030   3.958
 5184TIP3    H215494   5.332   1.106   4.017
 5185TIP3   OH215495   6.703   3.739   1.564
 5185TIP3    H115496   6.743   3.704   1.643
 5185TIP3    H215497   6.743   3.689   1.492
 5186TIP3   OH215498   0.528   7.362   2.322
 5186TIP3    H115499   0.490   7.371   2.234
 5186TIP3    H215500   0.585   7.286   2.317
 5187TIP3   OH215501   6.901   7.507   2.711
 5187TIP3    H115502   6.969   7.543   2.654
 5187TIP3    H215503   6.941   7.428   2.749
 5188TIP3   OH215504   4.964   1.049   5.715
 5188TIP3    H115505   4.960   1.135   5.672
 5188TIP3    H215506   4.880   1.008   5.695
 5189TIP3   OH215507   4.533   5.489   1.497
 5189TIP3    H115508   4.590   5.553   1.455
 5189TIP3    H215509   4.472   5.461   1.428
 5190TIP3   OH215510   7.326   2.128   2.242
 5190TIP3    H115511   7.355   2.050   2.194
 5190TIP3    H215512   7.376   2.200   2.202
 5191TIP3   OH215513   2.763   0.569   6.543
 5191TIP3    H115514   2.685   0.541   6.495
 5191TIP3    H215515   2.821   0.492   6.542
 5192TIP3   OH215516   3.173   1.635   0.192
 5192TIP3    H115517   3.187   1.729   0.202
 5192TIP3    H215518   3.230   1.610   0.121
 5193TIP3   OH215519   8.350   6.653   4.843
 5193TIP3    H115520   8.266   6.693   4.820
 5193TIP3    H215521   8.365   6.588   4.773
 5194TIP3   OH215522   2.792   3.832   6.434
 5194TIP3    H115523   2.882   3.810   6.458
 5194TIP3    H215524   2.739   3.764   6.475
 5195TIP3   OH215525   0.218   5.221   0.888
 5195TIP3    H115526   0.251   5.248   0.802
 5195TIP3    H215527   0.125   5.204   0.874
 5196TIP3   OH215528   0.051   1.138   0.919
 5196TIP3    H115529  -0.007   1.064   0.941
 5196TIP3    H215530   0.117   1.100   0.861
 5197TIP3   OH215531   2.686   3.522   0.965
 5197TIP3    H115532   2.709   3.559   0.880
 5197TIP3    H215533   2.771   3.507   1.008
 5198TIP3   OH215534   3.781   6.116   2.090
 5198TIP3    H115535   3.690   6.105   2.065
 5198TIP3    H215536   3.789   6.073   2.175
 5199TIP3   OH215537   6.311   7.558   1.789
 5199TIP3    H115538   6.265   7.557   1.705
 5199TIP3    H215539   6.280   7.637   1.833
 5200TIP3   OH215540   3.219   3.768   2.909
 5200TIP3    H115541   3.238   3.862   2.911
 5200TIP3    H215542   3.140   3.760   2.856
 5201TIP3   OH215543   7.145   1.607   4.784
 5201TIP3    H115544   7.208   1.677   4.799
 5201TIP3    H215545   7.076   1.648   4.731
 5202TIP3   OH215546   6.752   2.714   5.569
 5202TIP3    H115547   6.691   2.751   5.632
 5202TIP3    H215548   6.717   2.740   5.484
 5203TIP3   OH215549   3.864   6.914   6.035
 5203TIP3    H115550   3.938   6.892   6.092
 5203TIP3    H215551   3.844   6.832   5.989
 5204TIP3   OH215552   2.494   4.356   2.261
 5204TIP3    H115553   2.483   4.262   2.243
 5204TIP3    H215554   2.475   4.398   2.178
 5205TIP3   OH215555   6.507   2.825   0.050
 5205TIP3    H115556   6.440   2.865   0.106
 5205TIP3    H215557   6.521   2.889  -0.020
 5206TIP3   OH215558   0.445   5.013   6.629
 5206TIP3    H115559   0.437   5.016   6.724
 5206TIP3    H215560   0.380   4.949   6.601
 5207TIP3   OH215561   3.160   4.100   6.614
 5207TIP3    H115562   3.159   4.019   6.665
 5207TIP3    H215563   3.143   4.169   6.678
 5208TIP3   OH215564   7.151   4.245   5.147
 5208TIP3    H115565   7.106   4.231   5.063
 5208TIP3    H215566   7.115   4.328   5.179
 5209TIP3   OH215567   4.341   1.117   0.093
 5209TIP3    H115568   4.280   1.164   0.036
 5209TIP3    H215569   4.409   1.182   0.113
 5210TIP3   OH215570   2.054   1.552   2.539
 5210TIP3    H115571   2.125   1.569   2.601
 5210TIP3    H215572   1.977   1.592   2.579
 5211TIP3   OH215573   7.497   5.472   4.326
 5211TIP3    H115574   7.526   5.510   4.410
 5211TIP3    H215575   7.412   5.514   4.309
 5212TIP3   OH215576   3.931   0.927   4.316
 5212TIP3    H115577   3.961   1.009   4.276
 5212TIP3    H215578   3.917   0.868   4.242
 5213TIP3   OH215579   5.469   6.489   5.341
 5213TIP3    H115580   5.552   6.457   5.303
 5213TIP3    H215581   5.425   6.410   5.371
 5214TIP3   OH215582   6.395   0.944   5.987
 5214TIP3    H115583   6.429   0.990   5.910
 5214TIP3    H215584   6.472   0.927   6.041
 5215TIP3   OH215585   7.663   3.608   6.818
 5215TIP3    H115586   7.568   3.618   6.808
 5215TIP3    H215587   7.684   3.656   6.898
 5216TIP3   OH215588   5.366   0.848   3.064
 5216TIP3    H115589   5.387   0.775   3.122
 5216TIP3    H215590   5.294   0.815   3.010
 5217TIP3   OH215591   4.186   6.482   5.766
 5217TIP3    H115592   4.264   6.528   5.798
 5217TIP3    H215593   4.210   6.389   5.769
 5218TIP3   OH215594   4.382   5.072   3.385
 5218TIP3    H115595   4.402   5.136   3.317
 5218TIP3    H215596   4.349   4.996   3.337
 5219TIP3   OH215597   3.127   2.708   3.944
 5219TIP3    H115598   3.059   2.652   3.908
 5219TIP3    H215599   3.085   2.793   3.956
 5220TIP3   OH215600   4.736   7.022   6.029
 5220TIP3    H115601   4.683   7.038   6.107
 5220TIP3    H215602   4.817   6.984   6.062
 5221TIP3   OH215603   4.710   1.872   6.435
 5221TIP3    H115604   4.799   1.835   6.436
 5221TIP3    H215605   4.720   1.956   6.390
 5222TIP3   OH215606   7.004   0.448   1.035
 5222TIP3    H115607   6.937   0.499   0.991
 5222TIP3    H215608   6.959   0.370   1.066
 5223TIP3   OH215609   7.463   3.776   1.830
 5223TIP3    H115610   7.464   3.870   1.850
 5223TIP3    H215611   7.483   3.771   1.737
 5224TIP3   OH215612   0.147   1.045   6.362
 5224TIP3    H115613   0.110   0.963   6.329
 5224TIP3    H215614   0.078   1.110   6.346
 5225TIP3   OH215615   7.493   6.932   3.022
 5225TIP3    H115616   7.500   6.837   3.030
 5225TIP3    H215617   7.527   6.952   2.935
 5226TIP3   OH215618   5.081   3.149   1.928
 5226TIP3    H115619   5.024   3.181   1.998
 5226TIP3    H215620   5.060   3.056   1.920
 5227TIP3   OH215621   5.002   7.544   2.016
 5227TIP3    H115622   5.023   7.452   2.033
 5227TIP3    H215623   5.054   7.566   1.938
 5228TIP3   OH215624   5.546   3.580   6.181
 5228TIP3    H115625   5.632   3.573   6.222
 5228TIP3    H215626   5.491   3.518   6.231
 5229TIP3   OH215627   2.970   4.267   4.826
 5229TIP3    H115628   2.941   4.225   4.907
 5229TIP3    H215629   3.065   4.253   4.825
 5230TIP3   OH215630   5.760   1.100   4.083
 5230TIP3    H115631   5.687   1.086   4.143
 5230TIP3    H215632   5.801   1.181   4.114
 5231TIP3   OH215633   7.834   7.449   1.161
 5231TIP3    H115634   7.806   7.509   1.231
 5231TIP3    H215635   7.929   7.443   1.173
 5232TIP3   OH215636   3.493   5.801   0.170
 5232TIP3    H115637   3.511   5.745   0.245
 5232TIP3    H215638   3.422   5.758   0.123
 5233TIP3   OH215639   6.339   2.886   4.887
 5233TIP3    H115640   6.289   2.903   4.967
 5233TIP3    H215641   6.273   2.890   4.817
 5234TIP3   OH215642   4.095   3.859   0.566
 5234TIP3    H115643   4.106   3.917   0.490
 5234TIP3    H215644   4.047   3.912   0.630
 5235TIP3   OH215645   4.044   1.607   6.469
 5235TIP3    H115646   4.137   1.605   6.491
 5235TIP3    H215647   4.015   1.694   6.495
 5236TIP3   OH215648   2.252   7.562   1.839
 5236TIP3    H115649   2.343   7.540   1.858
 5236TIP3    H215650   2.257   7.629   1.771
 5237TIP3   OH215651   4.129   1.253   1.925
 5237TIP3    H115652   4.153   1.268   2.016
 5237TIP3    H215653   4.186   1.182   1.896
 5238TIP3   OH215654   1.399   2.901   0.738
 5238TIP3    H115655   1.400   2.924   0.645
 5238TIP3    H215656   1.433   2.812   0.742
 5239TIP3   OH215657   7.598   0.917   1.726
 5239TIP3    H115658   7.607   0.903   1.820
 5239TIP3    H215659   7.551   0.840   1.695
 5240TIP3   OH215660   2.260   5.015   4.554
 5240TIP3    H115661   2.270   5.092   4.609
 5240TIP3    H215662   2.265   5.048   4.464
 5241TIP3   OH215663   4.509   0.035   3.878
 5241TIP3    H115664   4.542   0.086   3.803
 5241TIP3    H215665   4.574  -0.034   3.890
 5242TIP3   OH215666   3.221   2.077   4.307
 5242TIP3    H115667   3.169   2.035   4.376
 5242TIP3    H215668   3.178   2.052   4.226
 5243TIP3   OH215669   5.270   5.041   0.819
 5243TIP3    H115670   5.358   5.045   0.856
 5243TIP3    H215671   5.245   5.132   0.805
 5244TIP3   OH215672   6.453   7.389   4.087
 5244TIP3    H115673   6.433   7.447   4.014
 5244TIP3    H215674   6.544   7.364   4.074
 5245TIP3   OH215675   5.893   2.072   6.725
 5245TIP3    H115676   5.847   2.090   6.643
 5245TIP3    H215677   5.863   2.141   6.785
 5246TIP3   OH215678   4.499   0.130   4.668
 5246TIP3    H115679   4.526   0.168   4.584
 5246TIP3    H215680   4.514   0.036   4.658
 5247TIP3   OH215681   3.340   6.244   3.479
 5247TIP3    H115682   3.274   6.302   3.518
 5247TIP3    H215683   3.363   6.183   3.549
 5248TIP3   OH215684   3.188   6.403   2.553
 5248TIP3    H115685   3.141   6.449   2.483
 5248TIP3    H215686   3.144   6.318   2.559
 5249TIP3   OH215687   6.566   1.720   0.935
 5249TIP3    H115688   6.487   1.748   0.980
 5249TIP3    H215689   6.542   1.638   0.892
 5250TIP3   OH215690   4.262   7.487   3.789
 5250TIP3    H115691   4.217   7.531   3.718
 5250TIP3    H215692   4.333   7.439   3.747
 5251TIP3   OH215693   7.675   0.490   3.298
 5251TIP3    H115694   7.734   0.426   3.258
 5251TIP3    H215695   7.673   0.563   3.236
 5252TIP3   OH215696   0.124   0.788   0.756
 5252TIP3    H115697   0.126   0.746   0.670
 5252TIP3    H215698   0.151   0.879   0.739
 5253TIP3   OH215699   2.481   3.821   4.252
 5253TIP3    H115700   2.575   3.839   4.260
 5253TIP3    H215701   2.446   3.840   4.339
 5254TIP3   OH215702   0.277   6.232   0.106
 5254TIP3    H115703   0.356   6.198   0.146
 5254TIP3    H215704   0.308   6.290   0.037
 5255TIP3   OH215705   2.776   0.434   0.072
 5255TIP3    H115706   2.776   0.491   0.149
 5255TIP3    H215707   2.800   0.492  -0.001
 5256TIP3   OH215708   4.362   3.260   0.406
 5256TIP3    H115709   4.457   3.248   0.398
 5256TIP3    H215710   4.326   3.173   0.387
 5257TIP3   OH215711   0.371   1.888   0.535
 5257TIP3    H115712   0.317   1.848   0.603
 5257TIP3    H215713   0.334   1.856   0.453
 5258TIP3   OH215714   3.239   5.952   6.072
 5258TIP3    H115715   3.201   5.866   6.055
 5258TIP3    H215716   3.278   5.945   6.159
 5259TIP3   OH215717   7.952   6.391   6.203
 5259TIP3    H115718   7.963   6.458   6.135
 5259TIP3    H215719   7.980   6.310   6.162
 5260TIP3   OH215720   2.039   4.680   4.830
 5260TIP3    H115721   2.022   4.718   4.743
 5260TIP3    H215722   1.963   4.624   4.846
 5261TIP3   OH215723   3.390   1.375   0.624
 5261TIP3    H115724   3.437   1.307   0.577
 5261TIP3    H215725   3.428   1.375   0.711
 5262TIP3   OH215726   5.203   4.755   5.769
 5262TIP3    H115727   5.248   4.829   5.811
 5262TIP3    H215728   5.157   4.711   5.841
 5263TIP3   OH215729   3.419   2.041   1.290
 5263TIP3    H115730   3.408   2.029   1.195
 5263TIP3    H215731   3.334   2.072   1.321
 5264TIP3   OH215732   7.066   6.868   4.525
 5264TIP3    H115733   7.073   6.946   4.471
 5264TIP3    H215734   6.976   6.838   4.512
 5265TIP3   OH215735   5.295   5.764   3.632
 5265TIP3    H115736   5.215   5.711   3.629
 5265TIP3    H215737   5.284   5.819   3.710
 5266TIP3   OH215738   4.368   1.301   0.847
 5266TIP3    H115739   4.420   1.345   0.915
 5266TIP3    H215740   4.286   1.279   0.891
 5267TIP3   OH215741   1.591   4.593   0.565
 5267TIP3    H115742   1.564   4.572   0.655
 5267TIP3    H215743   1.618   4.685   0.570
 5268TIP3   OH215744   1.061   2.656   2.133
 5268TIP3    H115745   0.991   2.649   2.197
 5268TIP3    H215746   1.115   2.578   2.148
 5269TIP3   OH215747   6.528   7.240   5.388
 5269TIP3    H115748   6.566   7.200   5.311
 5269TIP3    H215749   6.591   7.308   5.414
 5270TIP3   OH215750   8.026   5.998   5.039
 5270TIP3    H115751   8.011   5.920   4.987
 5270TIP3    H215752   8.121   5.998   5.055
 5271TIP3   OH215753   1.199   6.306   1.646
 5271TIP3    H115754   1.178   6.322   1.554
 5271TIP3    H215755   1.212   6.211   1.651
 5272TIP3   OH215756   6.119   5.559   1.959
 5272TIP3    H115757   6.034   5.521   1.940
 5272TIP3    H215758   6.154   5.506   2.031
 5273TIP3   OH215759   8.049   2.341   4.437
 5273TIP3    H115760   8.131   2.384   4.410
 5273TIP3    H215761   7.993   2.346   4.360
 5274TIP3   OH215762   3.509   5.201   3.299
 5274TIP3    H115763   3.536   5.267   3.236
 5274TIP3    H215764   3.511   5.119   3.249
 5275TIP3   OH215765   1.354   1.328   1.432
 5275TIP3    H115766   1.339   1.379   1.511
 5275TIP3    H215767   1.285   1.262   1.433
 5276TIP3   OH215768   2.624   4.694   4.923
 5276TIP3    H115769   2.650   4.646   4.844
 5276TIP3    H215770   2.705   4.703   4.973
 5277TIP3   OH215771   4.948   2.618   4.421
 5277TIP3    H115772   5.002   2.539   4.430
 5277TIP3    H215773   4.945   2.654   4.510
 5278TIP3   OH215774   7.968   2.029   3.353
 5278TIP3    H115775   7.903   2.089   3.317
 5278TIP3    H215776   7.957   2.035   3.447
 5279TIP3   OH215777   5.694   3.845   0.941
 5279TIP3    H115778   5.669   3.934   0.918
 5279TIP3    H215779   5.785   3.838   0.913
 5280TIP3   OH215780   6.629   5.118   0.111
 5280TIP3    H115781   6.713   5.072   0.119
 5280TIP3    H215782   6.625   5.145   0.020
 5281TIP3   OH215783   8.181   6.412   6.651
 5281TIP3    H115784   8.180   6.316   6.646
 5281TIP3    H215785   8.239   6.439   6.580
 5282TIP3   OH215786   5.827   5.124   2.715
 5282TIP3    H115787   5.755   5.143   2.775
 5282TIP3    H215788   5.904   5.165   2.755
 5283TIP3   OH215789   7.225   4.341   0.900
 5283TIP3    H115790   7.311   4.322   0.938
 5283TIP3    H215791   7.205   4.265   0.846
 5284TIP3   OH215792   2.014   7.894   3.113
 5284TIP3    H115793   2.087   7.847   3.074
 5284TIP3    H215794   1.936   7.851   3.077
 5285TIP3   OH215795   6.544   1.966   4.005
 5285TIP3    H115796   6.502   1.880   3.997
 5285TIP3    H215797   6.534   2.006   3.918
 5286TIP3   OH215798   2.187   3.868   2.057
 5286TIP3    H115799   2.187   3.916   2.140
 5286TIP3    H215800   2.095   3.862   2.032
 5287TIP3   OH215801   7.699   4.207   4.009
 5287TIP3    H115802   7.695   4.287   4.061
 5287TIP3    H215803   7.608   4.181   3.996
 5288TIP3   OH215804   6.528   2.767   1.814
 5288TIP3    H115805   6.525   2.716   1.895
 5288TIP3    H215806   6.455   2.829   1.822
 5289TIP3   OH215807   7.170   2.902   4.964
 5289TIP3    H115808   7.175   2.892   5.059
 5289TIP3    H215809   7.104   2.839   4.936
 5290TIP3   OH215810   4.704   1.063   5.571
 5290TIP3    H115811   4.630   1.091   5.517
 5290TIP3    H215812   4.781   1.086   5.519
 5291TIP3   OH215813   0.644   1.569   4.805
 5291TIP3    H115814   0.721   1.518   4.777
 5291TIP3    H215815   0.595   1.586   4.725
 5292TIP3   OH215816   7.093   7.393   0.923
 5292TIP3    H115817   7.157   7.352   0.865
 5292TIP3    H215818   7.080   7.481   0.887
 5293TIP3   OH215819   8.120   2.343   1.253
 5293TIP3    H115820   8.177   2.412   1.220
 5293TIP3    H215821   8.154   2.262   1.214
 5294TIP3   OH215822   1.656   0.243   2.882
 5294TIP3    H115823   1.624   0.334   2.886
 5294TIP3    H215824   1.648   0.220   2.789
 5295TIP3   OH215825   6.970   7.304   5.306
 5295TIP3    H115826   7.022   7.292   5.385
 5295TIP3    H215827   6.935   7.392   5.312
 5296TIP3   OH215828   2.200   3.417   1.216
 5296TIP3    H115829   2.178   3.333   1.257
 5296TIP3    H215830   2.290   3.406   1.186
 5297TIP3   OH215831   5.240   1.318   6.603
 5297TIP3    H115832   5.268   1.387   6.543
 5297TIP3    H215833   5.315   1.257   6.606
 5298TIP3   OH215834   3.200   1.609   4.766
 5298TIP3    H115835   3.189   1.514   4.764
 5298TIP3    H215836   3.126   1.640   4.820
 5299TIP3   OH215837   2.909   3.092   4.601
 5299TIP3    H115838   2.925   3.153   4.673
 5299TIP3    H215839   2.817   3.068   4.609
 5300TIP3   OH215840   4.128   7.193   1.396
 5300TIP3    H115841   4.181   7.194   1.475
 5300TIP3    H215842   4.183   7.233   1.329
 5301TIP3   OH215843   2.774   6.140   3.625
 5301TIP3    H115844   2.779   6.115   3.533
 5301TIP3    H215845   2.862   6.124   3.660
 5302TIP3   OH215846   5.512   2.670   3.054
 5302TIP3    H115847   5.536   2.659   2.962
 5302TIP3    H215848   5.510   2.765   3.067
 5303TIP3   OH215849   0.698   5.573   3.328
 5303TIP3    H115850   0.788   5.606   3.324
 5303TIP3    H215851   0.644   5.646   3.299
 5304TIP3   OH215852   2.390   5.939   5.919
 5304TIP3    H115853   2.377   5.948   6.014
 5304TIP3    H215854   2.304   5.960   5.881
 5305TIP3   OH215855   6.866   6.504   2.830
 5305TIP3    H115856   6.896   6.418   2.859
 5305TIP3    H215857   6.837   6.548   2.910
 5306TIP3   OH215858   2.776   6.509   4.358
 5306TIP3    H115859   2.786   6.521   4.453
 5306TIP3    H215860   2.844   6.564   4.320
 5307TIP3   OH215861   6.885   0.556   1.289
 5307TIP3    H115862   6.818   0.500   1.327
 5307TIP3    H215863   6.920   0.506   1.216
 5308TIP3   OH215864   5.325   7.874   0.763
 5308TIP3    H115865   5.413   7.908   0.746
 5308TIP3    H215866   5.284   7.942   0.818
 5309TIP3   OH215867   5.832   2.247   2.074
 5309TIP3    H115868   5.866   2.277   2.158
 5309TIP3    H215869   5.861   2.314   2.012
 5310TIP3   OH215870   3.237   5.029   0.161
 5310TIP3    H115871   3.166   5.092   0.174
 5310TIP3    H215872   3.205   4.972   0.090
 5311TIP3   OH215873   5.637   1.589   0.026
 5311TIP3    H115874   5.600   1.674   0.002
 5311TIP3    H215875   5.618   1.581   0.120
 5312TIP3   OH215876   4.756   4.521   0.945
 5312TIP3    H115877   4.732   4.435   0.912
 5312TIP3    H215878   4.706   4.531   1.026
 5313TIP3   OH215879   5.641   0.524   0.949
 5313TIP3    H115880   5.559   0.570   0.931
 5313TIP3    H215881   5.654   0.468   0.872
 5314TIP3   OH215882   2.918   4.236   6.789
 5314TIP3    H115883   2.851   4.297   6.820
 5314TIP3    H215884   2.927   4.256   6.696
 5315TIP3   OH215885   3.092   7.078   6.298
 5315TIP3    H115886   3.093   7.172   6.279
 5315TIP3    H215887   3.177   7.047   6.265
 5316TIP3   OH215888   1.135   0.483   4.031
 5316TIP3    H115889   1.167   0.461   4.118
 5316TIP3    H215890   1.118   0.399   3.989
 5317TIP3   OH215891   6.240   3.333   2.634
 5317TIP3    H115892   6.177   3.347   2.564
 5317TIP3    H215893   6.319   3.303   2.589
 5318TIP3   OH215894   3.905   3.360   0.566
 5318TIP3    H115895   3.995   3.378   0.538
 5318TIP3    H215896   3.909   3.271   0.602
 5319TIP3   OH215897   0.689   6.645   0.986
 5319TIP3    H115898   0.770   6.653   1.036
 5319TIP3    H215899   0.710   6.584   0.916
 5320TIP3   OH215900   6.865   5.834   6.829
 5320TIP3    H115901   6.885   5.857   6.738
 5320TIP3    H215902   6.815   5.908   6.863
 5321TIP3   OH215903   6.500   0.233   4.037
 5321TIP3    H115904   6.458   0.319   4.035
 5321TIP3    H215905   6.563   0.240   4.109
 5322TIP3   OH215906   8.040   1.224   3.726
 5322TIP3    H115907   8.124   1.190   3.757
 5322TIP3    H215908   7.975   1.167   3.766
 5323TIP3   OH215909   0.708   5.864   1.736
 5323TIP3    H115910   0.727   5.840   1.827
 5323TIP3    H215911   0.614   5.846   1.726
 5324TIP3   OH215912   2.899   1.555   0.521
 5324TIP3    H115913   2.981   1.512   0.543
 5324TIP3    H215914   2.924   1.627   0.463
 5325TIP3   OH215915   2.262   0.374   4.395
 5325TIP3    H115916   2.213   0.304   4.352
 5325TIP3    H215917   2.198   0.444   4.408
 5326TIP3   OH215918   6.962   2.190   0.547
 5326TIP3    H115919   6.867   2.176   0.541
 5326TIP3    H215920   6.972   2.285   0.547
 5327TIP3   OH215921   4.022   5.443   6.556
 5327TIP3    H115922   4.024   5.400   6.642
 5327TIP3    H215923   3.930   5.438   6.529
 5328TIP3   OH215924   0.730   1.216   4.085
 5328TIP3    H115925   0.802   1.237   4.145
 5328TIP3    H215926   0.773   1.180   4.007
 5329TIP3   OH215927   2.476   2.484   0.698
 5329TIP3    H115928   2.547   2.432   0.735
 5329TIP3    H215929   2.423   2.510   0.773
 5330TIP3   OH215930   5.697   0.591   5.883
 5330TIP3    H115931   5.636   0.657   5.850
 5330TIP3    H215932   5.772   0.596   5.823
 5331TIP3   OH215933   5.368   2.525   5.982
 5331TIP3    H115934   5.359   2.496   6.073
 5331TIP3    H215935   5.387   2.618   5.989
 5332TIP3   OH215936   2.306   5.111   5.833
 5332TIP3    H115937   2.228   5.056   5.840
 5332TIP3    H215938   2.273   5.201   5.833
 5333TIP3   OH215939   4.978   3.981   1.510
 5333TIP3    H115940   5.068   3.954   1.490
 5333TIP3    H215941   4.941   3.907   1.558
 5334TIP3   OH215942   7.463   2.471   0.403
 5334TIP3    H115943   7.396   2.423   0.355
 5334TIP3    H215944   7.546   2.442   0.364
 5335TIP3   OH215945   0.609   1.975   2.873
 5335TIP3    H115946   0.675   2.042   2.856
 5335TIP3    H215947   0.553   2.012   2.941
 5336TIP3   OH215948   1.591   5.824   5.121
 5336TIP3    H115949   1.610   5.782   5.037
 5336TIP3    H215950   1.567   5.913   5.099
 5337TIP3   OH215951   5.798   4.296   3.565
 5337TIP3    H115952   5.751   4.344   3.632
 5337TIP3    H215953   5.860   4.359   3.528
 5338TIP3   OH215954   0.167   3.497   3.994
 5338TIP3    H115955   0.090   3.455   4.030
 5338TIP3    H215956   0.202   3.434   3.930
 5339TIP3   OH215957   0.974   0.693   3.966
 5339TIP3    H115958   0.913   0.704   4.039
 5339TIP3    H215959   1.033   0.623   3.993
 5340TIP3   OH215960   8.063   3.099   3.164
 5340TIP3    H115961   8.115   3.145   3.099
 5340TIP3    H215962   8.119   3.028   3.195
 5341TIP3   OH215963   0.751   5.846   1.448
 5341TIP3    H115964   0.823   5.786   1.427
 5341TIP3    H215965   0.741   5.837   1.543
 5342TIP3   OH215966   5.745   5.467   2.525
 5342TIP3    H115967   5.824   5.493   2.572
 5342TIP3    H215968   5.676   5.521   2.563
 5343TIP3   OH215969   3.080   7.906   2.584
 5343TIP3    H115970   3.051   7.923   2.494
 5343TIP3    H215971   3.175   7.913   2.580
 5344TIP3   OH215972   1.244   6.544   4.498
 5344TIP3    H115973   1.179   6.524   4.432
 5344TIP3    H215974   1.282   6.627   4.470
 5345TIP3   OH215975   0.455   1.458   3.111
 5345TIP3    H115976   0.439   1.410   3.192
 5345TIP3    H215977   0.456   1.550   3.137
 5346TIP3   OH215978   5.809   7.484   0.350
 5346TIP3    H115979   5.818   7.575   0.379
 5346TIP3    H215980   5.744   7.488   0.280
 5347TIP3   OH215981   6.171   2.639   6.655
 5347TIP3    H115982   6.107   2.644   6.583
 5347TIP3    H215983   6.241   2.698   6.629
 5348TIP3   OH215984   4.854   3.854   0.860
 5348TIP3    H115985   4.875   3.794   0.931
 5348TIP3    H215986   4.876   3.941   0.894
 5349TIP3   OH215987   7.318   4.482   0.012
 5349TIP3    H115988   7.303   4.415  -0.055
 5349TIP3    H215989   7.384   4.445   0.070
 5350TIP3   OH215990   2.223   0.473   4.700
 5350TIP3    H115991   2.217   0.394   4.754
 5350TIP3    H215992   2.143   0.473   4.648
 5351TIP3   OH215993   6.756   3.754   5.856
 5351TIP3    H115994   6.773   3.739   5.763
 5351TIP3    H215995   6.661   3.765   5.862
 5352TIP3   OH215996   5.957   6.170   2.187
 5352TIP3    H115997   5.979   6.211   2.103
 5352TIP3    H215998   5.898   6.232   2.230
 5353TIP3   OH215999   0.654   2.277   4.849
 5353TIP3    H116000   0.595   2.314   4.915
 5353TIP3    H216001   0.669   2.187   4.878
 5354TIP3   OH216002   7.574   1.954   4.887
 5354TIP3    H116003   7.492   1.987   4.925
 5354TIP3    H216004   7.593   1.875   4.938
 5355TIP3   OH216005   3.418   3.876   5.248
 5355TIP3    H116006   3.462   3.820   5.313
 5355TIP3    H216007   3.366   3.936   5.301
 5356TIP3   OH216008   3.305   4.083   0.464
 5356TIP3    H116009   3.368   4.011   0.468
 5356TIP3    H216010   3.242   4.055   0.398
 5357TIP3   OH216011   5.473   7.605   5.003
 5357TIP3    H116012   5.411   7.532   5.002
 5357TIP3    H216013   5.429   7.673   4.953
 5358TIP3   OH216014   3.976   3.894   1.570
 5358TIP3    H116015   3.897   3.946   1.556
 5358TIP3    H216016   3.946   3.817   1.618
 5359TIP3   OH216017   4.110   7.254   5.947
 5359TIP3    H116018   4.099   7.342   5.910
 5359TIP3    H216019   4.037   7.245   6.008
 5360TIP3   OH216020   3.538   4.919   2.444
 5360TIP3    H116021   3.579   4.881   2.522
 5360TIP3    H216022   3.495   4.845   2.401
 5361TIP3   OH216023   3.545   1.530   3.079
 5361TIP3    H116024   3.596   1.455   3.110
 5361TIP3    H216025   3.498   1.561   3.156
 5362TIP3   OH216026   3.665   4.720   4.711
 5362TIP3    H116027   3.599   4.716   4.642
 5362TIP3    H216028   3.745   4.748   4.666
 5363TIP3   OH216029   7.402   6.751   4.004
 5363TIP3    H116030   7.469   6.817   4.021
 5363TIP3    H216031   7.412   6.688   4.075
 5364TIP3   OH216032   1.495   0.577   3.807
 5364TIP3    H116033   1.492   0.671   3.827
 5364TIP3    H216034   1.566   0.568   3.743
 5365TIP3   OH216035   4.471   4.131   5.443
 5365TIP3    H116036   4.559   4.099   5.420
 5365TIP3    H216037   4.486   4.201   5.506
 5366TIP3   OH216038   5.472   3.837   1.530
 5366TIP3    H116039   5.440   3.875   1.612
 5366TIP3    H216040   5.459   3.743   1.540
 5367TIP3   OH216041   7.963   6.045   3.936
 5367TIP3    H116042   7.945   6.112   4.002
 5367TIP3    H216043   8.014   5.978   3.983
 5368TIP3   OH216044   6.672   4.663   3.520
 5368TIP3    H116045   6.610   4.628   3.585
 5368TIP3    H216046   6.750   4.608   3.529
 5369TIP3   OH216047   0.867   4.803   5.820
 5369TIP3    H116048   0.893   4.713   5.841
 5369TIP3    H216049   0.843   4.841   5.905
 5370TIP3   OH216050   3.411   5.348   2.730
 5370TIP3    H116051   3.386   5.330   2.820
 5370TIP3    H216052   3.475   5.419   2.737
 5371TIP3   OH216053   0.965   4.578   1.049
 5371TIP3    H116054   0.931   4.575   1.138
 5371TIP3    H216055   0.909   4.519   1.000
 5372TIP3   OH216056   7.735   4.454   2.369
 5372TIP3    H116057   7.814   4.502   2.343
 5372TIP3    H216058   7.735   4.376   2.312
 5373TIP3   OH216059   1.900   4.203   1.970
 5373TIP3    H116060   1.972   4.257   2.003
 5373TIP3    H216061   1.860   4.165   2.049
 5374TIP3   OH216062   6.305   4.430   6.839
 5374TIP3    H116063   6.377   4.413   6.779
 5374TIP3    H216064   6.253   4.350   6.839
 5375TIP3   OH216065   4.812   1.799   1.036
 5375TIP3    H116066   4.898   1.765   1.013
 5375TIP3    H216067   4.807   1.791   1.131
 5376TIP3   OH216068   4.097   5.349   0.174
 5376TIP3    H116069   4.076   5.330   0.266
 5376TIP3    H216070   4.183   5.391   0.177
 5377TIP3   OH216071   1.261   1.064   6.208
 5377TIP3    H116072   1.344   1.067   6.160
 5377TIP3    H216073   1.249   0.971   6.230
 5378TIP3   OH216074   4.547   1.022   6.584
 5378TIP3    H116075   4.500   1.089   6.632
 5378TIP3    H216076   4.600   0.977   6.650
 5379TIP3   OH216077   4.379   0.773   4.187
 5379TIP3    H116078   4.305   0.753   4.244
 5379TIP3    H216079   4.453   0.727   4.226
 5380TIP3   OH216080   7.888   6.744   0.437
 5380TIP3    H116081   7.880   6.693   0.518
 5380TIP3    H216082   7.853   6.830   0.460
 5381TIP3   OH216083   2.593   2.348   1.597
 5381TIP3    H116084   2.561   2.306   1.517
 5381TIP3    H216085   2.513   2.368   1.647
 5382TIP3   OH216086   1.117   1.484   3.563
 5382TIP3    H116087   1.056   1.427   3.610
 5382TIP3    H216088   1.065   1.521   3.491
 5383TIP3   OH216089   5.310   4.250   5.640
 5383TIP3    H116090   5.235   4.213   5.593
 5383TIP3    H216091   5.319   4.338   5.604
 5384TIP3   OH216092   7.649   4.038   1.081
 5384TIP3    H116093   7.725   4.092   1.058
 5384TIP3    H216094   7.660   4.021   1.175
 5385TIP3   OH216095   1.726   6.552   2.027
 5385TIP3    H116096   1.701   6.460   2.019
 5385TIP3    H216097   1.819   6.555   2.004
 5386TIP3   OH216098   4.668   0.588   3.132
 5386TIP3    H116099   4.752   0.585   3.179
 5386TIP3    H216100   4.645   0.681   3.131
 5387TIP3   OH216101   1.533   5.527   1.024
 5387TIP3    H116102   1.471   5.566   0.963
 5387TIP3    H216103   1.493   5.443   1.048
 5388TIP3   OH216104   6.146   0.987   6.092
 5388TIP3    H116105   6.234   0.961   6.066
 5388TIP3    H216106   6.099   0.904   6.106
 5389TIP3   OH216107   3.408   2.396   3.710
 5389TIP3    H116108   3.433   2.479   3.751
 5389TIP3    H216109   3.412   2.413   3.616
 5390TIP3   OH216110   0.911   4.823   6.634
 5390TIP3    H116111   0.884   4.905   6.676
 5390TIP3    H216112   0.932   4.765   6.707
 5391TIP3   OH216113   1.996   6.302   5.244
 5391TIP3    H116114   1.989   6.243   5.318
 5391TIP3    H216115   1.963   6.386   5.276
 5392TIP3   OH216116   6.511   6.102   5.221
 5392TIP3    H116117   6.479   6.188   5.194
 5392TIP3    H216118   6.606   6.109   5.216
 5393TIP3   OH216119   3.597   1.753   6.623
 5393TIP3    H116120   3.504   1.774   6.621
 5393TIP3    H216121   3.601   1.668   6.668
 5394TIP3   OH216122   4.346   1.994   2.734
 5394TIP3    H116123   4.307   1.909   2.711
 5394TIP3    H216124   4.302   2.057   2.678
 5395TIP3   OH216125   1.515   4.629   0.852
 5395TIP3    H116126   1.503   4.622   0.947
 5395TIP3    H216127   1.447   4.572   0.815
 5396TIP3   OH216128   5.916   4.406   1.549
 5396TIP3    H116129   5.957   4.324   1.577
 5396TIP3    H216130   5.969   4.435   1.474
 5397TIP3   OH216131   5.449   4.844   5.134
 5397TIP3    H116132   5.406   4.899   5.199
 5397TIP3    H216133   5.448   4.756   5.172
 5398TIP3   OH216134   5.433   1.548   4.832
 5398TIP3    H116135   5.371   1.537   4.904
 5398TIP3    H216136   5.380   1.578   4.758
 5399TIP3   OH216137   5.739   7.469   4.086
 5399TIP3    H116138   5.740   7.558   4.052
 5399TIP3    H216139   5.743   7.413   4.008
 5400TIP3   OH216140   2.679   6.223   1.429
 5400TIP3    H116141   2.753   6.163   1.425
 5400TIP3    H216142   2.607   6.170   1.464
 5401TIP3   OH216143   5.744   5.515   5.174
 5401TIP3    H116144   5.724   5.424   5.198
 5401TIP3    H216145   5.765   5.558   5.257
 5402TIP3   OH216146   8.168   5.023   1.021
 5402TIP3    H116147   8.158   4.931   1.045
 5402TIP3    H216148   8.094   5.040   0.963
 5403TIP3   OH216149   3.321   4.380   3.094
 5403TIP3    H116150   3.244   4.328   3.117
 5403TIP3    H216151   3.363   4.399   3.178
 5404TIP3   OH216152   4.827   3.033   5.547
 5404TIP3    H116153   4.891   3.098   5.575
 5404TIP3    H216154   4.756   3.041   5.611
 5405TIP3   OH216155   3.487   3.470   0.531
 5405TIP3    H116156   3.452   3.518   0.606
 5405TIP3    H216157   3.473   3.378   0.553
 5406TIP3   OH216158   5.409   6.560   5.081
 5406TIP3    H116159   5.401   6.572   5.176
 5406TIP3    H216160   5.366   6.637   5.043
 5407TIP3   OH216161   4.244   1.104   4.024
 5407TIP3    H116162   4.165   1.097   4.077
 5407TIP3    H216163   4.234   1.186   3.976
 5408TIP3   OH216164   0.340   7.514   1.663
 5408TIP3    H116165   0.262   7.501   1.609
 5408TIP3    H216166   0.402   7.559   1.605
 5409TIP3   OH216167   0.154   4.015   6.720
 5409TIP3    H116168   0.120   4.104   6.715
 5409TIP3    H216169   0.138   3.979   6.633
 5410TIP3   OH216170   3.315   5.025   1.974
 5410TIP3    H116171   3.240   5.048   2.029
 5410TIP3    H216172   3.387   5.016   2.036
 5411TIP3   OH216173   5.440   3.024   4.609
 5411TIP3    H116174   5.403   2.937   4.598
 5411TIP3    H216175   5.407   3.074   4.534
 5412TIP3   OH216176   3.813   5.967   4.827
 5412TIP3    H116177   3.819   5.925   4.741
 5412TIP3    H216178   3.732   6.017   4.823
 5413TIP3   OH216179   7.730   6.627   6.435
 5413TIP3    H116180   7.750   6.592   6.348
 5413TIP3    H216181   7.815   6.628   6.479
 5414TIP3   OH216182   5.155   3.502   6.112
 5414TIP3    H116183   5.226   3.439   6.118
 5414TIP3    H216184   5.076   3.449   6.106
 5415TIP3   OH216185   1.656   5.124   3.667
 5415TIP3    H116186   1.634   5.186   3.598
 5415TIP3    H216187   1.614   5.042   3.639
 5416TIP3   OH216188   0.179   4.210   4.371
 5416TIP3    H116189   0.138   4.128   4.346
 5416TIP3    H216190   0.134   4.236   4.451
 5417TIP3   OH216191   1.539   0.498   6.095
 5417TIP3    H116192   1.634   0.501   6.089
 5417TIP3    H216193   1.521   0.494   6.189
 5418TIP3   OH216194   5.920   0.885   4.853
 5418TIP3    H116195   5.858   0.819   4.882
 5418TIP3    H216196   5.867   0.964   4.840
 5419TIP3   OH216197   0.622   2.084   2.106
 5419TIP3    H116198   0.596   2.174   2.087
 5419TIP3    H216199   0.638   2.045   2.020
 5420TIP3   OH216200   5.825   2.660   4.627
 5420TIP3    H116201   5.744   2.633   4.585
 5420TIP3    H216202   5.807   2.748   4.659
 5421TIP3   OH216203   0.803   5.695   6.190
 5421TIP3    H116204   0.820   5.658   6.103
 5421TIP3    H216205   0.760   5.624   6.238
 5422TIP3   OH216206   0.115   2.343   0.087
 5422TIP3    H116207   0.032   2.328   0.133
 5422TIP3    H216208   0.174   2.276   0.122
 5423TIP3   OH216209   2.744   5.189   6.607
 5423TIP3    H116210   2.836   5.163   6.604
 5423TIP3    H216211   2.730   5.218   6.696
 5424TIP3   OH216212   1.480   0.379   4.122
 5424TIP3    H116213   1.535   0.301   4.129
 5424TIP3    H216214   1.444   0.376   4.034
 5425TIP3   OH216215   1.227   4.197   3.257
 5425TIP3    H116216   1.139   4.183   3.223
 5425TIP3    H216217   1.282   4.206   3.179
 5426TIP3   OH216218   0.836   3.769   6.035
 5426TIP3    H116219   0.886   3.688   6.043
 5426TIP3    H216220   0.863   3.806   5.950
 5427TIP3   OH216221   6.012   2.598   0.603
 5427TIP3    H116222   5.969   2.555   0.529
 5427TIP3    H216223   6.078   2.535   0.632
 5428TIP3   OH216224   0.997   5.207   2.005
 5428TIP3    H116225   0.994   5.289   1.956
 5428TIP3    H216226   0.936   5.221   2.078
 5429TIP3   OH216227   6.156   7.523   2.066
 5429TIP3    H116228   6.251   7.512   2.059
 5429TIP3    H216229   6.132   7.572   1.987
 5430TIP3   OH216230   8.159   2.661   2.604
 5430TIP3    H116231   8.226   2.598   2.577
 5430TIP3    H216232   8.178   2.740   2.554
 5431TIP3   OH216233   0.881   6.558   6.772
 5431TIP3    H116234   0.898   6.641   6.816
 5431TIP3    H216235   0.787   6.542   6.784
 5432TIP3   OH216236   4.129   4.859   3.555
 5432TIP3    H116237   4.175   4.923   3.610
 5432TIP3    H216238   4.181   4.852   3.476
 5433TIP3   OH216239   7.102   0.233   1.573
 5433TIP3    H116240   7.092   0.245   1.479
 5433TIP3    H216241   7.047   0.158   1.595
 5434TIP3   OH216242   7.567   7.561   0.722
 5434TIP3    H116243   7.546   7.470   0.698
 5434TIP3    H216244   7.639   7.553   0.785
 5435TIP3   OH216245   5.372   5.842   6.102
 5435TIP3    H116246   5.280   5.817   6.096
 5435TIP3    H216247   5.416   5.792   6.033
 5436TIP3   OH216248   2.661   0.501   5.831
 5436TIP3    H116249   2.690   0.415   5.800
 5436TIP3    H216250   2.742   0.553   5.835
 5437TIP3   OH216251   0.590   6.849   5.953
 5437TIP3    H116252   0.624   6.934   5.924
 5437TIP3    H216253   0.495   6.857   5.944
 5438TIP3   OH216254   1.444   6.642   3.038
 5438TIP3    H116255   1.483   6.558   3.013
 5438TIP3    H216256   1.448   6.643   3.133
 5439TIP3   OH216257   6.353   5.874   5.262
 5439TIP3    H116258   6.282   5.903   5.205
 5439TIP3    H216259   6.414   5.947   5.264
 5440TIP3   OH216260   7.582   1.325   5.943
 5440TIP3    H116261   7.567   1.254   6.006
 5440TIP3    H216262   7.660   1.370   5.976
 5441TIP3   OH216263   6.339   1.389   6.212
 5441TIP3    H116264   6.339   1.335   6.292
 5441TIP3    H216265   6.255   1.369   6.170
 5442TIP3   OH216266   3.142   2.265   2.420
 5442TIP3    H116267   3.153   2.360   2.432
 5442TIP3    H216268   3.185   2.246   2.337
 5443TIP3   OH216269   6.870   6.358   3.144
 5443TIP3    H116270   6.837   6.423   3.206
 5443TIP3    H216271   6.891   6.282   3.197
 5444TIP3   OH216272   1.799   0.417   2.266
 5444TIP3    H116273   1.885   0.394   2.302
 5444TIP3    H216274   1.742   0.344   2.290
 5445TIP3   OH216275   6.039   0.545   4.403
 5445TIP3    H116276   6.101   0.530   4.474
 5445TIP3    H216277   5.959   0.575   4.446
 5446TIP3   OH216278   6.180   0.743   4.269
 5446TIP3    H116279   6.121   0.670   4.289
 5446TIP3    H216280   6.255   0.702   4.227
 5447TIP3   OH216281   1.050   4.488   4.451
 5447TIP3    H116282   0.962   4.451   4.455
 5447TIP3    H216283   1.036   4.583   4.449
 5448TIP3   OH216284   1.212   4.716   5.720
 5448TIP3    H116285   1.212   4.761   5.805
 5448TIP3    H216286   1.288   4.753   5.674
 5449TIP3   OH216287   5.584   0.614   2.669
 5449TIP3    H116288   5.552   0.541   2.722
 5449TIP3    H216289   5.652   0.575   2.614
 5450TIP3   OH216290   7.154   0.318   0.845
 5450TIP3    H116291   7.182   0.387   0.784
 5450TIP3    H216292   7.097   0.363   0.907
 5451TIP3   OH216293   5.744   0.073   0.236
 5451TIP3    H116294   5.689   0.126   0.178
 5451TIP3    H216295   5.733   0.114   0.322
 5452TIP3   OH216296   2.059   7.107   1.887
 5452TIP3    H116297   2.140   7.091   1.838
 5452TIP3    H216298   2.025   7.020   1.905
 5453TIP3   OH216299   4.530   4.715   3.480
 5453TIP3    H116300   4.529   4.803   3.517
 5453TIP3    H216301   4.456   4.671   3.521
 5454TIP3   OH216302   5.135   6.057   2.207
 5454TIP3    H116303   5.225   6.023   2.202
 5454TIP3    H216304   5.146   6.150   2.229
 5455TIP3   OH216305   1.915   2.533   3.963
 5455TIP3    H116306   1.956   2.524   4.049
 5455TIP3    H216307   1.952   2.614   3.928
 5456TIP3   OH216308   1.532   0.203   0.254
 5456TIP3    H116309   1.489   0.236   0.333
 5456TIP3    H216310   1.510   0.266   0.185
 5457TIP3   OH216311   5.763   4.547   0.859
 5457TIP3    H116312   5.854   4.524   0.843
 5457TIP3    H216313   5.761   4.643   0.859
 5458TIP3   OH216314   7.610   1.763   5.847
 5458TIP3    H116315   7.625   1.716   5.930
 5458TIP3    H216316   7.515   1.765   5.838
 5459TIP3   OH216317   3.959   4.990   2.004
 5459TIP3    H116318   3.954   4.909   2.054
 5459TIP3    H216319   4.051   5.016   2.008
 5460TIP3   OH216320   2.126   2.597   2.415
 5460TIP3    H116321   2.140   2.692   2.422
 5460TIP3    H216322   2.063   2.588   2.343
 5461TIP3   OH216323   6.401   5.120   5.721
 5461TIP3    H116324   6.419   5.167   5.639
 5461TIP3    H216325   6.487   5.106   5.760
 5462TIP3   OH216326   3.710   2.530   1.871
 5462TIP3    H116327   3.753   2.592   1.812
 5462TIP3    H216328   3.654   2.585   1.926
 5463TIP3   OH216329   1.191   5.542   2.825
 5463TIP3    H116330   1.100   5.514   2.830
 5463TIP3    H216331   1.226   5.497   2.748
 5464TIP3   OH216332   3.337   1.229   4.934
 5464TIP3    H116333   3.428   1.219   4.959
 5464TIP3    H216334   3.306   1.139   4.919
 5465TIP3   OH216335   2.168   4.010   4.717
 5465TIP3    H116336   2.259   4.018   4.746
 5465TIP3    H216337   2.120   3.986   4.797
 5466TIP3   OH216338   7.808   6.198   4.428
 5466TIP3    H116339   7.793   6.103   4.420
 5466TIP3    H216340   7.752   6.224   4.501
 5467TIP3   OH216341   7.577   7.908   2.793
 5467TIP3    H116342   7.558   7.957   2.873
 5467TIP3    H216343   7.646   7.847   2.818
 5468TIP3   OH216344   7.174   4.865   3.912
 5468TIP3    H116345   7.124   4.946   3.899
 5468TIP3    H216346   7.108   4.798   3.927
 5469TIP3   OH216347   2.757   0.326   3.053
 5469TIP3    H116348   2.784   0.417   3.037
 5469TIP3    H216349   2.710   0.329   3.136
 5470TIP3   OH216350   4.079   7.488   4.500
 5470TIP3    H116351   4.087   7.397   4.528
 5470TIP3    H216352   4.024   7.484   4.421
 5471TIP3   OH216353   2.336   2.509   0.451
 5471TIP3    H116354   2.312   2.484   0.541
 5471TIP3    H216355   2.427   2.479   0.442
 5472TIP3   OH216356   1.813   1.040   5.390
 5472TIP3    H116357   1.902   1.018   5.360
 5472TIP3    H216358   1.756   1.010   5.319
 5473TIP3   OH216359   6.843   1.415   2.168
 5473TIP3    H116360   6.798   1.458   2.241
 5473TIP3    H216361   6.781   1.350   2.137
 5474TIP3   OH216362   5.826   1.014   1.860
 5474TIP3    H116363   5.772   0.949   1.815
 5474TIP3    H216364   5.774   1.094   1.860
 5475TIP3   OH216365   4.853   5.154   3.798
 5475TIP3    H116366   4.945   5.160   3.824
 5475TIP3    H216367   4.851   5.193   3.710
 5476TIP3   OH216368   5.101   2.023   3.497
 5476TIP3    H116369   5.149   1.974   3.430
 5476TIP3    H216370   5.105   1.967   3.575
 5477TIP3   OH216371   0.146   0.328   5.853
 5477TIP3    H116372   0.102   0.413   5.854
 5477TIP3    H216373   0.115   0.284   5.932
 5478TIP3   OH216374   3.748   5.709   0.579
 5478TIP3    H116375   3.826   5.722   0.524
 5478TIP3    H216376   3.726   5.797   0.611
 5479TIP3   OH216377   3.072   7.517   1.219
 5479TIP3    H116378   3.140   7.584   1.214
 5479TIP3    H216379   3.086   7.462   1.142
 5480TIP3   OH216380   3.210   0.534   2.670
 5480TIP3    H116381   3.158   0.567   2.597
 5480TIP3    H216382   3.275   0.602   2.686
 5481TIP3   OH216383   6.998   2.180   4.468
 5481TIP3    H116384   7.083   2.151   4.436
 5481TIP3    H216385   7.007   2.182   4.564
 5482TIP3   OH216386   0.077   5.811   6.218
 5482TIP3    H116387   0.121   5.727   6.207
 5482TIP3    H216388   0.138   5.875   6.180
 5483TIP3   OH216389   7.206   5.031   0.487
 5483TIP3    H116390   7.157   5.103   0.447
 5483TIP3    H216391   7.193   5.043   0.581
 5484TIP3   OH216392   7.475   3.557   5.744
 5484TIP3    H116393   7.481   3.619   5.816
 5484TIP3    H216394   7.495   3.472   5.784
 5485TIP3   OH216395   5.963   4.828   2.229
 5485TIP3    H116396   5.871   4.853   2.237
 5485TIP3    H216397   6.004   4.858   2.310
 5486TIP3   OH216398   6.817   4.652   5.769
 5486TIP3    H116399   6.903   4.690   5.789
 5486TIP3    H216400   6.790   4.609   5.850
 5487TIP3   OH216401   2.588   0.288   4.300
 5487TIP3    H116402   2.556   0.365   4.348
 5487TIP3    H216403   2.664   0.259   4.351
 5488TIP3   OH216404   6.941   3.567   1.376
 5488TIP3    H116405   7.034   3.582   1.393
 5488TIP3    H216406   6.926   3.605   1.289
 5489TIP3   OH216407   1.477   7.905   1.059
 5489TIP3    H116408   1.474   7.867   1.147
 5489TIP3    H216409   1.526   7.987   1.071
 5490TIP3   OH216410   6.476   3.706   0.589
 5490TIP3    H116411   6.416   3.780   0.596
 5490TIP3    H216412   6.520   3.703   0.674
 5491TIP3   OH216413   0.435   0.241   3.710
 5491TIP3    H116414   0.340   0.235   3.703
 5491TIP3    H216415   0.452   0.245   3.804
 5492TIP3   OH216416   5.595   6.978   6.128
 5492TIP3    H116417   5.655   6.905   6.143
 5492TIP3    H216418   5.508   6.938   6.125
 5493TIP3   OH216419   6.186   3.289   1.127
 5493TIP3    H116420   6.146   3.240   1.199
 5493TIP3    H216421   6.166   3.380   1.146
 5494TIP3   OH216422   7.331   5.927   5.754
 5494TIP3    H116423   7.336   5.857   5.689
 5494TIP3    H216424   7.258   5.902   5.811
 5495TIP3   OH216425   1.292   3.392   0.528
 5495TIP3    H116426   1.207   3.350   0.513
 5495TIP3    H216427   1.338   3.333   0.588
 5496TIP3   OH216428   6.409   4.721   4.256
 5496TIP3    H116429   6.322   4.697   4.290
 5496TIP3    H216430   6.396   4.807   4.217
 5497TIP3   OH216431   5.028   4.092   5.711
 5497TIP3    H116432   5.053   4.104   5.619
 5497TIP3    H216433   5.052   4.175   5.753
 5498TIP3   OH216434   8.114   6.321   0.296
 5498TIP3    H116435   8.096   6.276   0.378
 5498TIP3    H216436   8.201   6.358   0.307
 5499TIP3   OH216437   7.012   5.357   0.220
 5499TIP3    H116438   7.100   5.321   0.203
 5499TIP3    H216439   6.967   5.348   0.136
 5500TIP3   OH216440   5.513   3.306   0.256
 5500TIP3    H116441   5.506   3.381   0.197
 5500TIP3    H216442   5.472   3.337   0.338
 5501TIP3   OH216443   3.354   4.274   5.137
 5501TIP3    H116444   3.263   4.244   5.135
 5501TIP3    H216445   3.366   4.312   5.224
 5502TIP3   OH216446   3.809   6.005   2.343
 5502TIP3    H116447   3.900   6.029   2.360
 5502TIP3    H216448   3.806   5.910   2.349
 5503TIP3   OH216449   3.062   1.139   1.868
 5503TIP3    H116450   3.126   1.084   1.824
 5503TIP3    H216451   2.995   1.156   1.801
 5504TIP3   OH216452   4.856   7.296   0.535
 5504TIP3    H116453   4.762   7.283   0.527
 5504TIP3    H216454   4.875   7.276   0.627
 5505TIP3   OH216455   6.950   4.411   3.316
 5505TIP3    H116456   6.959   4.397   3.222
 5505TIP3    H216457   6.964   4.324   3.355
 5506TIP3   OH216458   7.562   3.195   1.762
 5506TIP3    H116459   7.549   3.117   1.710
 5506TIP3    H216460   7.652   3.188   1.795
 5507TIP3   OH216461   4.529   4.871   5.306
 5507TIP3    H116462   4.486   4.841   5.226
 5507TIP3    H216463   4.505   4.806   5.372
 5508TIP3   OH216464   5.681   3.912   6.727
 5508TIP3    H116465   5.609   3.877   6.781
 5508TIP3    H216466   5.757   3.911   6.785
 5509TIP3   OH216467   6.697   3.825   4.156
 5509TIP3    H116468   6.784   3.842   4.192
 5509TIP3    H216469   6.708   3.830   4.061
 5510TIP3   OH216470   1.473   1.581   6.621
 5510TIP3    H116471   1.467   1.489   6.648
 5510TIP3    H216472   1.541   1.581   6.553
 5511TIP3   OH216473   0.016   4.386   1.662
 5511TIP3    H116474  -0.068   4.341   1.668
 5511TIP3    H216475   0.077   4.319   1.631
 5512TIP3   OH216476   2.471   0.448   2.580
 5512TIP3    H116477   2.536   0.474   2.645
 5512TIP3    H216478   2.434   0.367   2.614
 5513TIP3   OH216479   6.424   5.109   4.924
 5513TIP3    H116480   6.372   5.178   4.964
 5513TIP3    H216481   6.362   5.058   4.872
 5514TIP3   OH216482   6.147   0.028   2.649
 5514TIP3    H116483   6.203  -0.018   2.712
 5514TIP3    H216484   6.152   0.120   2.674
 5515TIP3   OH216485   6.010   6.896   1.870
 5515TIP3    H116486   6.050   6.836   1.808
 5515TIP3    H216487   5.951   6.950   1.817
 5516TIP3   OH216488   2.646   5.532   5.744
 5516TIP3    H116489   2.565   5.580   5.723
 5516TIP3    H216490   2.714   5.578   5.695
 5517TIP3   OH216491   5.057   4.685   5.513
 5517TIP3    H116492   5.089   4.596   5.531
 5517TIP3    H216493   5.115   4.742   5.564
 5518TIP3   OH216494   8.251   4.693   0.173
 5518TIP3    H116495   8.204   4.642   0.238
 5518TIP3    H216496   8.275   4.774   0.219
 5519TIP3   OH216497   7.758   5.779   5.798
 5519TIP3    H116498   7.688   5.791   5.862
 5519TIP3    H216499   7.718   5.807   5.715
 5520TIP3   OH216500   6.089   5.297   3.195
 5520TIP3    H116501   6.149   5.339   3.257
 5520TIP3    H216502   6.147   5.254   3.132
 5521TIP3   OH216503   2.887   3.539   5.014
 5521TIP3    H116504   2.841   3.619   5.041
 5521TIP3    H216505   2.963   3.571   4.965
 5522TIP3   OH216506   2.357   1.361   3.994
 5522TIP3    H116507   2.304   1.312   3.930
 5522TIP3    H216508   2.438   1.380   3.946
 5523TIP3   OH216509   5.518   7.198   3.975
 5523TIP3    H116510   5.477   7.169   4.057
 5523TIP3    H216511   5.460   7.165   3.906
 5524TIP3   OH216512   6.355   7.484   2.668
 5524TIP3    H116513   6.382   7.492   2.576
 5524TIP3    H216514   6.437   7.486   2.717
 5525TIP3   OH216515   6.849   2.288   1.809
 5525TIP3    H116516   6.850   2.376   1.771
 5525TIP3    H216517   6.761   2.279   1.846
 5526TIP3   OH216518   2.740   1.356   4.082
 5526TIP3    H116519   2.768   1.446   4.096
 5526TIP3    H216520   2.806   1.303   4.125
 5527TIP3   OH216521   4.661   1.846   4.884
 5527TIP3    H116522   4.740   1.856   4.831
 5527TIP3    H216523   4.664   1.918   4.946
 5528TIP3   OH216524   1.964   3.247   4.494
 5528TIP3    H116525   2.001   3.159   4.491
 5528TIP3    H216526   2.020   3.298   4.435
 5529TIP3   OH216527   6.859   6.697   5.679
 5529TIP3    H116528   6.886   6.617   5.723
 5529TIP3    H216529   6.768   6.709   5.705
 5530TIP3   OH216530   6.235   7.209   2.720
 5530TIP3    H116531   6.279   7.290   2.743
 5530TIP3    H216532   6.243   7.203   2.624
 5531TIP3   OH216533   2.127   0.549   5.160
 5531TIP3    H116534   2.152   0.487   5.092
 5531TIP3    H216535   2.201   0.609   5.165
 5532TIP3   OH216536   7.016   3.298   1.254
 5532TIP3    H116537   7.018   3.391   1.278
 5532TIP3    H216538   6.925   3.271   1.268
 5533TIP3   OH216539   4.000   6.777   6.772
 5533TIP3    H116540   3.961   6.824   6.846
 5533TIP3    H216541   4.083   6.744   6.806
 5534TIP3   OH216542   1.776   2.139   3.484
 5534TIP3    H116543   1.792   2.190   3.405
 5534TIP3    H216544   1.693   2.095   3.467
 5535TIP3   OH216545   6.717   3.867   2.151
 5535TIP3    H116546   6.645   3.925   2.126
 5535TIP3    H216547   6.687   3.780   2.126
 5536TIP3   OH216548   2.212   0.045   0.614
 5536TIP3    H116549   2.229   0.082   0.527
 5536TIP3    H216550   2.221   0.118   0.674
 5537TIP3   OH216551   6.054   5.809   6.346
 5537TIP3    H116552   6.054   5.812   6.441
 5537TIP3    H216553   6.085   5.721   6.325
 5538TIP3   OH216554   1.358   4.249   0.093
 5538TIP3    H116555   1.332   4.322   0.150
 5538TIP3    H216556   1.358   4.173   0.151
 5539TIP3   OH216557   4.486   1.677   4.753
 5539TIP3    H116558   4.554   1.621   4.713
 5539TIP3    H216559   4.535   1.736   4.810
 5540TIP3   OH216560   8.292   7.376   1.429
 5540TIP3    H116561   8.362   7.427   1.389
 5540TIP3    H216562   8.335   7.327   1.499
 5541TIP3   OH216563   4.193   3.930   3.023
 5541TIP3    H116564   4.281   3.893   3.028
 5541TIP3    H216565   4.160   3.900   2.938
 5542TIP3   OH216566   2.293   7.095   5.356
 5542TIP3    H116567   2.222   7.035   5.377
 5542TIP3    H216568   2.317   7.134   5.440
 5543TIP3   OH216569   4.183   1.572   1.402
 5543TIP3    H116570   4.264   1.623   1.400
 5543TIP3    H216571   4.200   1.498   1.344
 5544TIP3   OH216572   7.003   0.002   4.547
 5544TIP3    H116573   6.912  -0.001   4.575
 5544TIP3    H216574   7.042   0.070   4.602
 5545TIP3   OH216575   8.207   1.323   5.591
 5545TIP3    H116576   8.215   1.417   5.608
 5545TIP3    H216577   8.113   1.305   5.601
 5546TIP3   OH216578   7.279   3.443   1.176
 5546TIP3    H116579   7.257   3.375   1.240
 5546TIP3    H216580   7.361   3.413   1.136
 5547TIP3   OH216581   3.052   7.439   4.956
 5547TIP3    H116582   3.059   7.346   4.974
 5547TIP3    H216583   3.110   7.480   5.020
 5548TIP3   OH216584   1.415   6.052   1.198
 5548TIP3    H116585   1.405   6.003   1.280
 5548TIP3    H216586   1.471   5.997   1.144
 5549TIP3   OH216587   5.995   6.363   0.961
 5549TIP3    H116588   5.919   6.328   0.914
 5549TIP3    H216589   6.052   6.288   0.974
 5550TIP3   OH216590   6.810   5.003   5.560
 5550TIP3    H116591   6.874   4.948   5.605
 5550TIP3    H216592   6.824   5.090   5.598
 5551TIP3   OH216593   3.752   6.810   0.529
 5551TIP3    H116594   3.813   6.885   0.534
 5551TIP3    H216595   3.680   6.834   0.588
 5552TIP3   OH216596   3.723   1.384   0.499
 5552TIP3    H116597   3.698   1.297   0.470
 5552TIP3    H216598   3.644   1.437   0.490
 5553TIP3   OH216599   5.487   7.233   6.114
 5553TIP3    H116600   5.555   7.244   6.180
 5553TIP3    H216601   5.521   7.166   6.055
 5554TIP3   OH216602   2.179   6.885   6.289
 5554TIP3    H116603   2.223   6.836   6.221
 5554TIP3    H216604   2.104   6.926   6.245
 5555TIP3   OH216605   3.508   1.599   4.990
 5555TIP3    H116606   3.594   1.618   5.029
 5555TIP3    H216607   3.447   1.608   5.063
 5556TIP3   OH216608   3.833   3.236   2.390
 5556TIP3    H116609   3.831   3.272   2.478
 5556TIP3    H216610   3.920   3.195   2.384
 5557TIP3   OH216611   7.023   1.268   3.501
 5557TIP3    H116612   7.053   1.344   3.451
 5557TIP3    H216613   7.028   1.195   3.439
 5558TIP3   OH216614   5.262   7.273   5.779
 5558TIP3    H116615   5.176   7.272   5.819
 5558TIP3    H216616   5.264   7.194   5.724
 5559TIP3   OH216617   3.298   0.093   3.836
 5559TIP3    H116618   3.338   0.113   3.752
 5559TIP3    H216619   3.213   0.055   3.813
 5560TIP3   OH216620   1.616   4.461   1.325
 5560TIP3    H116621   1.587   4.373   1.349
 5560TIP3    H216622   1.711   4.455   1.323
 5561TIP3   OH216623   7.086   5.447   4.103
 5561TIP3    H116624   7.002   5.404   4.120
 5561TIP3    H216625   7.147   5.406   4.165
 5562TIP3   OH216626   5.337   2.531   3.215
 5562TIP3    H116627   5.255   2.567   3.248
 5562TIP3    H216628   5.364   2.592   3.146
 5563TIP3   OH216629   3.078   0.447   1.339
 5563TIP3    H116630   3.144   0.515   1.352
 5563TIP3    H216631   3.077   0.433   1.244
 5564TIP3   OH216632   1.930   7.616   2.858
 5564TIP3    H116633   1.911   7.671   2.782
 5564TIP3    H216634   1.900   7.668   2.933
 5565TIP3   OH216635   8.233   1.527   4.435
 5565TIP3    H116636   8.144   1.562   4.431
 5565TIP3    H216637   8.283   1.593   4.484
 5566TIP3   OH216638   4.560   6.190   6.533
 5566TIP3    H116639   4.596   6.278   6.522
 5566TIP3    H216640   4.501   6.198   6.608
 5567TIP3   OH216641   2.580   3.278   0.864
 5567TIP3    H116642   2.608   3.353   0.917
 5567TIP3    H216643   2.651   3.266   0.801
 5568TIP3   OH216644   7.472   2.636   4.346
 5568TIP3    H116645   7.541   2.672   4.291
 5568TIP3    H216646   7.506   2.552   4.376
 5569TIP3   OH216647   4.563   1.724   1.562
 5569TIP3    H116648   4.504   1.734   1.487
 5569TIP3    H216649   4.604   1.639   1.549
 5570TIP3   OH216650   3.523   4.458   0.994
 5570TIP3    H116651   3.481   4.540   1.019
 5570TIP3    H216652   3.472   4.426   0.920
 5571TIP3   OH216653   1.238   3.076   2.063
 5571TIP3    H116654   1.198   3.019   1.997
 5571TIP3    H216655   1.326   3.040   2.076
 5572TIP3   OH216656   5.174   5.794   2.729
 5572TIP3    H116657   5.123   5.720   2.762
 5572TIP3    H216658   5.115   5.869   2.740
 5573TIP3   OH216659   4.893   4.993   5.794
 5573TIP3    H116660   4.823   5.005   5.730
 5573TIP3    H216661   4.930   4.907   5.772
 5574TIP3   OH216662   6.885   6.627   4.963
 5574TIP3    H116663   6.967   6.672   4.940
 5574TIP3    H216664   6.904   6.583   5.045
 5575TIP3   OH216665   5.095   6.031   3.385
 5575TIP3    H116666   5.030   5.968   3.355
 5575TIP3    H216667   5.177   5.981   3.389
 5576TIP3   OH216668   6.052   0.283   1.213
 5576TIP3    H116669   5.982   0.323   1.162
 5576TIP3    H216670   6.132   0.303   1.164
 5577TIP3   OH216671   7.307   2.856   6.219
 5577TIP3    H116672   7.278   2.913   6.290
 5577TIP3    H216673   7.398   2.834   6.241
 5578TIP3   OH216674   4.124   5.249   0.432
 5578TIP3    H116675   4.074   5.184   0.482
 5578TIP3    H216676   4.159   5.200   0.358
 5579TIP3   OH216677   5.793   6.747   3.666
 5579TIP3    H116678   5.733   6.715   3.599
 5579TIP3    H216679   5.736   6.781   3.735
 5580TIP3   OH216680   2.124   1.151   6.275
 5580TIP3    H116681   2.091   1.078   6.222
 5580TIP3    H216682   2.127   1.116   6.364
 5581TIP3   OH216683   0.377   6.664   6.084
 5581TIP3    H116684   0.340   6.648   5.997
 5581TIP3    H216685   0.308   6.638   6.145
 5582TIP3   OH216686   5.948   0.454   1.007
 5582TIP3    H116687   5.912   0.538   0.979
 5582TIP3    H216688   5.944   0.398   0.929
 5583TIP3   OH216689   6.991   2.515   1.269
 5583TIP3    H116690   7.041   2.597   1.263
 5583TIP3    H216691   6.900   2.544   1.277
 5584TIP3   OH216692   4.649   4.208   5.998
 5584TIP3    H116693   4.557   4.182   5.998
 5584TIP3    H216694   4.651   4.291   6.047
 5585TIP3   OH216695   4.285   3.329   4.984
 5585TIP3    H116696   4.367   3.357   4.943
 5585TIP3    H216697   4.250   3.408   5.024
 5586TIP3   OH216698   3.033   1.917   5.699
 5586TIP3    H116699   2.990   2.002   5.707
 5586TIP3    H216700   3.119   1.937   5.661
 5587TIP3   OH216701   6.849   1.608   6.302
 5587TIP3    H116702   6.845   1.568   6.389
 5587TIP3    H216703   6.774   1.571   6.255
 5588TIP3   OH216704   1.739   6.086   0.904
 5588TIP3    H116705   1.819   6.130   0.933
 5588TIP3    H216706   1.670   6.151   0.916
 5589TIP3   OH216707   3.552   5.355   2.414
 5589TIP3    H116708   3.597   5.281   2.455
 5589TIP3    H216709   3.584   5.431   2.463
 5590TIP3   OH216710   7.627   1.748   4.665
 5590TIP3    H116711   7.610   1.688   4.738
 5590TIP3    H216712   7.582   1.829   4.690
 5591TIP3   OH216713   0.660   7.749   4.568
 5591TIP3    H116714   0.649   7.660   4.602
 5591TIP3    H216715   0.589   7.759   4.505
 5592TIP3   OH216716   6.759   5.436   0.367
 5592TIP3    H116717   6.847   5.469   0.386
 5592TIP3    H216718   6.745   5.456   0.275
 5593TIP3   OH216719   1.270   6.164   5.141
 5593TIP3    H116720   1.361   6.193   5.144
 5593TIP3    H216721   1.220   6.244   5.128
 5594TIP3   OH216722   5.551   0.549   2.221
 5594TIP3    H116723   5.568   0.529   2.129
 5594TIP3    H216724   5.472   0.498   2.242
 5595TIP3   OH216725   4.341   4.599   2.191
 5595TIP3    H116726   4.348   4.558   2.277
 5595TIP3    H216727   4.401   4.675   2.195
 5596TIP3   OH216728   8.379   7.527   4.865
 5596TIP3    H116729   8.323   7.456   4.897
 5596TIP3    H216730   8.318   7.597   4.843
 5597TIP3   OH216731   5.599   0.155   4.964
 5597TIP3    H116732   5.569   0.226   4.907
 5597TIP3    H216733   5.658   0.198   5.027
 5598TIP3   OH216734   1.421   4.980   4.645
 5598TIP3    H116735   1.329   4.958   4.654
 5598TIP3    H216736   1.447   4.942   4.561
 5599TIP3   OH216737   4.218  -0.017   0.444
 5599TIP3    H116738   4.163   0.058   0.469
 5599TIP3    H216739   4.246  -0.054   0.528
 5600TIP3   OH216740   6.458   7.400   1.014
 5600TIP3    H116741   6.408   7.335   1.064
 5600TIP3    H216742   6.497   7.457   1.080
 5601TIP3   OH216743   7.565   6.350   0.816
 5601TIP3    H116744   7.641   6.307   0.777
 5601TIP3    H216745   7.574   6.333   0.910
 5602TIP3   OH216746   2.168   2.465   5.874
 5602TIP3    H116747   2.200   2.405   5.942
 5602TIP3    H216748   2.100   2.516   5.918
 5603TIP3   OH216749   2.946   1.136   3.696
 5603TIP3    H116750   2.859   1.105   3.672
 5603TIP3    H216751   2.939   1.158   3.789
 5604TIP3   OH216752   3.777   4.789   6.595
 5604TIP3    H116753   3.767   4.696   6.577
 5604TIP3    H216754   3.846   4.793   6.661
 5605TIP3   OH216755   2.377   6.849   4.086
 5605TIP3    H116756   2.421   6.787   4.144
 5605TIP3    H216757   2.343   6.916   4.145
 5606TIP3   OH216758   4.669   0.297   1.096
 5606TIP3    H116759   4.741   0.277   1.156
 5606TIP3    H216760   4.644   0.387   1.118
 5607TIP3   OH216761   4.257   2.906   2.472
 5607TIP3    H116762   4.265   2.895   2.567
 5607TIP3    H216763   4.290   2.824   2.435
 5608TIP3   OH216764   4.210   6.536   2.884
 5608TIP3    H116765   4.282   6.473   2.877
 5608TIP3    H216766   4.249   6.611   2.930
 5609TIP3   OH216767   0.018   2.090   2.334
 5609TIP3    H116768   0.047   2.003   2.307
 5609TIP3    H216769   0.062   2.105   2.418
 5610TIP3   OH216770   5.565   3.034   0.293
 5610TIP3    H116771   5.501   3.036   0.222
 5610TIP3    H216772   5.551   3.116   0.340
 5611TIP3   OH216773   6.051   5.528   1.279
 5611TIP3    H116774   5.980   5.465   1.270
 5611TIP3    H216775   6.128   5.475   1.300
 5612TIP3   OH216776   4.455   2.863   1.671
 5612TIP3    H116777   4.418   2.795   1.615
 5612TIP3    H216778   4.549   2.846   1.671
 5613TIP3   OH216779   0.436   1.572   2.676
 5613TIP3    H116780   0.409   1.526   2.597
 5613TIP3    H216781   0.481   1.506   2.729
 5614TIP3   OH216782   6.432   7.572   4.363
 5614TIP3    H116783   6.476   7.537   4.286
 5614TIP3    H216784   6.460   7.663   4.368
 5615TIP3   OH216785   5.420   2.994   2.484
 5615TIP3    H116786   5.393   3.047   2.559
 5615TIP3    H216787   5.505   3.028   2.459
 5616TIP3   OH216788   1.363   4.790   6.124
 5616TIP3    H116789   1.451   4.790   6.085
 5616TIP3    H216790   1.358   4.705   6.169
 5617TIP3   OH216791   7.152   3.056   5.691
 5617TIP3    H116792   7.155   3.003   5.771
 5617TIP3    H216793   7.234   3.106   5.692
 5618TIP3   OH216794   6.378   1.400   1.874
 5618TIP3    H116795   6.298   1.394   1.822
 5618TIP3    H216796   6.390   1.494   1.888
 5619TIP3   OH216797   0.783   1.550   0.518
 5619TIP3    H116798   0.872   1.528   0.492
 5619TIP3    H216799   0.794   1.615   0.588
 5620TIP3   OH216800   5.617   6.072   6.784
 5620TIP3    H116801   5.696   6.043   6.739
 5620TIP3    H216802   5.595   6.156   6.743
 5621TIP3   OH216803   5.726   4.936   1.085
 5621TIP3    H116804   5.803   4.933   1.027
 5621TIP3    H216805   5.708   4.845   1.106
 5622TIP3   OH216806   7.258   1.370   6.087
 5622TIP3    H116807   7.292   1.301   6.143
 5622TIP3    H216808   7.286   1.451   6.129
 5623TIP3   OH216809   2.798   6.455   2.386
 5623TIP3    H116810   2.810   6.432   2.478
 5623TIP3    H216811   2.725   6.401   2.356
 5624TIP3   OH216812   2.855   5.605   1.630
 5624TIP3    H116813   2.766   5.641   1.633
 5624TIP3    H216814   2.858   5.558   1.546
 5625TIP3   OH216815   2.225   0.685   4.885
 5625TIP3    H116816   2.208   0.601   4.842
 5625TIP3    H216817   2.288   0.729   4.828
 5626TIP3   OH216818   5.844   3.764   1.866
 5626TIP3    H116819   5.766   3.774   1.920
 5626TIP3    H216820   5.911   3.815   1.911
 5627TIP3   OH216821   6.525   0.202  -0.021
 5627TIP3    H116822   6.599   0.248   0.016
 5627TIP3    H216823   6.511   0.127   0.038
 5628TIP3   OH216824   8.271   0.622   3.253
 5628TIP3    H116825   8.348   0.630   3.309
 5628TIP3    H216826   8.241   0.532   3.268
 5629TIP3   OH216827   1.320   6.435   6.768
 5629TIP3    H116828   1.345   6.526   6.748
 5629TIP3    H216829   1.275   6.406   6.689
 5630TIP3   OH216830   8.156   3.400   3.572
 5630TIP3    H116831   8.164   3.420   3.665
 5630TIP3    H216832   8.157   3.486   3.529
 5631TIP3   OH216833   7.486   3.460   4.776
 5631TIP3    H116834   7.464   3.405   4.851
 5631TIP3    H216835   7.414   3.446   4.714
 5632TIP3   OH216836   7.133   7.626   4.852
 5632TIP3    H116837   7.193   7.555   4.828
 5632TIP3    H216838   7.127   7.620   4.948
 5633TIP3   OH216839   6.708   6.195   3.665
 5633TIP3    H116840   6.664   6.132   3.608
 5633TIP3    H216841   6.721   6.148   3.747
 5634TIP3   OH216842   3.739   7.578   3.443
 5634TIP3    H116843   3.781   7.561   3.527
 5634TIP3    H216844   3.675   7.646   3.461
 5635TIP3   OH216845   1.651   6.564   0.939
 5635TIP3    H116846   1.667   6.602   0.853
 5635TIP3    H216847   1.672   6.471   0.929
 5636TIP3   OH216848   7.230   7.081   0.353
 5636TIP3    H116849   7.316   7.123   0.359
 5636TIP3    H216850   7.172   7.135   0.407
 5637TIP3   OH216851   3.867   0.135   4.656
 5637TIP3    H116852   3.832   0.121   4.744
 5637TIP3    H216853   3.937   0.199   4.668
 5638TIP3   OH216854   6.146   1.542   3.486
 5638TIP3    H116855   6.180   1.551   3.575
 5638TIP3    H216856   6.055   1.571   3.492
 5639TIP3   OH216857   0.132   0.129   5.441
 5639TIP3    H116858   0.083   0.070   5.498
 5639TIP3    H216859   0.215   0.145   5.487
 5640TIP3   OH216860   4.533   3.931   1.245
 5640TIP3    H116861   4.446   3.890   1.243
 5640TIP3    H216862   4.594   3.858   1.232
 5641TIP3   OH216863   3.272   3.369   6.181
 5641TIP3    H116864   3.276   3.427   6.256
 5641TIP3    H216865   3.344   3.397   6.124
 5642TIP3   OH216866   8.305   4.405   4.536
 5642TIP3    H116867   8.348   4.488   4.516
 5642TIP3    H216868   8.288   4.365   4.451
 5643TIP3   OH216869   0.723   1.601   6.037
 5643TIP3    H116870   0.778   1.675   6.064
 5643TIP3    H216871   0.655   1.640   5.982
 5644TIP3   OH216872   4.921   4.923   1.826
 5644TIP3    H116873   4.972   4.858   1.875
 5644TIP3    H216874   4.964   5.006   1.845
 5645TIP3   OH216875   4.164   3.026   1.317
 5645TIP3    H116876   4.232   2.960   1.300
 5645TIP3    H216877   4.160   3.033   1.412
 5646TIP3   OH216878   5.489   0.450   1.658
 5646TIP3    H116879   5.548   0.456   1.583
 5646TIP3    H216880   5.459   0.359   1.658
 5647TIP3   OH216881   1.408   3.026   1.329
 5647TIP3    H116882   1.367   3.101   1.372
 5647TIP3    H216883   1.486   3.063   1.286
 5648TIP3   OH216884   5.209   0.863   3.879
 5648TIP3    H116885   5.299   0.829   3.876
 5648TIP3    H216886   5.168   0.831   3.799
 5649TIP3   OH216887   5.796   1.656   2.070
 5649TIP3    H116888   5.889   1.677   2.079
 5649TIP3    H216889   5.783   1.651   1.975
 5650TIP3   OH216890   5.487   7.198   5.140
 5650TIP3    H116891   5.442   7.267   5.092
 5650TIP3    H216892   5.580   7.212   5.121
 5651TIP3   OH216893   2.610   3.098   1.110
 5651TIP3    H116894   2.627   3.048   1.190
 5651TIP3    H216895   2.635   3.039   1.039
 5652TIP3   OH216896   0.788   4.929   1.816
 5652TIP3    H116897   0.762   5.015   1.848
 5652TIP3    H216898   0.835   4.947   1.734
 5653TIP3   OH216899   3.054   6.586   0.817
 5653TIP3    H116900   2.986   6.530   0.780
 5653TIP3    H216901   3.013   6.627   0.893
 5654TIP3   OH216902   6.951   6.726   6.704
 5654TIP3    H116903   6.903   6.751   6.783
 5654TIP3    H216904   6.997   6.806   6.678
 5655TIP3   OH216905   0.421   6.601   1.048
 5655TIP3    H116906   0.513   6.618   1.027
 5655TIP3    H216907   0.423   6.527   1.109
 5656TIP3   OH216908   7.004   7.616   0.762
 5656TIP3    H116909   7.052   7.569   0.694
 5656TIP3    H216910   6.912   7.610   0.736
 5657TIP3   OH216911   1.704   6.647   1.472
 5657TIP3    H116912   1.623   6.599   1.492
 5657TIP3    H216913   1.732   6.682   1.556
 5658TIP3   OH216914   2.919   4.018   0.751
 5658TIP3    H116915   2.971   4.096   0.730
 5658TIP3    H216916   2.923   4.011   0.846
 5659TIP3   OH216917   1.884   3.018   2.189
 5659TIP3    H116918   1.844   3.058   2.112
 5659TIP3    H216919   1.967   2.982   2.157
 5660TIP3   OH216920   7.804   4.582   5.183
 5660TIP3    H116921   7.869   4.651   5.198
 5660TIP3    H216922   7.797   4.575   5.088
 5661TIP3   OH216923   1.942   3.120   2.756
 5661TIP3    H116924   1.987   3.204   2.746
 5661TIP3    H216925   1.855   3.143   2.787
 5662TIP3   OH216926   7.978   6.481   6.475
 5662TIP3    H116927   8.046   6.461   6.540
 5662TIP3    H216928   8.013   6.449   6.392
 5663TIP3   OH216929   3.733   0.166   2.603
 5663TIP3    H116930   3.815   0.214   2.592
 5663TIP3    H216931   3.665   0.234   2.597
 5664TIP3   OH216932   3.167   5.745   5.486
 5664TIP3    H116933   3.143   5.697   5.407
 5664TIP3    H216934   3.249   5.705   5.515
 5665TIP3   OH216935   7.683   7.148   5.456
 5665TIP3    H116936   7.665   7.239   5.481
 5665TIP3    H216937   7.682   7.149   5.360
 5666TIP3   OH216938   2.404   1.968   0.363
 5666TIP3    H116939   2.318   2.011   0.365
 5666TIP3    H216940   2.398   1.905   0.291
 5667TIP3   OH216941   0.490   0.046   4.884
 5667TIP3    H116942   0.409   0.016   4.926
 5667TIP3    H216943   0.516  -0.027   4.827
 5668TIP3   OH216944   2.737   4.277   0.905
 5668TIP3    H116945   2.722   4.371   0.919
 5668TIP3    H216946   2.775   4.272   0.817
 5669TIP3   OH216947   3.914   5.153   2.679
 5669TIP3    H116948   3.909   5.066   2.720
 5669TIP3    H216949   3.985   5.197   2.725
 5670TIP3   OH216950   1.780   0.100   2.012
 5670TIP3    H116951   1.856   0.094   1.953
 5670TIP3    H216952   1.817   0.085   2.099
 5671TIP3   OH216953   1.723   7.822   4.883
 5671TIP3    H116954   1.751   7.819   4.974
 5671TIP3    H216955   1.682   7.908   4.874
 5672TIP3   OH216956   4.175   1.494   1.829
 5672TIP3    H116957   4.120   1.555   1.878
 5672TIP3    H216958   4.140   1.407   1.851
 5673TIP3   OH216959   2.125   5.302   5.949
 5673TIP3    H116960   2.104   5.379   6.002
 5673TIP3    H216961   2.048   5.288   5.894
 5674TIP3   OH216962   6.655   0.430   5.267
 5674TIP3    H116963   6.595   0.411   5.195
 5674TIP3    H216964   6.721   0.361   5.263
 5675TIP3   OH216965   4.761   2.508   0.352
 5675TIP3    H116966   4.725   2.460   0.427
 5675TIP3    H216967   4.717   2.468   0.276
 5676TIP3   OH216968   3.627   1.524   5.434
 5676TIP3    H116969   3.582   1.608   5.442
 5676TIP3    H216970   3.638   1.511   5.340
 5677TIP3   OH216971   1.653   2.223   0.492
 5677TIP3    H116972   1.575   2.222   0.547
 5677TIP3    H216973   1.715   2.165   0.536
 5678TIP3   OH216974   4.117   7.630   6.032
 5678TIP3    H116975   4.129   7.718   6.067
 5678TIP3    H216976   4.191   7.580   6.067
 5679TIP3   OH216977   7.980   0.220   2.579
 5679TIP3    H116978   7.990   0.310   2.547
 5679TIP3    H216979   7.886   0.205   2.578
 5680TIP3   OH216980   6.568   2.721   1.025
 5680TIP3    H116981   6.525   2.635   1.030
 5680TIP3    H216982   6.509   2.773   0.971
 5681TIP3   OH216983   5.340   4.253   2.691
 5681TIP3    H116984   5.417   4.212   2.653
 5681TIP3    H216985   5.336   4.339   2.649
 5682TIP3   OH216986   4.594   2.182   6.069
 5682TIP3    H116987   4.637   2.265   6.091
 5682TIP3    H216988   4.555   2.153   6.152
 5683TIP3   OH216989   7.231   5.501   0.769
 5683TIP3    H116990   7.272   5.417   0.791
 5683TIP3    H216991   7.137   5.480   0.763
 5684TIP3   OH216992   6.718   6.253   5.427
 5684TIP3    H116993   6.810   6.277   5.441
 5684TIP3    H216994   6.706   6.257   5.333
 5685TIP3   OH216995   5.893   0.079   5.790
 5685TIP3    H116996   5.877   0.173   5.802
 5685TIP3    H216997   5.848   0.038   5.863
 5686TIP3   OH216998   3.917   7.796   1.744
 5686TIP3    H116999   3.841   7.737   1.738
 5686TIP3    H217000   3.922   7.818   1.837
 5687TIP3   OH217001   7.653   3.405   5.243
 5687TIP3    H117002   7.577   3.431   5.191
 5687TIP3    H217003   7.616   3.370   5.324
 5688TIP3   OH217004   4.572   7.207   2.641
 5688TIP3    H117005   4.597   7.298   2.655
 5688TIP3    H217006   4.622   7.157   2.706
 5689TIP3   OH217007   0.480   5.453   3.032
 5689TIP3    H117008   0.447   5.394   3.100
 5689TIP3    H217009   0.402   5.484   2.987
 5690TIP3   OH217010   1.802   7.792   0.465
 5690TIP3    H117011   1.748   7.747   0.530
 5690TIP3    H217012   1.876   7.826   0.515
 5691TIP3   OH217013   7.713   0.699   3.133
 5691TIP3    H117014   7.790   0.745   3.165
 5691TIP3    H217015   7.696   0.738   3.047
 5692TIP3   OH217016   7.343   5.240   1.743
 5692TIP3    H117017   7.253   5.268   1.727
 5692TIP3    H217018   7.373   5.295   1.816
 5693TIP3   OH217019   6.075   7.880   6.215
 5693TIP3    H117020   6.131   7.929   6.275
 5693TIP3    H217021   6.091   7.788   6.236
 5694TIP3   OH217022   6.900   3.027   5.057
 5694TIP3    H117023   6.816   3.015   5.014
 5694TIP3    H217024   6.964   2.991   4.996
 5695TIP3   OH217025   7.358   2.945   1.984
 5695TIP3    H117026   7.313   2.866   1.955
 5695TIP3    H217027   7.415   2.916   2.056
 5696TIP3   OH217028   1.143   3.393   1.900
 5696TIP3    H117029   1.208   3.334   1.938
 5696TIP3    H217030   1.060   3.366   1.939
 5697TIP3   OH217031   4.152   2.655   4.296
 5697TIP3    H117032   4.125   2.741   4.265
 5697TIP3    H217033   4.147   2.599   4.218
 5698TIP3   OH217034   7.148   0.374   5.549
 5698TIP3    H117035   7.143   0.280   5.537
 5698TIP3    H217036   7.143   0.386   5.644
 5699TIP3   OH217037   5.295   7.316   1.336
 5699TIP3    H117038   5.334   7.283   1.417
 5699TIP3    H217039   5.355   7.385   1.307
 5700TIP3   OH217040   4.656   1.156   4.682
 5700TIP3    H117041   4.644   1.170   4.588
 5700TIP3    H217042   4.569   1.164   4.719
 5701TIP3   OH217043   3.578   5.937   6.040
 5701TIP3    H117044   3.604   6.013   6.093
 5701TIP3    H217045   3.622   5.863   6.081
 5702TIP3   OH217046   3.579   5.537   2.817
 5702TIP3    H117047   3.588   5.563   2.725
 5702TIP3    H217048   3.612   5.612   2.866
 5703TIP3   OH217049   3.776   7.243   1.943
 5703TIP3    H117050   3.792   7.214   2.033
 5703TIP3    H217051   3.739   7.166   1.900
 5704TIP3   OH217052   2.972   1.226   3.121
 5704TIP3    H117053   3.045   1.174   3.088
 5704TIP3    H217054   2.912   1.162   3.159
 5705TIP3   OH217055   2.374   5.991   5.012
 5705TIP3    H117056   2.429   6.029   4.943
 5705TIP3    H217057   2.303   6.054   5.023
 5706TIP3   OH217058   8.023   0.077   5.029
 5706TIP3    H117059   8.046   0.161   4.989
 5706TIP3    H217060   8.022   0.095   5.123
 5707TIP3   OH217061   2.494   7.147   5.176
 5707TIP3    H117062   2.431   7.110   5.238
 5707TIP3    H217063   2.447   7.217   5.132
 5708TIP3   OH217064   0.299   2.729   1.025
 5708TIP3    H117065   0.346   2.740   1.108
 5708TIP3    H217066   0.310   2.637   1.003
 5709TIP3   OH217067   2.236   0.625   0.232
 5709TIP3    H117068   2.202   0.584   0.311
 5709TIP3    H217069   2.243   0.554   0.169
 5710TIP3   OH217070   3.649   1.252   3.801
 5710TIP3    H117071   3.572   1.214   3.760
 5710TIP3    H217072   3.700   1.288   3.729
 5711TIP3   OH217073   0.981   2.666   5.660
 5711TIP3    H117074   0.936   2.582   5.647
 5711TIP3    H217075   0.972   2.710   5.575
 5712TIP3   OH217076   1.578   7.451   3.623
 5712TIP3    H117077   1.511   7.509   3.660
 5712TIP3    H217078   1.603   7.494   3.541
 5713TIP3   OH217079   3.622   3.515   3.236
 5713TIP3    H117080   3.533   3.525   3.270
 5713TIP3    H217081   3.624   3.570   3.158
 5714TIP3   OH217082   5.767   3.046   6.396
 5714TIP3    H117083   5.729   3.077   6.478
 5714TIP3    H217084   5.736   3.108   6.330
 5715TIP3   OH217085   0.349   7.296   1.213
 5715TIP3    H117086   0.268   7.280   1.163
 5715TIP3    H217087   0.361   7.216   1.264
 5716TIP3   OH217088   7.467   7.272   0.146
 5716TIP3    H117089   7.456   7.366   0.161
 5716TIP3    H217090   7.380   7.242   0.117
 5717TIP3   OH217091   0.775   1.274   5.779
 5717TIP3    H117092   0.788   1.270   5.874
 5717TIP3    H217093   0.716   1.349   5.766
 5718TIP3   OH217094   3.437   2.542   5.506
 5718TIP3    H117095   3.358   2.524   5.558
 5718TIP3    H217096   3.413   2.520   5.417
 5719TIP3   OH217097   6.581   3.292   0.079
 5719TIP3    H117098   6.572   3.263  -0.012
 5719TIP3    H217099   6.501   3.262   0.122
 5720TIP3   OH217100   0.641   4.254   0.499
 5720TIP3    H117101   0.552   4.272   0.530
 5720TIP3    H217102   0.632   4.243   0.405
 5721TIP3   OH217103   3.602   0.712   6.440
 5721TIP3    H117104   3.638   0.799   6.420
 5721TIP3    H217105   3.578   0.676   6.354
 5722TIP3   OH217106   8.389   1.244   2.690
 5722TIP3    H117107   8.403   1.286   2.775
 5722TIP3    H217108   8.379   1.151   2.710
 5723TIP3   OH217109   2.288   2.016   5.492
 5723TIP3    H117110   2.206   1.967   5.491
 5723TIP3    H217111   2.281   2.073   5.568
 5724TIP3   OH217112   5.373   3.479   6.589
 5724TIP3    H117113   5.425   3.408   6.552
 5724TIP3    H217114   5.354   3.536   6.515
 5725TIP3   OH217115   2.397   5.375   0.868
 5725TIP3    H117116   2.433   5.360   0.781
 5725TIP3    H217117   2.362   5.290   0.895
 5726TIP3   OH217118   7.058   7.591   0.067
 5726TIP3    H117119   7.042   7.599   0.161
 5726TIP3    H217120   7.064   7.681   0.036
 5727TIP3   OH217121   0.968   5.735   4.768
 5727TIP3    H117122   0.920   5.772   4.694
 5727TIP3    H217123   0.938   5.786   4.843
 5728TIP3   OH217124   6.873   7.613   1.817
 5728TIP3    H117125   6.781   7.612   1.791
 5728TIP3    H217126   6.921   7.602   1.735
 5729TIP3   OH217127   4.969   0.571   6.576
 5729TIP3    H117128   4.921   0.577   6.658
 5729TIP3    H217129   5.020   0.652   6.570
 5730TIP3   OH217130   7.173   3.392   5.890
 5730TIP3    H117131   7.233   3.322   5.864
 5730TIP3    H217132   7.149   3.434   5.807
 5731TIP3   OH217133   7.677   3.557  -0.017
 5731TIP3    H117134   7.622   3.480  -0.002
 5731TIP3    H217135   7.639   3.625   0.038
 5732TIP3   OH217136   6.064   7.058   0.356
 5732TIP3    H117137   6.064   7.135   0.299
 5732TIP3    H217138   5.976   7.021   0.347
 5733TIP3   OH217139   2.098   7.241   1.223
 5733TIP3    H117140   2.104   7.260   1.129
 5733TIP3    H217141   2.179   7.192   1.242
 5734TIP3   OH217142   3.347   4.409   3.939
 5734TIP3    H117143   3.411   4.339   3.956
 5734TIP3    H217144   3.279   4.395   4.005
 5735TIP3   OH217145   2.687   7.665   5.582
 5735TIP3    H117146   2.690   7.569   5.580
 5735TIP3    H217147   2.596   7.686   5.601
 5736TIP3   OH217148   1.437   0.433   2.229
 5736TIP3    H117149   1.488   0.357   2.257
 5736TIP3    H217150   1.487   0.508   2.258
 5737TIP3   OH217151   2.591   4.473   0.050
 5737TIP3    H117152   2.578   4.389   0.007
 5737TIP3    H217153   2.599   4.451   0.143
 5738TIP3   OH217154   4.359   1.579   3.294
 5738TIP3    H117155   4.289   1.522   3.263
 5738TIP3    H217156   4.319   1.632   3.362
 5739TIP3   OH217157   4.004   5.256   2.426
 5739TIP3    H117158   3.983   5.168   2.394
 5739TIP3    H217159   3.990   5.251   2.520
 5740TIP3   OH217160   7.115   2.978   4.339
 5740TIP3    H117161   7.105   3.072   4.324
 5740TIP3    H217162   7.209   2.965   4.354
 5741TIP3   OH217163   6.151   0.055   4.111
 5741TIP3    H117164   6.231   0.079   4.065
 5741TIP3    H217165   6.172   0.065   4.203
 5742TIP3   OH217166   2.060   1.124   1.266
 5742TIP3    H117167   1.999   1.053   1.286
 5742TIP3    H217168   2.004   1.199   1.249
 5743TIP3   OH217169   8.297   2.580   4.954
 5743TIP3    H117170   8.392   2.586   4.946
 5743TIP3    H217171   8.264   2.658   4.909
 5744TIP3   OH217172   2.111   2.724   4.589
 5744TIP3    H117173   2.055   2.658   4.630
 5744TIP3    H217174   2.190   2.726   4.643
 5745TIP3   OH217175   1.919   4.311   6.191
 5745TIP3    H117176   1.834   4.335   6.227
 5745TIP3    H217177   1.899   4.253   6.118
 5746TIP3   OH217178   4.925   1.495   1.075
 5746TIP3    H117179   4.972   1.568   1.036
 5746TIP3    H217180   4.993   1.429   1.092
 5747TIP3   OH217181   0.400   4.511   4.354
 5747TIP3    H117182   0.453   4.451   4.302
 5747TIP3    H217183   0.436   4.598   4.333
 5748TIP3   OH217184   5.384   0.900   1.837
 5748TIP3    H117185   5.454   0.956   1.806
 5748TIP3    H217186   5.385   0.825   1.778
 5749TIP3   OH217187   8.168   3.932   0.891
 5749TIP3    H117188   8.120   3.854   0.918
 5749TIP3    H217189   8.178   3.923   0.797
 5750TIP3   OH217190   0.855   4.367   5.068
 5750TIP3    H117191   0.896   4.331   5.147
 5750TIP3    H217192   0.811   4.446   5.099
 5751TIP3   OH217193   1.389   7.641   4.741
 5751TIP3    H117194   1.346   7.555   4.740
 5751TIP3    H217195   1.338   7.691   4.805
 5752TIP3   OH217196   0.953   7.261   5.028
 5752TIP3    H117197   0.957   7.251   4.933
 5752TIP3    H217198   0.910   7.345   5.042
 5753TIP3   OH217199   0.357   5.261   6.751
 5753TIP3    H117200   0.388   5.220   6.671
 5753TIP3    H217201   0.428   5.321   6.777
 5754TIP3   OH217202   1.286   7.738   3.261
 5754TIP3    H117203   1.251   7.767   3.177
 5754TIP3    H217204   1.285   7.817   3.315
 5755TIP3   OH217205   4.980   1.312   0.496
 5755TIP3    H117206   4.950   1.229   0.533
 5755TIP3    H217207   4.977   1.299   0.401
 5756TIP3   OH217208   0.866   1.775   0.665
 5756TIP3    H117209   0.858   1.835   0.590
 5756TIP3    H217210   0.944   1.805   0.712
 5757TIP3   OH217211   5.709   5.440   6.057
 5757TIP3    H117212   5.619   5.452   6.086
 5757TIP3    H217213   5.745   5.374   6.117
 5758TIP3   OH217214   2.724   5.020   0.426
 5758TIP3    H117215   2.785   4.981   0.363
 5758TIP3    H217216   2.733   5.114   0.413
 5759TIP3   OH217217   1.090   7.185   1.853
 5759TIP3    H117218   1.072   7.197   1.946
 5759TIP3    H217219   1.084   7.091   1.839
 5760TIP3   OH217220   3.550   5.044   4.962
 5760TIP3    H117221   3.608   5.049   4.887
 5760TIP3    H217222   3.465   5.075   4.930
 5761TIP3   OH217223   6.433   0.909   3.720
 5761TIP3    H117224   6.497   0.849   3.682
 5761TIP3    H217225   6.467   0.997   3.700
 5762TIP3   OH217226   3.992   7.610   2.626
 5762TIP3    H117227   4.081   7.597   2.661
 5762TIP3    H217228   3.948   7.527   2.642
 5763TIP3   OH217229   8.238   7.449   1.887
 5763TIP3    H117230   8.220   7.484   1.800
 5763TIP3    H217231   8.167   7.387   1.902
 5764TIP3   OH217232   7.918   2.573   6.245
 5764TIP3    H117233   7.825   2.553   6.247
 5764TIP3    H217234   7.960   2.494   6.278
 5765TIP3   OH217235   8.336   3.606   3.109
 5765TIP3    H117236   8.314   3.561   3.191
 5765TIP3    H217237   8.368   3.538   3.052
 5766TIP3   OH217238   6.708   2.263   5.106
 5766TIP3    H117239   6.799   2.256   5.134
 5766TIP3    H217240   6.705   2.215   5.023
 5767TIP3   OH217241   4.985   0.902   4.277
 5767TIP3    H117242   4.996   0.933   4.188
 5767TIP3    H217243   4.892   0.915   4.296
 5768TIP3   OH217244   0.471   3.800   5.111
 5768TIP3    H117245   0.431   3.774   5.028
 5768TIP3    H217246   0.547   3.853   5.087
 5769TIP3   OH217247   7.340   2.954   2.904
 5769TIP3    H117248   7.352   3.012   2.978
 5769TIP3    H217249   7.318   3.012   2.831
 5770TIP3   OH217250   4.928   1.344   5.835
 5770TIP3    H117251   4.929   1.435   5.866
 5770TIP3    H217252   4.897   1.293   5.909
 5771TIP3   OH217253   0.002   7.245   3.030
 5771TIP3    H117254  -0.075   7.188   3.027
 5771TIP3    H217255   0.072   7.189   3.064
 5772TIP3   OH217256   4.944   0.112   1.457
 5772TIP3    H117257   4.983   0.042   1.405
 5772TIP3    H217258   4.921   0.070   1.540
 5773TIP3   OH217259   3.062   4.169   3.539
 5773TIP3    H117260   3.151   4.167   3.504
 5773TIP3    H217261   3.053   4.088   3.588
 5774TIP3   OH217262   5.334   5.719   4.472
 5774TIP3    H117263   5.299   5.771   4.400
 5774TIP3    H217264   5.259   5.707   4.532
 5775TIP3   OH217265   2.781   3.158   2.281
 5775TIP3    H117266   2.697   3.126   2.315
 5775TIP3    H217267   2.769   3.157   2.186
 5776TIP3   OH217268   3.392   3.554   3.862
 5776TIP3    H117269   3.338   3.505   3.924
 5776TIP3    H217270   3.481   3.549   3.899
 5777TIP3   OH217271   2.120   3.796   6.813
 5777TIP3    H117272   2.174   3.822   6.888
 5777TIP3    H217273   2.158   3.713   6.785
 5778TIP3   OH217274   3.100   1.423   3.879
 5778TIP3    H117275   3.178   1.369   3.869
 5778TIP3    H217276   3.061   1.394   3.962
 5779TIP3   OH217277   7.730   2.349   2.527
 5779TIP3    H117278   7.786   2.427   2.534
 5779TIP3    H217279   7.791   2.278   2.509
 5780TIP3   OH217280   3.969   5.824   2.538
 5780TIP3    H117281   3.973   5.774   2.457
 5780TIP3    H217282   3.963   5.758   2.607
 5781TIP3   OH217283   1.908   4.849   2.039
 5781TIP3    H117284   1.980   4.837   2.102
 5781TIP3    H217285   1.940   4.918   1.981
 5782TIP3   OH217286   5.504   5.214   4.092
 5782TIP3    H117287   5.416   5.252   4.080
 5782TIP3    H217288   5.555   5.285   4.131
 5783TIP3   OH217289   2.935   2.028   0.209
 5783TIP3    H117290   2.857   2.009   0.263
 5783TIP3    H217291   2.899   2.056   0.125
 5784TIP3   OH217292   7.956   5.902   1.073
 5784TIP3    H117293   7.947   5.890   0.978
 5784TIP3    H217294   8.046   5.875   1.092
 5785TIP3   OH217295   2.290   5.781   0.795
 5785TIP3    H117296   2.340   5.851   0.754
 5785TIP3    H217297   2.299   5.707   0.735
 5786TIP3   OH217298   5.020   0.920   0.221
 5786TIP3    H117299   5.037   0.886   0.309
 5786TIP3    H217300   5.107   0.936   0.184
 5787TIP3   OH217301   6.716   2.328   1.231
 5787TIP3    H117302   6.689   2.413   1.267
 5787TIP3    H217303   6.811   2.330   1.235
 5788TIP3   OH217304   2.402   3.887   3.199
 5788TIP3    H117305   2.467   3.822   3.174
 5788TIP3    H217306   2.319   3.839   3.199
 5789TIP3   OH217307   4.465   3.188   2.495
 5789TIP3    H117308   4.417   3.131   2.435
 5789TIP3    H217309   4.452   3.149   2.581
 5790TIP3   OH217310   1.477   4.675   3.451
 5790TIP3    H117311   1.480   4.760   3.495
 5790TIP3    H217312   1.467   4.611   3.522
 5791TIP3   OH217313   5.843   3.430   4.486
 5791TIP3    H117314   5.772   3.371   4.460
 5791TIP3    H217315   5.896   3.439   4.407
 5792TIP3   OH217316   7.737   1.215   4.388
 5792TIP3    H117317   7.777   1.301   4.403
 5792TIP3    H217318   7.804   1.165   4.342
 5793TIP3   OH217319   5.444   3.376   2.641
 5793TIP3    H117320   5.435   3.371   2.546
 5793TIP3    H217321   5.365   3.420   2.671
 5794TIP3   OH217322   3.051   0.969   2.846
 5794TIP3    H117323   3.099   0.984   2.927
 5794TIP3    H217324   3.091   1.028   2.783
 5795TIP3   OH217325   2.260   6.207   6.050
 5795TIP3    H117326   2.311   6.199   6.130
 5795TIP3    H217327   2.222   6.295   6.055
 5796TIP3   OH217328   4.715   3.960   5.292
 5796TIP3    H117329   4.715   3.924   5.380
 5796TIP3    H217330   4.773   3.902   5.242
 5797TIP3   OH217331   6.894   1.327   0.673
 5797TIP3    H117332   6.955   1.257   0.699
 5797TIP3    H217333   6.846   1.290   0.599
 5798TIP3   OH217334   1.640   0.601   3.418
 5798TIP3    H117335   1.691   0.605   3.337
 5798TIP3    H217336   1.565   0.545   3.397
 5799TIP3   OH217337   6.187   6.007   3.265
 5799TIP3    H117338   6.184   5.982   3.358
 5799TIP3    H217339   6.262   6.066   3.258
 5800TIP3   OH217340   6.028   3.289   4.621
 5800TIP3    H117341   5.976   3.252   4.692
 5800TIP3    H217342   5.966   3.339   4.568
 5801TIP3   OH217343   2.223   6.208   5.102
 5801TIP3    H117344   2.226   6.289   5.051
 5801TIP3    H217345   2.152   6.222   5.165
 5802TIP3   OH217346   1.754   2.549   2.790
 5802TIP3    H117347   1.779   2.462   2.758
 5802TIP3    H217348   1.801   2.610   2.733
 5803TIP3   OH217349   6.048   4.077   4.107
 5803TIP3    H117350   5.956   4.104   4.111
 5803TIP3    H217351   6.097   4.154   4.133
 5804TIP3   OH217352   4.489   4.855   6.336
 5804TIP3    H117353   4.416   4.883   6.392
 5804TIP3    H217354   4.447   4.818   6.259
 5805TIP3   OH217355   6.408   5.852   0.438
 5805TIP3    H117356   6.370   5.937   0.416
 5805TIP3    H217357   6.333   5.793   0.447
 5806TIP3   OH217358   3.492   7.396   4.423
 5806TIP3    H117359   3.502   7.491   4.428
 5806TIP3    H217360   3.438   7.374   4.499
 5807TIP3   OH217361   6.184   0.433   0.402
 5807TIP3    H117362   6.212   0.409   0.490
 5807TIP3    H217363   6.163   0.526   0.408
 5808TIP3   OH217364   2.500   0.553   6.494
 5808TIP3    H117365   2.454   0.617   6.550
 5808TIP3    H217366   2.459   0.469   6.515
 5809TIP3   OH217367   7.890   2.763   0.642
 5809TIP3    H117368   7.824   2.712   0.687
 5809TIP3    H217369   7.969   2.755   0.696
 5810TIP3   OH217370   6.762   3.263   2.394
 5810TIP3    H117371   6.729   3.340   2.349
 5810TIP3    H217372   6.845   3.244   2.350
 5811TIP3   OH217373   2.009   5.120   2.352
 5811TIP3    H117374   1.985   5.027   2.355
 5811TIP3    H217375   1.977   5.156   2.434
 5812TIP3   OH217376   1.979   1.407   0.761
 5812TIP3    H117377   1.991   1.367   0.675
 5812TIP3    H217378   2.055   1.465   0.771
 5813TIP3   OH217379   0.474   6.475   4.368
 5813TIP3    H117380   0.437   6.434   4.446
 5813TIP3    H217381   0.463   6.410   4.299
 5814TIP3   OH217382   1.937   1.417   3.557
 5814TIP3    H117383   1.952   1.345   3.618
 5814TIP3    H217384   1.842   1.422   3.548
 5815TIP3   OH217385   1.150   7.076   1.168
 5815TIP3    H117386   1.195   7.087   1.251
 5815TIP3    H217387   1.151   7.163   1.128
 5816TIP3   OH217388   1.945   0.302   0.774
 5816TIP3    H117389   1.904   0.228   0.728
 5816TIP3    H217390   1.883   0.374   0.763
 5817TIP3   OH217391   3.412   7.376   4.685
 5817TIP3    H117392   3.344   7.438   4.712
 5817TIP3    H217393   3.393   7.296   4.734
 5818TIP3   OH217394   7.165   5.428   4.888
 5818TIP3    H117395   7.125   5.495   4.943
 5818TIP3    H217396   7.187   5.473   4.807
 5819TIP3   OH217397   7.222   2.420   5.878
 5819TIP3    H117398   7.233   2.359   5.952
 5819TIP3    H217399   7.234   2.507   5.917
 5820TIP3   OH217400   2.484   4.659   1.169
 5820TIP3    H117401   2.449   4.651   1.081
 5820TIP3    H217402   2.519   4.573   1.190
 5821TIP3   OH217403  -0.026   1.879   4.196
 5821TIP3    H117404   0.030   1.956   4.199
 5821TIP3    H217405  -0.003   1.830   4.275
 5822TIP3   OH217406   2.408   1.093   3.009
 5822TIP3    H117407   2.354   1.138   3.074
 5822TIP3    H217408   2.346   1.067   2.940
 5823TIP3   OH217409   4.539   4.201   3.551
 5823TIP3    H117410   4.599   4.271   3.527
 5823TIP3    H217411   4.481   4.192   3.475
 5824TIP3   OH217412   0.954   3.298   0.204
 5824TIP3    H117413   1.017   3.361   0.240
 5824TIP3    H217414   0.931   3.334   0.119
 5825TIP3   OH217415   4.525   2.029   4.563
 5825TIP3    H117416   4.468   1.979   4.506
 5825TIP3    H217417   4.613   1.995   4.545
 5826TIP3   OH217418   7.934   1.331   6.238
 5826TIP3    H117419   7.886   1.268   6.292
 5826TIP3    H217420   8.019   1.340   6.282
 5827TIP3   OH217421   7.568   3.361   5.921
 5827TIP3    H117422   7.625   3.420   5.970
 5827TIP3    H217423   7.588   3.274   5.955
 5828TIP3   OH217424   5.974   2.224   1.107
 5828TIP3    H117425   6.028   2.148   1.085
 5828TIP3    H217426   5.898   2.217   1.049
 5829TIP3   OH217427   2.149   6.844   2.497
 5829TIP3    H117428   2.191   6.893   2.567
 5829TIP3    H217429   2.221   6.820   2.438
 5830TIP3   OH217430   4.191   2.285   1.745
 5830TIP3    H117431   4.132   2.348   1.703
 5830TIP3    H217432   4.223   2.231   1.672
 5831TIP3   OH217433   7.555   2.298   0.178
 5831TIP3    H117434   7.554   2.207   0.149
 5831TIP3    H217435   7.606   2.344   0.111
 5832TIP3   OH217436   5.762   5.768   6.802
 5832TIP3    H117437   5.823   5.695   6.811
 5832TIP3    H217438   5.755   5.804   6.890
 5833TIP3   OH217439   0.858   6.622   0.033
 5833TIP3    H117440   0.794   6.692   0.048
 5833TIP3    H217441   0.943   6.665   0.045
 5834TIP3   OH217442   2.415   1.919   5.120
 5834TIP3    H117443   2.489   1.900   5.063
 5834TIP3    H217444   2.430   2.009   5.150
 5835TIP3   OH217445   5.778   4.094   4.210
 5835TIP3    H117446   5.731   4.018   4.177
 5835TIP3    H217447   5.829   4.060   4.284
 5836TIP3   OH217448   3.108   2.108   3.585
 5836TIP3    H117449   3.022   2.092   3.547
 5836TIP3    H217450   3.129   2.027   3.632
 5837TIP3   OH217451   7.565   4.372   3.720
 5837TIP3    H117452   7.581   4.421   3.800
 5837TIP3    H217453   7.532   4.436   3.657
 5838TIP3   OH217454   4.260   5.683   1.708
 5838TIP3    H117455   4.244   5.665   1.800
 5838TIP3    H217456   4.244   5.777   1.699
 5839TIP3   OH217457   5.850   0.201   5.130
 5839TIP3    H117458   5.914   0.182   5.061
 5839TIP3    H217459   5.860   0.129   5.192
 5840TIP3   OH217460   2.346   5.448   6.628
 5840TIP3    H117461   2.376   5.384   6.693
 5840TIP3    H217462   2.280   5.402   6.577
 5841TIP3   OH217463   7.717   4.082   3.196
 5841TIP3    H117464   7.639   4.129   3.224
 5841TIP3    H217465   7.776   4.086   3.271
 5842TIP3   OH217466   6.684   6.709   1.015
 5842TIP3    H117467   6.741   6.698   0.938
 5842TIP3    H217468   6.686   6.624   1.059
 5843TIP3   OH217469   6.723   4.235   2.306
 5843TIP3    H117470   6.747   4.183   2.383
 5843TIP3    H217471   6.632   4.260   2.322
 5844TIP3   OH217472   0.561   3.640   2.962
 5844TIP3    H117473   0.654   3.657   2.976
 5844TIP3    H217474   0.517   3.719   2.995
 5845TIP3   OH217475   7.344   4.958   1.705
 5845TIP3    H117476   7.344   5.054   1.699
 5845TIP3    H217477   7.376   4.929   1.620
 5846TIP3   OH217478   3.616   2.978   5.947
 5846TIP3    H117479   3.613   2.935   5.862
 5846TIP3    H217480   3.675   2.924   5.999
 5847TIP3   OH217481   5.055   6.962   5.569
 5847TIP3    H117482   5.027   7.053   5.578
 5847TIP3    H217483   5.148   6.963   5.593
 5848TIP3   OH217484   1.439   5.123   5.596
 5848TIP3    H117485   1.344   5.114   5.605
 5848TIP3    H217486   1.450   5.177   5.518
 5849TIP3   OH217487   2.338   5.741   2.618
 5849TIP3    H117488   2.417   5.777   2.659
 5849TIP3    H217489   2.266   5.780   2.667
 5850TIP3   OH217490   6.046   2.531   4.389
 5850TIP3    H117491   6.110   2.594   4.356
 5850TIP3    H217492   5.972   2.585   4.417
 5851TIP3   OH217493   3.749   5.833   0.065
 5851TIP3    H117494   3.655   5.828   0.084
 5851TIP3    H217495   3.787   5.761   0.115
 5852TIP3   OH217496   4.175   7.206   6.732
 5852TIP3    H117497   4.204   7.187   6.821
 5852TIP3    H217498   4.107   7.141   6.715
 5853TIP3   OH217499   2.316   7.269   3.253
 5853TIP3    H117500   2.229   7.247   3.285
 5853TIP3    H217501   2.331   7.358   3.285
 5854TIP3   OH217502   2.034   6.256   6.633
 5854TIP3    H117503   2.114   6.226   6.676
 5854TIP3    H217504   1.963   6.228   6.691
 5855TIP3   OH217505   3.958   7.686   4.901
 5855TIP3    H117506   3.871   7.720   4.881
 5855TIP3    H217507   3.946   7.591   4.907
 5856TIP3   OH217508   8.187   4.573   5.344
 5856TIP3    H117509   8.117   4.633   5.321
 5856TIP3    H217510   8.206   4.526   5.262
 5857TIP3   OH217511   0.577   2.715   6.130
 5857TIP3    H117512   0.550   2.747   6.044
 5857TIP3    H217513   0.656   2.766   6.150
 5858TIP3   OH217514   5.050   7.703   3.945
 5858TIP3    H117515   5.018   7.655   4.022
 5858TIP3    H217516   5.142   7.719   3.963
 5859TIP3   OH217517   1.070   3.369   5.429
 5859TIP3    H117518   1.127   3.383   5.354
 5859TIP3    H217519   1.029   3.284   5.412
 5860TIP3   OH217520   8.188   6.669   2.500
 5860TIP3    H117521   8.136   6.640   2.576
 5860TIP3    H217522   8.170   6.605   2.432
 5861TIP3   OH217523   3.976   5.375   6.183
 5861TIP3    H117524   3.988   5.307   6.117
 5861TIP3    H217525   3.973   5.457   6.134
 5862TIP3   OH217526   8.241   3.336   6.743
 5862TIP3    H117527   8.190   3.417   6.741
 5862TIP3    H217528   8.293   3.343   6.823
 5863TIP3   OH217529   0.953   0.859   5.426
 5863TIP3    H117530   0.871   0.885   5.469
 5863TIP3    H217531   0.985   0.939   5.385
 5864TIP3   OH217532   0.439   6.000   2.558
 5864TIP3    H117533   0.351   5.982   2.525
 5864TIP3    H217534   0.468   5.917   2.595
 5865TIP3   OH217535   4.626   2.406   1.394
 5865TIP3    H117536   4.564   2.351   1.441
 5865TIP3    H217537   4.592   2.411   1.305
 5866TIP3   OH217538   0.394   2.089   4.325
 5866TIP3    H117539   0.385   2.184   4.312
 5866TIP3    H217540   0.332   2.051   4.262
 5867TIP3   OH217541   4.424   1.437   3.770
 5867TIP3    H117542   4.394   1.482   3.691
 5867TIP3    H217543   4.389   1.489   3.842
 5868TIP3   OH217544   0.078   6.689   5.919
 5868TIP3    H117545   0.156   6.636   5.903
 5868TIP3    H217546   0.016   6.662   5.851
 5869TIP3   OH217547   4.451   1.184   3.176
 5869TIP3    H117548   4.429   1.259   3.230
 5869TIP3    H217549   4.426   1.108   3.229
 5870TIP3   OH217550   4.269   0.231   3.951
 5870TIP3    H117551   4.316   0.252   3.871
 5870TIP3    H217552   4.304   0.291   4.016
 5871TIP3   OH217553   0.736   1.440   3.174
 5871TIP3    H117554   0.676   1.478   3.110
 5871TIP3    H217555   0.681   1.385   3.229
 5872TIP3   OH217556   8.362   5.402   1.509
 5872TIP3    H117557   8.382   5.438   1.596
 5872TIP3    H217558   8.335   5.478   1.458
 5873TIP3   OH217559   6.664   5.202   6.792
 5873TIP3    H117560   6.597   5.270   6.788
 5873TIP3    H217561   6.629   5.139   6.855
 5874TIP3   OH217562   1.003   4.658   6.844
 5874TIP3    H117563   0.995   4.572   6.802
 5874TIP3    H217564   1.097   4.675   6.847
 5875TIP3   OH217565   8.135   6.683   5.173
 5875TIP3    H117566   8.051   6.706   5.212
 5875TIP3    H217567   8.122   6.692   5.079
 5876TIP3   OH217568   8.091   7.267   5.895
 5876TIP3    H117569   8.110   7.351   5.854
 5876TIP3    H217570   8.169   7.248   5.948
 5877TIP3   OH217571   1.790   4.936   1.601
 5877TIP3    H117572   1.698   4.935   1.629
 5877TIP3    H217573   1.802   5.022   1.561
 5878TIP3   OH217574   7.880   7.587   2.249
 5878TIP3    H117575   7.912   7.500   2.272
 5878TIP3    H217576   7.953   7.646   2.271
 5879TIP3   OH217577   7.642   5.765   1.006
 5879TIP3    H117578   7.563   5.767   0.951
 5879TIP3    H217579   7.714   5.763   0.944
 5880TIP3   OH217580   5.316   3.551   1.984
 5880TIP3    H117581   5.246   3.511   2.035
 5880TIP3    H217582   5.366   3.477   1.950
 5881TIP3   OH217583   1.622   7.734   0.907
 5881TIP3    H117584   1.572   7.803   0.951
 5881TIP3    H217585   1.602   7.655   0.956
 5882TIP3   OH217586   1.999   4.477   0.469
 5882TIP3    H117587   2.012   4.560   0.515
 5882TIP3    H217588   1.975   4.415   0.537
 5883TIP3   OH217589   0.216   1.771   4.670
 5883TIP3    H117590   0.228   1.676   4.673
 5883TIP3    H217591   0.298   1.805   4.635
 5884TIP3   OH217592   4.986   5.257   3.317
 5884TIP3    H117593   5.062   5.204   3.337
 5884TIP3    H217594   4.911   5.200   3.334
 5885TIP3   OH217595   2.036   0.764   6.736
 5885TIP3    H117596   1.999   0.763   6.648
 5885TIP3    H217597   2.129   0.747   6.724
 5886TIP3   OH217598   4.543   0.933   1.199
 5886TIP3    H117599   4.482   0.881   1.146
 5886TIP3    H217600   4.577   0.871   1.264
 5887TIP3   OH217601   5.639   0.518   6.173
 5887TIP3    H117602   5.597   0.568   6.103
 5887TIP3    H217603   5.722   0.489   6.135
 5888TIP3   OH217604   2.080   0.335   3.339
 5888TIP3    H117605   1.993   0.372   3.350
 5888TIP3    H217606   2.121   0.343   3.426
 5889TIP3   OH217607   6.290   6.709   4.828
 5889TIP3    H117608   6.375   6.710   4.871
 5889TIP3    H217609   6.293   6.784   4.768
 5890TIP3   OH217610   3.973   1.193   2.464
 5890TIP3    H117611   3.940   1.153   2.544
 5890TIP3    H217612   4.068   1.180   2.469
 5891TIP3   OH217613   2.834   1.270   1.952
 5891TIP3    H117614   2.895   1.246   2.022
 5891TIP3    H217615   2.886   1.267   1.872
 5892TIP3   OH217616   3.678   4.747   0.983
 5892TIP3    H117617   3.619   4.799   1.037
 5892TIP3    H217618   3.732   4.699   1.045
 5893TIP3   OH217619   2.828   4.874   3.914
 5893TIP3    H117620   2.838   4.789   3.955
 5893TIP3    H217621   2.818   4.936   3.986
 5894TIP3   OH217622   2.771   6.051   4.097
 5894TIP3    H117623   2.859   6.041   4.061
 5894TIP3    H217624   2.771   5.993   4.174
 5895TIP3   OH217625   0.637   0.511   4.211
 5895TIP3    H117626   0.624   0.592   4.260
 5895TIP3    H217627   0.595   0.527   4.126
 5896TIP3   OH217628   5.529   3.220   3.195
 5896TIP3    H117629   5.567   3.307   3.209
 5896TIP3    H217630   5.484   3.226   3.111
 5897TIP3   OH217631   2.359   5.255   2.568
 5897TIP3    H117632   2.276   5.214   2.594
 5897TIP3    H217633   2.425   5.187   2.584
 5898TIP3   OH217634   1.970   4.972   3.236
 5898TIP3    H117635   1.875   4.957   3.230
 5898TIP3    H217636   2.009   4.888   3.211
 5899TIP3   OH217637   4.305   5.193   4.757
 5899TIP3    H117638   4.314   5.148   4.674
 5899TIP3    H217639   4.354   5.139   4.819
 5900TIP3   OH217640   7.581   2.032   6.484
 5900TIP3    H117641   7.584   1.985   6.567
 5900TIP3    H217642   7.640   2.107   6.497
 5901TIP3   OH217643   6.649   2.844   1.267
 5901TIP3    H117644   6.602   2.821   1.187
 5901TIP3    H217645   6.580   2.857   1.332
 5902TIP3   OH217646   1.963   2.525   3.098
 5902TIP3    H117647   1.883   2.517   3.048
 5902TIP3    H217648   2.026   2.469   3.053
 5903TIP3   OH217649   6.158   5.914   4.489
 5903TIP3    H117650   6.092   5.971   4.528
 5903TIP3    H217651   6.237   5.969   4.484
 5904TIP3   OH217652   6.089   4.954   0.981
 5904TIP3    H117653   6.048   5.010   0.916
 5904TIP3    H217654   6.080   4.865   0.946
 5905TIP3   OH217655   8.289   1.634   1.967
 5905TIP3    H117656   8.329   1.573   1.904
 5905TIP3    H217657   8.225   1.580   2.014
 5906TIP3   OH217658   5.503   4.128   3.832
 5906TIP3    H117659   5.570   4.078   3.787
 5906TIP3    H217660   5.551   4.183   3.894
 5907TIP3   OH217661   1.887   0.818   4.047
 5907TIP3    H117662   1.813   0.757   4.046
 5907TIP3    H217663   1.920   0.817   3.957
 5908TIP3   OH217664   6.530   0.631   0.264
 5908TIP3    H117665   6.626   0.623   0.265
 5908TIP3    H217666   6.504   0.593   0.180
 5909TIP3   OH217667   1.175   7.000   3.761
 5909TIP3    H117668   1.147   7.085   3.727
 5909TIP3    H217669   1.129   6.936   3.707
 5910TIP3   OH217670   1.634   5.757   5.977
 5910TIP3    H117671   1.651   5.827   6.041
 5910TIP3    H217672   1.561   5.708   6.014
 5911TIP3   OH217673   7.340   5.022   3.501
 5911TIP3    H117674   7.325   4.938   3.545
 5911TIP3    H217675   7.257   5.040   3.457
 5912TIP3   OH217676   5.596   4.633   4.081
 5912TIP3    H117677   5.663   4.699   4.065
 5912TIP3    H217678   5.529   4.650   4.015
 5913TIP3   OH217679   1.202   6.680   2.927
 5913TIP3    H117680   1.149   6.601   2.925
 5913TIP3    H217681   1.284   6.654   2.970
 5914TIP3   OH217682   5.331   4.014   0.048
 5914TIP3    H117683   5.392   4.005   0.121
 5914TIP3    H217684   5.249   3.976   0.081
 5915TIP3   OH217685   7.614   2.278   4.977
 5915TIP3    H117686   7.663   2.239   4.905
 5915TIP3    H217687   7.652   2.365   4.988
 5916TIP3   OH217688   1.544   0.997   1.487
 5916TIP3    H117689   1.538   1.008   1.393
 5916TIP3    H217690   1.479   0.930   1.508
 5917TIP3   OH217691   5.569   4.456   0.103
 5917TIP3    H117692   5.513   4.493   0.171
 5917TIP3    H217693   5.655   4.448   0.144
 5918TIP3   OH217694   0.303   1.232   2.727
 5918TIP3    H117695   0.270   1.209   2.813
 5918TIP3    H217696   0.388   1.272   2.744
 5919TIP3   OH217697   5.660   5.862   4.424
 5919TIP3    H117698   5.752   5.840   4.410
 5919TIP3    H217699   5.645   5.938   4.368
 5920TIP3   OH217700   1.250   1.489   2.707
 5920TIP3    H117701   1.214   1.535   2.631
 5920TIP3    H217702   1.187   1.506   2.777
 5921TIP3   OH217703   0.539   2.381   4.168
 5921TIP3    H117704   0.627   2.396   4.203
 5921TIP3    H217705   0.485   2.448   4.210
 5922TIP3   OH217706   4.969   4.737   0.187
 5922TIP3    H117707   5.016   4.680   0.248
 5922TIP3    H217708   4.892   4.766   0.236
 5923TIP3   OH217709   1.447   1.678   0.820
 5923TIP3    H117710   1.490   1.609   0.770
 5923TIP3    H217711   1.450   1.647   0.911
 5924TIP3   OH217712   6.407   3.816   1.357
 5924TIP3    H117713   6.327   3.834   1.406
 5924TIP3    H217714   6.475   3.868   1.402
 5925TIP3   OH217715   8.305   2.292   2.728
 5925TIP3    H117716   8.317   2.369   2.673
 5925TIP3    H217717   8.214   2.266   2.713
 5926TIP3   OH217718   0.133   2.111   4.173
 5926TIP3    H117719   0.114   2.171   4.246
 5926TIP3    H217720   0.190   2.162   4.115
 5927TIP3   OH217721   7.714   0.390   0.757
 5927TIP3    H117722   7.620   0.398   0.772
 5927TIP3    H217723   7.730   0.296   0.749
 5928TIP3   OH217724   2.131   7.943   6.731
 5928TIP3    H117725   2.117   7.984   6.817
 5928TIP3    H217726   2.205   7.885   6.743
 5929TIP3   OH217727   3.111   2.624   5.135
 5929TIP3    H117728   3.162   2.559   5.184
 5929TIP3    H217729   3.167   2.648   5.061
 5930TIP3   OH217730   3.794   2.876   4.555
 5930TIP3    H117731   3.764   2.951   4.607
 5930TIP3    H217732   3.801   2.909   4.466
 5931TIP3   OH217733   6.936   2.950   2.563
 5931TIP3    H117734   6.863   2.929   2.504
 5931TIP3    H217735   6.902   3.019   2.620
 5932TIP3   OH217736   8.093   3.250   1.563
 5932TIP3    H117737   8.002   3.254   1.534
 5932TIP3    H217738   8.108   3.157   1.582
 5933TIP3   OH217739   5.186   2.970   6.786
 5933TIP3    H117740   5.271   3.008   6.808
 5933TIP3    H217741   5.193   2.878   6.810
 5934TIP3   OH217742   7.309   1.802   4.885
 5934TIP3    H117743   7.268   1.808   4.971
 5934TIP3    H217744   7.393   1.760   4.901
 5935TIP3   OH217745   7.782   6.678   5.701
 5935TIP3    H117746   7.763   6.585   5.720
 5935TIP3    H217747   7.877   6.681   5.693
 5936TIP3   OH217748   6.303   2.321   4.143
 5936TIP3    H117749   6.223   2.322   4.091
 5936TIP3    H217750   6.314   2.412   4.172
 5937TIP3   OH217751   4.492   5.643   2.102
 5937TIP3    H117752   4.508   5.727   2.059
 5937TIP3    H217753   4.397   5.633   2.102
 5938TIP3   OH217754   0.358   0.267   0.048
 5938TIP3    H117755   0.275   0.238   0.011
 5938TIP3    H217756   0.335   0.336   0.110
 5939TIP3   OH217757   7.754   4.901   4.364
 5939TIP3    H117758   7.794   4.835   4.309
 5939TIP3    H217759   7.707   4.852   4.431
 5940TIP3   OH217760   2.122   4.081   1.361
 5940TIP3    H117761   2.071   4.142   1.415
 5940TIP3    H217762   2.117   4.118   1.273
 5941TIP3   OH217763   2.501   7.850   2.037
 5941TIP3    H117764   2.416   7.847   1.993
 5941TIP3    H217765   2.483   7.819   2.125
 5942TIP3   OH217766   3.538   0.906   0.367
 5942TIP3    H117767   3.477   0.855   0.315
 5942TIP3    H217768   3.615   0.851   0.376
 5943TIP3   OH217769   2.346   1.507   4.655
 5943TIP3    H117770   2.399   1.574   4.699
 5943TIP3    H217771   2.280   1.482   4.720
 5944TIP3   OH217772   1.948   2.561   0.142
 5944TIP3    H117773   2.012   2.565   0.213
 5944TIP3    H217774   1.971   2.481   0.094
 5945TIP3   OH217775   3.026   2.885  -0.012
 5945TIP3    H117776   3.109   2.837  -0.011
 5945TIP3    H217777   2.998   2.885   0.080
 5946TIP3   OH217778   3.541   6.074   4.850
 5946TIP3    H117779   3.530   6.148   4.910
 5946TIP3    H217780   3.537   5.997   4.907
 5947TIP3   OH217781   0.295   2.658   5.036
 5947TIP3    H117782   0.383   2.691   5.021
 5947TIP3    H217783   0.290   2.646   5.131
 5948TIP3   OH217784   3.549   6.286   0.897
 5948TIP3    H117785   3.459   6.309   0.921
 5948TIP3    H217786   3.547   6.279   0.801
 5949TIP3   OH217787   4.520   3.922   4.698
 5949TIP3    H117788   4.550   3.973   4.773
 5949TIP3    H217789   4.454   3.863   4.733
 5950TIP3   OH217790   0.779   5.169   5.145
 5950TIP3    H117791   0.866   5.208   5.129
 5950TIP3    H217792   0.719   5.243   5.140
 5951TIP3   OH217793   3.755   7.508   2.151
 5951TIP3    H117794   3.721   7.426   2.187
 5951TIP3    H217795   3.692   7.533   2.084
 5952TIP3   OH217796   7.864   5.378   6.697
 5952TIP3    H117797   7.867   5.474   6.694
 5952TIP3    H217798   7.784   5.358   6.745
 5953TIP3   OH217799   4.113   2.922   0.382
 5953TIP3    H117800   4.072   2.847   0.340
 5953TIP3    H217801   4.116   2.990   0.314
 5954TIP3   OH217802   2.398   1.381   5.648
 5954TIP3    H117803   2.415   1.413   5.559
 5954TIP3    H217804   2.413   1.287   5.642
 5955TIP3   OH217805   7.004   4.014   2.830
 5955TIP3    H117806   6.991   4.093   2.882
 5955TIP3    H217807   7.039   4.046   2.747
 5956TIP3   OH217808   0.585   1.331   4.377
 5956TIP3    H117809   0.597   1.420   4.344
 5956TIP3    H217810   0.674   1.296   4.386
 5957TIP3   OH217811   6.029   4.795   6.889
 5957TIP3    H117812   5.950   4.804   6.836
 5957TIP3    H217813   6.084   4.734   6.841
 5958TIP3   OH217814   2.511   4.558   0.333
 5958TIP3    H117815   2.592   4.611   0.330
 5958TIP3    H217816   2.442   4.619   0.309
 5959TIP3   OH217817   6.194   3.920   0.645
 5959TIP3    H117818   6.120   3.910   0.585
 5959TIP3    H217819   6.192   3.841   0.699
 5960TIP3   OH217820   5.640   6.167   3.351
 5960TIP3    H117821   5.556   6.212   3.361
 5960TIP3    H217822   5.620   6.090   3.297
 5961TIP3   OH217823   1.768   7.210   3.847
 5961TIP3    H117824   1.815   7.132   3.817
 5961TIP3    H217825   1.677   7.195   3.822
 5962TIP3   OH217826   7.845   3.988   5.526
 5962TIP3    H117827   7.835   3.995   5.431
 5962TIP3    H217828   7.793   3.912   5.550
 5963TIP3   OH217829   2.797   3.127   2.638
 5963TIP3    H117830   2.880   3.164   2.609
 5963TIP3    H217831   2.764   3.189   2.702
 5964TIP3   OH217832   4.235   0.406   2.455
 5964TIP3    H117833   4.271   0.451   2.378
 5964TIP3    H217834   4.237   0.313   2.432
 5965TIP3   OH217835   3.237   1.992   5.300
 5965TIP3    H117836   3.187   1.910   5.307
 5965TIP3    H217837   3.245   2.023   5.390
 5966TIP3   OH217838   3.954   7.011   6.608
 5966TIP3    H117839   3.960   6.932   6.662
 5966TIP3    H217840   3.874   7.055   6.637
 5967TIP3   OH217841   8.107   4.138   4.092
 5967TIP3    H117842   8.053   4.091   4.157
 5967TIP3    H217843   8.187   4.085   4.085
 5968TIP3   OH217844   5.454   5.542   2.578
 5968TIP3    H117845   5.438   5.522   2.670
 5968TIP3    H217846   5.477   5.635   2.577
 5969TIP3   OH217847   3.566   6.111   6.338
 5969TIP3    H117848   3.547   6.186   6.395
 5969TIP3    H217849   3.607   6.149   6.260
 5970TIP3   OH217850   3.463   7.757   0.549
 5970TIP3    H117851   3.493   7.666   0.552
 5970TIP3    H217852   3.370   7.752   0.572
 5971TIP3   OH217853   5.568   0.444   1.942
 5971TIP3    H117854   5.501   0.442   1.873
 5971TIP3    H217855   5.619   0.522   1.924
 5972TIP3   OH217856   2.549   5.669   6.564
 5972TIP3    H117857   2.497   5.740   6.600
 5972TIP3    H217858   2.540   5.598   6.628
 5973TIP3   OH217859   3.660   5.516   4.056
 5973TIP3    H117860   3.667   5.587   4.119
 5973TIP3    H217861   3.569   5.519   4.027
 5974TIP3   OH217862   3.268   6.169   0.653
 5974TIP3    H117863   3.362   6.157   0.667
 5974TIP3    H217864   3.259   6.259   0.623
 5975TIP3   OH217865   3.537   6.404   4.363
 5975TIP3    H117866   3.598   6.478   4.354
 5975TIP3    H217867   3.469   6.423   4.299
 5976TIP3   OH217868   2.350   6.291   2.929
 5976TIP3    H117869   2.261   6.304   2.897
 5976TIP3    H217870   2.406   6.325   2.859
 5977TIP3   OH217871   2.545   2.042   1.973
 5977TIP3    H117872   2.484   2.109   2.004
 5977TIP3    H217873   2.591   2.084   1.901
 5978TIP3   OH217874   7.654   6.346   2.917
 5978TIP3    H117875   7.720   6.313   2.979
 5978TIP3    H217876   7.607   6.267   2.889
 5979TIP3   OH217877   7.019   6.872   3.934
 5979TIP3    H117878   6.978   6.880   3.848
 5979TIP3    H217879   6.947   6.882   3.996
 5980TIP3   OH217880   1.698   4.297   0.217
 5980TIP3    H117881   1.734   4.308   0.305
 5980TIP3    H217882   1.608   4.329   0.224
 5981TIP3   OH217883   6.978   4.613   0.486
 5981TIP3    H117884   6.893   4.639   0.523
 5981TIP3    H217885   7.035   4.605   0.562
 5982TIP3   OH217886   5.210   0.336   4.908
 5982TIP3    H117887   5.283   0.349   4.847
 5982TIP3    H217888   5.196   0.423   4.947
 5983TIP3   OH217889   4.540   5.893   2.013
 5983TIP3    H117890   4.554   5.967   2.072
 5983TIP3    H217891   4.599   5.909   1.940
 5984TIP3   OH217892   1.313   6.726   5.960
 5984TIP3    H117893   1.259   6.732   5.882
 5984TIP3    H217894   1.259   6.761   6.030
 5985TIP3   OH217895   3.486   0.305   1.283
 5985TIP3    H117896   3.439   0.340   1.207
 5985TIP3    H217897   3.538   0.233   1.248
 5986TIP3   OH217898   0.311   2.351   6.818
 5986TIP3    H117899   0.220   2.361   6.790
 5986TIP3    H217900   0.307   2.327   6.910
 5987TIP3   OH217901   0.278   4.496   1.240
 5987TIP3    H117902   0.292   4.463   1.329
 5987TIP3    H217903   0.330   4.439   1.184
 5988TIP3   OH217904   4.746   7.102   0.237
 5988TIP3    H117905   4.717   7.100   0.328
 5988TIP3    H217906   4.831   7.147   0.240
 5989TIP3   OH217907   1.878   2.943   4.998
 5989TIP3    H117908   1.784   2.928   4.992
 5989TIP3    H217909   1.891   3.026   4.952
 5990TIP3   OH217910   3.400   5.132   1.704
 5990TIP3    H117911   3.383   5.133   1.798
 5990TIP3    H217912   3.487   5.172   1.695
 5991TIP3   OH217913   5.090   1.256   4.220
 5991TIP3    H117914   5.157   1.205   4.175
 5991TIP3    H217915   5.007   1.227   4.182
 5992TIP3   OH217916   1.933   1.325   5.489
 5992TIP3    H117917   1.891   1.257   5.436
 5992TIP3    H217918   1.935   1.402   5.433
 5993TIP3   OH217919   5.846   6.751   2.318
 5993TIP3    H117920   5.819   6.668   2.358
 5993TIP3    H217921   5.872   6.727   2.229
 5994TIP3   OH217922   6.921   0.457   3.117
 5994TIP3    H117923   6.849   0.404   3.083
 5994TIP3    H217924   6.972   0.481   3.039
 5995TIP3   OH217925   0.075   2.105   2.623
 5995TIP3    H117926   0.024   2.174   2.665
 5995TIP3    H217927   0.057   2.027   2.675
 5996TIP3   OH217928   1.138   7.684   5.384
 5996TIP3    H117929   1.172   7.732   5.308
 5996TIP3    H217930   1.097   7.752   5.438
 5997TIP3   OH217931   5.298   6.323   0.593
 5997TIP3    H117932   5.224   6.328   0.653
 5997TIP3    H217933   5.296   6.233   0.561
 5998TIP3   OH217934   2.998   3.312   6.203
 5998TIP3    H117935   3.085   3.346   6.183
 5998TIP3    H217936   3.003   3.219   6.180
 5999TIP3   OH217937   2.206   0.247   0.823
 5999TIP3    H117938   2.263   0.310   0.779
 5999TIP3    H217939   2.119   0.286   0.817
 6000TIP3   OH217940   6.806   0.895   4.301
 6000TIP3    H117941   6.889   0.942   4.309
 6000TIP3    H217942   6.745   0.961   4.267
 6001TIP3   OH217943   3.098   4.832   1.889
 6001TIP3    H117944   3.108   4.737   1.886
 6001TIP3    H217945   3.162   4.861   1.955
 6002TIP3   OH217946   0.202   2.610   4.411
 6002TIP3    H117947   0.294   2.630   4.390
 6002TIP3    H217948   0.203   2.585   4.503
 6003TIP3   OH217949   5.006   0.638   4.808
 6003TIP3    H117950   5.033   0.704   4.744
 6003TIP3    H217951   5.086   0.618   4.856
 6004TIP3   OH217952   2.223   6.286   1.953
 6004TIP3    H117953   2.197   6.198   1.979
 6004TIP3    H217954   2.142   6.337   1.956
 6005TIP3   OH217955   0.542   2.292   2.560
 6005TIP3    H117956   0.448   2.294   2.541
 6005TIP3    H217957   0.576   2.223   2.503
 6006TIP3   OH217958   4.520   5.860   0.474
 6006TIP3    H117959   4.491   5.840   0.385
 6006TIP3    H217960   4.597   5.805   0.488
 6007TIP3   OH217961   5.349   4.100   4.913
 6007TIP3    H117962   5.321   4.009   4.918
 6007TIP3    H217963   5.356   4.118   4.819
 6008TIP3   OH217964   6.980   3.750   2.399
 6008TIP3    H117965   6.916   3.678   2.394
 6008TIP3    H217966   7.051   3.722   2.341
 6009TIP3   OH217967   3.432   5.141   1.230
 6009TIP3    H117968   3.342   5.157   1.258
 6009TIP3    H217969   3.485   5.175   1.301
 6010TIP3   OH217970   0.646   5.549   1.675
 6010TIP3    H117971   0.627   5.461   1.643
 6010TIP3    H217972   0.564   5.579   1.715
 6011TIP3   OH217973   3.093   7.882   4.060
 6011TIP3    H117974   3.184   7.910   4.050
 6011TIP3    H217975   3.093   7.828   4.139
 6012TIP3   OH217976   6.442   4.002   0.487
 6012TIP3    H117977   6.399   4.031   0.568
 6012TIP3    H217978   6.534   4.023   0.500
 6013TIP3   OH217979   4.162   2.114   0.438
 6013TIP3    H117980   4.207   2.040   0.398
 6013TIP3    H217981   4.231   2.161   0.486
 6014TIP3   OH217982   2.015   5.400   3.963
 6014TIP3    H117983   1.955   5.330   3.991
 6014TIP3    H217984   2.022   5.457   4.040
 6015TIP3   OH217985   1.320   3.561   1.759
 6015TIP3    H117986   1.261   3.529   1.828
 6015TIP3    H217987   1.359   3.640   1.796
 6016TIP3   OH217988   4.316   7.659   6.289
 6016TIP3    H117989   4.280   7.742   6.258
 6016TIP3    H217990   4.403   7.682   6.323
 6017TIP3   OH217991   2.350   7.896   2.637
 6017TIP3    H117992   2.294   7.831   2.595
 6017TIP3    H217993   2.299   7.977   2.638
 6018TIP3   OH217994   4.362   3.427   2.669
 6018TIP3    H117995   4.319   3.395   2.590
 6018TIP3    H217996   4.332   3.369   2.739
 6019TIP3   OH217997   3.707   5.304   4.241
 6019TIP3    H117998   3.679   5.381   4.192
 6019TIP3    H217999   3.627   5.254   4.255
 6020TIP3   OH218000   5.834   7.725   5.966
 6020TIP3    H118001   5.849   7.816   5.938
 6020TIP3    H218002   5.739   7.714   5.964
 6021TIP3   OH218003   4.804   0.357   6.407
 6021TIP3    H118004   4.832   0.266   6.398
 6021TIP3    H218005   4.884   0.405   6.430
 6022TIP3   OH218006   2.139   3.758   3.186
 6022TIP3    H118007   2.085   3.835   3.205
 6022TIP3    H218008   2.089   3.684   3.220
 6023TIP3   OH218009   2.095  -0.043   1.454
 6023TIP3    H118010   2.172   0.013   1.448
 6023TIP3    H218011   2.026   0.015   1.485
 6024TIP3   OH218012   7.748   3.900   4.669
 6024TIP3    H118013   7.697   3.831   4.627
 6024TIP3    H218014   7.836   3.891   4.631
 6025TIP3   OH218015   1.709   6.817   5.236
 6025TIP3    H118016   1.707   6.910   5.258
 6025TIP3    H218017   1.797   6.802   5.201
 6026TIP3   OH218018   3.807   2.179   2.839
 6026TIP3    H118019   3.859   2.196   2.760
 6026TIP3    H218020   3.717   2.176   2.808
 6027TIP3   OH218021   1.998   3.824   1.081
 6027TIP3    H118022   2.011   3.740   1.125
 6027TIP3    H218023   1.912   3.818   1.041
 6028TIP3   OH218024   5.478   4.380   5.138
 6028TIP3    H118025   5.508   4.454   5.192
 6028TIP3    H218026   5.530   4.385   5.058
 6029TIP3   OH218027   7.701   1.096   2.877
 6029TIP3    H118028   7.688   1.077   2.970
 6029TIP3    H218029   7.652   1.177   2.862
 6030TIP3   OH218030   1.821   0.970   1.360
 6030TIP3    H118031   1.743   1.006   1.403
 6030TIP3    H218032   1.849   0.898   1.417
 6031TIP3   OH218033   5.224   4.192   4.131
 6031TIP3    H118034   5.168   4.117   4.149
 6031TIP3    H218035   5.313   4.161   4.153
 6032TIP3   OH218036   5.864   1.776   4.600
 6032TIP3    H118037   5.954   1.804   4.617
 6032TIP3    H218038   5.812   1.828   4.661
 6033TIP3   OH218039   5.739   7.624   2.038
 6033TIP3    H118040   5.798   7.698   2.025
 6033TIP3    H218041   5.764   7.587   2.123
 6034TIP3   OH218042   2.150   1.131   0.926
 6034TIP3    H118043   2.067   1.178   0.914
 6034TIP3    H218044   2.195   1.180   0.995
 6035TIP3   OH218045   0.272   7.742   1.239
 6035TIP3    H118046   0.361   7.749   1.273
 6035TIP3    H218047   0.249   7.832   1.213
 6036TIP3   OH218048   7.209   1.462   1.320
 6036TIP3    H118049   7.194   1.474   1.226
 6036TIP3    H218050   7.286   1.515   1.339
 6037TIP3   OH218051   1.428   3.202   4.692
 6037TIP3    H118052   1.432   3.108   4.672
 6037TIP3    H218053   1.335   3.219   4.707
 6038TIP3   OH218054   5.684   3.651   4.540
 6038TIP3    H118055   5.763   3.609   4.506
 6038TIP3    H218056   5.632   3.668   4.462
 6039TIP3   OH218057   6.248   1.688   0.902
 6039TIP3    H118058   6.271   1.601   0.934
 6039TIP3    H218059   6.265   1.685   0.808
 6040TIP3   OH218060   4.108   2.775   5.752
 6040TIP3    H118061   4.100   2.861   5.793
 6040TIP3    H218062   4.151   2.720   5.817
 6041TIP3   OH218063   1.667   1.849   2.931
 6041TIP3    H118064   1.598   1.883   2.874
 6041TIP3    H218065   1.643   1.758   2.947
 6042TIP3   OH218066   2.273   6.040   2.071
 6042TIP3    H118067   2.352   6.040   2.125
 6042TIP3    H218068   2.240   5.950   2.077
 6043TIP3   OH218069   2.398   6.370   0.761
 6043TIP3    H118070   2.454   6.295   0.737
 6043TIP3    H218071   2.389   6.364   0.856
 6044TIP3   OH218072   1.973   7.184   1.478
 6044TIP3    H118073   2.008   7.228   1.400
 6044TIP3    H218074   1.971   7.091   1.455
 6045TIP3   OH218075   1.092   7.338   1.370
 6045TIP3    H118076   1.139   7.381   1.299
 6045TIP3    H218077   1.159   7.318   1.435
 6046TIP3   OH218078   1.534   2.907   2.418
 6046TIP3    H118079   1.624   2.892   2.387
 6046TIP3    H218080   1.498   2.971   2.357
 6047TIP3   OH218081   5.344   2.140   1.417
 6047TIP3    H118082   5.360   2.223   1.372
 6047TIP3    H218083   5.343   2.163   1.510
 6048TIP3   OH218084   7.049   7.168   6.484
 6048TIP3    H118085   6.976   7.115   6.516
 6048TIP3    H218086   7.086   7.117   6.412
 6049TIP3   OH218087   6.009   7.287   4.736
 6049TIP3    H118088   6.004   7.381   4.722
 6049TIP3    H218089   5.957   7.271   4.815
 6050TIP3   OH218090   1.688   6.991   1.479
 6050TIP3    H118091   1.638   6.929   1.426
 6050TIP3    H218092   1.733   7.047   1.415
 6051TIP3   OH218093   0.799   0.290   2.020
 6051TIP3    H118094   0.731   0.323   2.079
 6051TIP3    H218095   0.849   0.228   2.073
 6052TIP3   OH218096   1.837   4.650   2.285
 6052TIP3    H118097   1.836   4.615   2.196
 6052TIP3    H218098   1.745   4.661   2.308
 6053TIP3   OH218099   7.566   4.060   4.880
 6053TIP3    H118100   7.561   4.059   4.784
 6053TIP3    H218101   7.546   3.970   4.906
 6054TIP3   OH218102   4.959   7.281   1.964
 6054TIP3    H118103   5.018   7.302   1.891
 6054TIP3    H218104   5.010   7.222   2.019
 6055TIP3   OH218105   7.094   5.149   0.740
 6055TIP3    H118106   7.176   5.197   0.751
 6055TIP3    H218107   7.032   5.215   0.709
 6056TIP3   OH218108   2.689   3.593   6.527
 6056TIP3    H118109   2.619   3.531   6.503
 6056TIP3    H218110   2.767   3.559   6.484
 6057TIP3   OH218111   3.522   6.066   2.032
 6057TIP3    H118112   3.529   5.992   1.971
 6057TIP3    H218113   3.438   6.052   2.076
 6058TIP3   OH218114   3.699   1.920   0.287
 6058TIP3    H118115   3.761   1.946   0.355
 6058TIP3    H218116   3.748   1.857   0.233
 6059TIP3   OH218117   6.376   7.792   2.959
 6059TIP3    H118118   6.328   7.795   2.876
 6059TIP3    H218119   6.468   7.806   2.933
 6060TIP3   OH218120   4.616   1.890   4.173
 6060TIP3    H118121   4.695   1.842   4.147
 6060TIP3    H218122   4.588   1.935   4.093
 6061TIP3   OH218123   0.279   3.218   1.834
 6061TIP3    H118124   0.210   3.255   1.888
 6061TIP3    H218125   0.284   3.126   1.861
 6062TIP3   OH218126   6.810   5.124   2.632
 6062TIP3    H118127   6.748   5.172   2.687
 6062TIP3    H218128   6.769   5.038   2.619
 6063TIP3   OH218129   8.016   5.719   2.150
 6063TIP3    H118130   8.020   5.814   2.163
 6063TIP3    H218131   8.066   5.683   2.223
 6064TIP3   OH218132   1.023   6.470   4.365
 6064TIP3    H118133   0.931   6.455   4.386
 6064TIP3    H218134   1.035   6.429   4.279
 6065TIP3   OH218135   6.561   7.340   3.474
 6065TIP3    H118136   6.537   7.318   3.384
 6065TIP3    H218137   6.521   7.426   3.489
 6066TIP3   OH218138   1.757   2.921   6.000
 6066TIP3    H118139   1.762   2.955   6.090
 6066TIP3    H218140   1.831   2.860   5.994
 6067TIP3   OH218141   4.827   3.854   2.300
 6067TIP3    H118142   4.908   3.805   2.289
 6067TIP3    H218143   4.842   3.907   2.379
 6068TIP3   OH218144   7.926   4.193   2.440
 6068TIP3    H118145   7.964   4.201   2.352
 6068TIP3    H218146   7.852   4.134   2.429
 6069TIP3   OH218147   2.182   3.994   5.434
 6069TIP3    H118148   2.149   4.080   5.408
 6069TIP3    H218149   2.268   4.013   5.472
 6070TIP3   OH218150   7.780   6.074   5.522
 6070TIP3    H118151   7.767   6.168   5.513
 6070TIP3    H218152   7.842   6.051   5.453
 6071TIP3   OH218153   4.540   7.231   3.026
 6071TIP3    H118154   4.541   7.184   3.109
 6071TIP3    H218155   4.572   7.167   2.962
 6072TIP3   OH218156   5.200   6.421   3.056
 6072TIP3    H118157   5.248   6.500   3.084
 6072TIP3    H218158   5.263   6.350   3.070
 6073TIP3   OH218159   1.704   2.126   2.820
 6073TIP3    H118160   1.775   2.167   2.770
 6073TIP3    H218161   1.632   2.118   2.757
 6074TIP3   OH218162   1.071   3.235   0.633
 6074TIP3    H118163   1.113   3.211   0.716
 6074TIP3    H218164   0.998   3.291   0.660
 6075TIP3   OH218165   5.028   1.168   6.464
 6075TIP3    H118166   5.098   1.117   6.423
 6075TIP3    H218167   5.072   1.246   6.497
 6076TIP3   OH218168   6.596   1.594   4.168
 6076TIP3    H118169   6.646   1.629   4.242
 6076TIP3    H218170   6.663   1.569   4.104
 6077TIP3   OH218171   6.714   7.799   6.806
 6077TIP3    H118172   6.688   7.851   6.730
 6077TIP3    H218173   6.705   7.708   6.777
 6078TIP3   OH218174   6.843   1.442   0.080
 6078TIP3    H118175   6.786   1.492   0.022
 6078TIP3    H218176   6.894   1.508   0.127
 6079TIP3   OH218177   6.197   5.561   6.895
 6079TIP3    H118178   6.216   5.490   6.834
 6079TIP3    H218179   6.252   5.634   6.864
 6080TIP3   OH218180   5.375   0.536   5.460
 6080TIP3    H118181   5.355   0.482   5.383
 6080TIP3    H218182   5.325   0.617   5.447
 6081TIP3   OH218183   2.041   1.528   3.335
 6081TIP3    H118184   2.009   1.476   3.409
 6081TIP3    H218185   1.965   1.578   3.306
 6082TIP3   OH218186   0.200   3.398   0.528
 6082TIP3    H118187   0.131   3.364   0.584
 6082TIP3    H218188   0.261   3.442   0.588
 6083TIP3   OH218189   3.740   3.162   2.154
 6083TIP3    H118190   3.645   3.163   2.139
 6083TIP3    H218191   3.749   3.182   2.247
 6084TIP3   OH218192   8.451   3.173   3.765
 6084TIP3    H118193   8.436   3.137   3.678
 6084TIP3    H218194   8.419   3.264   3.758
 6085TIP3   OH218195   3.368   0.866   2.197
 6085TIP3    H118196   3.417   0.806   2.254
 6085TIP3    H218197   3.343   0.812   2.122
 6086TIP3   OH218198   8.084   4.831   6.622
 6086TIP3    H118199   8.141   4.905   6.605
 6086TIP3    H218200   8.038   4.817   6.539
 6087TIP3   OH218201   3.058   4.423   0.661
 6087TIP3    H118202   3.123   4.364   0.624
 6087TIP3    H218203   2.975   4.375   0.655
 6088TIP3   OH218204   2.688   7.558   5.037
 6088TIP3    H118205   2.695   7.581   4.944
 6088TIP3    H218206   2.720   7.468   5.042
 6089TIP3   OH218207   1.852   3.268   1.359
 6089TIP3    H118208   1.814   3.304   1.439
 6089TIP3    H218209   1.882   3.345   1.311
 6090TIP3   OH218210   6.599   7.674   0.987
 6090TIP3    H118211   6.600   7.664   1.082
 6090TIP3    H218212   6.633   7.762   0.972
 6091TIP3   OH218213   3.146   0.112   5.033
 6091TIP3    H118214   3.188   0.178   4.977
 6091TIP3    H218215   3.180   0.028   5.002
 6092TIP3   OH218216   7.396   3.333   5.012
 6092TIP3    H118217   7.463   3.272   5.044
 6092TIP3    H218218   7.328   3.277   4.976
 6093TIP3   OH218219   6.871   6.445   6.586
 6093TIP3    H118220   6.788   6.472   6.627
 6093TIP3    H218221   6.935   6.508   6.616
 6094TIP3   OH218222   0.166   0.153   3.665
 6094TIP3    H118223   0.085   0.188   3.700
 6094TIP3    H218224   0.139   0.081   3.608
 6095TIP3   OH218225   1.947   3.221   1.734
 6095TIP3    H118226   2.029   3.269   1.725
 6095TIP3    H218227   1.884   3.271   1.681
 6096TIP3   OH218228   7.968   4.603   2.350
 6096TIP3    H118229   8.018   4.664   2.404
 6096TIP3    H218230   8.028   4.530   2.333
 6097TIP3   OH218231   1.490   2.020   2.422
 6097TIP3    H118232   1.496   2.073   2.501
 6097TIP3    H218233   1.566   2.046   2.370
 6098TIP3   OH218234   4.086   0.356   3.311
 6098TIP3    H118235   4.017   0.411   3.348
 6098TIP3    H218236   4.109   0.398   3.228
 6099TIP3   OH218237   1.844   5.740   0.326
 6099TIP3    H118238   1.812   5.821   0.366
 6099TIP3    H218239   1.795   5.671   0.370
 6100TIP3   OH218240   8.013   0.664   5.271
 6100TIP3    H118241   7.968   0.655   5.355
 6100TIP3    H218242   7.972   0.599   5.214
 6101TIP3   OH218243   3.377   6.988   5.254
 6101TIP3    H118244   3.350   7.058   5.195
 6101TIP3    H218245   3.347   7.016   5.340
 6102TIP3   OH218246   5.822   5.362   4.941
 6102TIP3    H118247   5.739   5.382   4.983
 6102TIP3    H218248   5.837   5.269   4.960
 6103TIP3   OH218249   4.837   2.504   3.315
 6103TIP3    H118250   4.847   2.509   3.410
 6103TIP3    H218251   4.743   2.510   3.300
 6104TIP3   OH218252   1.392   5.542   3.492
 6104TIP3    H118253   1.338   5.593   3.432
 6104TIP3    H218254   1.340   5.533   3.571
 6105TIP3   OH218255   4.776   3.913   5.566
 6105TIP3    H118256   4.751   3.941   5.653
 6105TIP3    H218257   4.869   3.935   5.559
 6106TIP3   OH218258   2.903   7.788   6.305
 6106TIP3    H118259   2.906   7.873   6.347
 6106TIP3    H218260   2.926   7.726   6.374
 6107TIP3   OH218261   5.864   7.132   4.226
 6107TIP3    H118262   5.946   7.087   4.245
 6107TIP3    H218263   5.876   7.166   4.137
 6108TIP3   OH218264   3.884   1.978   6.321
 6108TIP3    H118265   3.816   1.992   6.387
 6108TIP3    H218266   3.859   2.037   6.249
 6109TIP3   OH218267   3.248   0.247   6.251
 6109TIP3    H118268   3.262   0.342   6.260
 6109TIP3    H218269   3.261   0.213   6.340
 6110TIP3   OH218270   8.441   0.085   0.467
 6110TIP3    H118271   8.408   0.175   0.464
 6110TIP3    H218272   8.511   0.083   0.402
 6111TIP3   OH218273   1.598   7.235   2.844
 6111TIP3    H118274   1.677   7.208   2.892
 6111TIP3    H218275   1.631   7.264   2.759
 6112TIP3   OH218276   3.751   5.293   5.364
 6112TIP3    H118277   3.829   5.266   5.316
 6112TIP3    H218278   3.690   5.325   5.297
 6113TIP3   OH218279   3.320   0.721   4.086
 6113TIP3    H118280   3.414   0.727   4.102
 6113TIP3    H218281   3.311   0.642   4.032
 6114TIP3   OH218282   6.196   6.963   1.473
 6114TIP3    H118283   6.159   6.886   1.518
 6114TIP3    H218284   6.246   7.009   1.541
 6115TIP3   OH218285   6.487   0.520   2.915
 6115TIP3    H118286   6.437   0.441   2.937
 6115TIP3    H218287   6.510   0.557   3.000
 6116TIP3   OH218288   1.171   0.840   4.467
 6116TIP3    H118289   1.201   0.918   4.514
 6116TIP3    H218290   1.223   0.840   4.386
 6117TIP3   OH218291   6.648   7.435   6.146
 6117TIP3    H118292   6.737   7.470   6.140
 6117TIP3    H218293   6.597   7.487   6.084
 6118TIP3   OH218294   2.202   5.330   1.129
 6118TIP3    H118295   2.203   5.248   1.178
 6118TIP3    H218296   2.146   5.313   1.054
 6119TIP3   OH218297   2.027   0.104   5.276
 6119TIP3    H118298   2.032   0.085   5.182
 6119TIP3    H218299   1.956   0.168   5.283
 6120TIP3   OH218300   6.486   0.128   1.055
 6120TIP3    H118301   6.463   0.103   0.966
 6120TIP3    H218302   6.437   0.068   1.111
 6121TIP3   OH218303   5.832   5.055   4.480
 6121TIP3    H118304   5.794   5.133   4.440
 6121TIP3    H218305   5.772   5.033   4.552
 6122TIP3   OH218306   0.028   0.193   4.527
 6122TIP3    H118307   0.037   0.278   4.571
 6122TIP3    H218308   0.087   0.198   4.452
 6123TIP3   OH218309   8.437   5.536   3.528
 6123TIP3    H118310   8.356   5.490   3.504
 6123TIP3    H218311   8.486   5.542   3.447
 6124TIP3   OH218312   1.083   0.936   1.270
 6124TIP3    H118313   1.042   0.871   1.326
 6124TIP3    H218314   1.009   0.978   1.225
 6125TIP3   OH218315   6.017   3.219   4.216
 6125TIP3    H118316   5.967   3.292   4.180
 6125TIP3    H218317   5.963   3.142   4.200
 6126TIP3   OH218318   8.183   3.862   3.290
 6126TIP3    H118319   8.216   3.866   3.200
 6126TIP3    H218320   8.124   3.937   3.297
 6127TIP3   OH218321   3.307   5.315   5.616
 6127TIP3    H118322   3.234   5.357   5.660
 6127TIP3    H218323   3.270   5.235   5.579
 6128TIP3   OH218324   6.873   5.607   2.373
 6128TIP3    H118325   6.946   5.602   2.436
 6128TIP3    H218326   6.912   5.583   2.289
 6129TIP3   OH218327   3.928   0.457   1.914
 6129TIP3    H118328   4.012   0.430   1.878
 6129TIP3    H218329   3.891   0.517   1.849
 6130TIP3   OH218330   2.139   6.359   2.466
 6130TIP3    H118331   2.074   6.336   2.532
 6130TIP3    H218332   2.089   6.405   2.398
 6131TIP3   OH218333   0.522   6.330   2.942
 6131TIP3    H118334   0.439   6.302   2.904
 6131TIP3    H218335   0.498   6.366   3.027
 6132TIP3   OH218336   8.381   6.297   0.496
 6132TIP3    H118337   8.449   6.282   0.562
 6132TIP3    H218338   8.426   6.344   0.426
 6133TIP3   OH218339   0.808   5.769   2.777
 6133TIP3    H118340   0.770   5.855   2.759
 6133TIP3    H218341   0.799   5.721   2.696
 6134TIP3   OH218342   0.221   7.261   5.841
 6134TIP3    H118343   0.309   7.260   5.877
 6134TIP3    H218344   0.225   7.326   5.770
 6135TIP3   OH218345   7.009   7.228   5.038
 6135TIP3    H118346   6.985   7.242   5.129
 6135TIP3    H218347   6.984   7.138   5.020
 6136TIP3   OH218348   6.754   3.937   6.376
 6136TIP3    H118349   6.819   3.921   6.307
 6136TIP3    H218350   6.670   3.921   6.333
 6137TIP3   OH218351   6.232   0.541   0.829
 6137TIP3    H118352   6.194   0.495   0.754
 6137TIP3    H218353   6.216   0.634   0.811
 6138TIP3   OH218354   4.131   4.508   1.496
 6138TIP3    H118355   4.049   4.559   1.506
 6138TIP3    H218356   4.102   4.418   1.483
 6139TIP3   OH218357   6.571   6.428   4.549
 6139TIP3    H118358   6.644   6.489   4.553
 6139TIP3    H218359   6.507   6.471   4.493
 6140TIP3   OH218360   5.889   6.552   6.610
 6140TIP3    H118361   5.861   6.465   6.582
 6140TIP3    H218362   5.826   6.611   6.570
 6141TIP3   OH218363   3.103   7.511   2.049
 6141TIP3    H118364   3.113   7.600   2.083
 6141TIP3    H218365   3.028   7.515   1.991
 6142TIP3   OH218366   2.110   0.352   1.291
 6142TIP3    H118367   2.138   0.403   1.367
 6142TIP3    H218368   2.032   0.398   1.259
 6143TIP3   OH218369   8.102   5.274   2.061
 6143TIP3    H118370   8.103   5.256   2.155
 6143TIP3    H218371   8.100   5.188   2.020
 6144TIP3   OH218372   7.794   4.834   0.162
 6144TIP3    H118373   7.701   4.840   0.145
 6144TIP3    H218374   7.807   4.745   0.195
 6145TIP3   OH218375   7.248   7.655   2.334
 6145TIP3    H118376   7.270   7.735   2.286
 6145TIP3    H218377   7.332   7.612   2.349
 6146TIP3   OH218378   1.249   2.664   0.861
 6146TIP3    H118379   1.231   2.592   0.801
 6146TIP3    H218380   1.258   2.741   0.804
 6147TIP3   OH218381   5.455   5.947   0.318
 6147TIP3    H118382   5.488   5.857   0.314
 6147TIP3    H218383   5.444   5.972   0.226
 6148TIP3   OH218384   2.938   5.954   1.910
 6148TIP3    H118385   3.000   6.027   1.901
 6148TIP3    H218386   2.948   5.904   1.829
 6149TIP3   OH218387   7.489   3.386   1.550
 6149TIP3    H118388   7.524   3.337   1.475
 6149TIP3    H218389   7.514   3.333   1.626
 6150TIP3   OH218390   7.236   6.719   5.753
 6150TIP3    H118391   7.224   6.796   5.809
 6150TIP3    H218392   7.204   6.746   5.667
 6151TIP3   OH218393   5.601   2.603   3.667
 6151TIP3    H118394   5.668   2.669   3.682
 6151TIP3    H218395   5.565   2.624   3.581
 6152TIP3   OH218396   4.635   3.194   4.417
 6152TIP3    H118397   4.647   3.099   4.428
 6152TIP3    H218398   4.542   3.204   4.396
 6153TIP3   OH218399   3.153   7.279   4.294
 6153TIP3    H118400   3.136   7.309   4.205
 6153TIP3    H218401   3.232   7.225   4.287
 6154TIP3   OH218402   2.378   1.996   5.935
 6154TIP3    H118403   2.380   1.945   5.854
 6154TIP3    H218404   2.381   2.087   5.906
 6155TIP3   OH218405   0.198   3.577   5.295
 6155TIP3    H118406   0.216   3.670   5.305
 6155TIP3    H218407   0.216   3.559   5.202
 6156TIP3   OH218408   2.399   2.661   2.053
 6156TIP3    H118409   2.443   2.626   1.976
 6156TIP3    H218410   2.306   2.654   2.033
 6157TIP3   OH218411   0.152   4.075   5.663
 6157TIP3    H118412   0.222   4.011   5.676
 6157TIP3    H218413   0.099   4.038   5.592
 6158TIP3   OH218414   0.314   2.834   3.800
 6158TIP3    H118415   0.369   2.756   3.796
 6158TIP3    H218416   0.364   2.902   3.756
 6159TIP3   OH218417   4.084   2.779   2.091
 6159TIP3    H118418   4.037   2.863   2.102
 6159TIP3    H218419   4.078   2.761   1.997
 6160TIP3   OH218420   1.751   4.227   5.360
 6160TIP3    H118421   1.792   4.304   5.400
 6160TIP3    H218422   1.672   4.213   5.412
 6161TIP3   OH218423   5.908   1.634   5.860
 6161TIP3    H118424   5.840   1.692   5.896
 6161TIP3    H218425   5.970   1.694   5.818
 6162TIP3   OH218426   5.826   6.839   2.759
 6162TIP3    H118427   5.863   6.908   2.703
 6162TIP3    H218428   5.890   6.829   2.830
 6163TIP3   OH218429   3.945   6.124   1.687
 6163TIP3    H118430   3.925   6.114   1.780
 6163TIP3    H218431   3.910   6.210   1.664
 6164TIP3   OH218432   0.961   4.468   3.370
 6164TIP3    H118433   1.026   4.531   3.399
 6164TIP3    H218434   0.993   4.438   3.284
 6165TIP3   OH218435   4.344   1.244   1.462
 6165TIP3    H118436   4.360   1.287   1.378
 6165TIP3    H218437   4.249   1.241   1.470
 6166TIP3   OH218438   4.845   2.590   4.088
 6166TIP3    H118439   4.871   2.638   4.167
 6166TIP3    H218440   4.799   2.513   4.121
 6167TIP3   OH218441   8.154   4.324   3.886
 6167TIP3    H118442   8.071   4.338   3.841
 6167TIP3    H218443   8.135   4.261   3.955
 6168TIP3   OH218444   6.437   0.760   2.393
 6168TIP3    H118445   6.479   0.827   2.446
 6168TIP3    H218446   6.468   0.776   2.304
 6169TIP3   OH218447   2.525   3.655   5.139
 6169TIP3    H118448   2.610   3.678   5.176
 6169TIP3    H218449   2.462   3.679   5.207
 6170TIP3   OH218450   1.652   1.275   0.477
 6170TIP3    H118451   1.662   1.369   0.464
 6170TIP3    H218452   1.642   1.239   0.389
 6171TIP3   OH218453   2.206   0.135   3.196
 6171TIP3    H118454   2.153   0.211   3.220
 6171TIP3    H218455   2.270   0.169   3.133
 6172TIP3   OH218456   8.168   4.182   2.303
 6172TIP3    H118457   8.194   4.195   2.394
 6172TIP3    H218458   8.185   4.266   2.261
 6173TIP3   OH218459   6.044   1.777   4.182
 6173TIP3    H118460   6.121   1.798   4.129
 6173TIP3    H218461   6.055   1.829   4.262
 6174TIP3   OH218462   4.449   3.721   1.616
 6174TIP3    H118463   4.387   3.780   1.659
 6174TIP3    H218464   4.481   3.771   1.541
 6175TIP3   OH218465   4.046   2.181   0.189
 6175TIP3    H118466   4.133   2.168   0.151
 6175TIP3    H218467   4.055   2.152   0.280
 6176TIP3   OH218468   2.622   6.304   2.245
 6176TIP3    H118469   2.608   6.211   2.229
 6176TIP3    H218470   2.535   6.343   2.237
 6177TIP3   OH218471   5.983   0.070   4.441
 6177TIP3    H118472   5.952   0.140   4.384
 6177TIP3    H218473   5.919   0.066   4.512
 6178TIP3   OH218474   2.500   0.911   5.126
 6178TIP3    H118475   2.565   0.948   5.187
 6178TIP3    H218476   2.417   0.952   5.152
 6179TIP3   OH218477   4.004   3.279   5.478
 6179TIP3    H118478   4.012   3.243   5.390
 6179TIP3    H218479   3.940   3.223   5.522
 6180TIP3   OH218480   2.157   6.546   1.100
 6180TIP3    H118481   2.200   6.631   1.103
 6180TIP3    H218482   2.158   6.515   1.190
 6181TIP3   OH218483   6.815   7.686   4.620
 6181TIP3    H118484   6.753   7.693   4.693
 6181TIP3    H218485   6.873   7.761   4.632
 6182TIP3   OH218486   5.286   6.398   2.549
 6182TIP3    H118487   5.347   6.448   2.496
 6182TIP3    H218488   5.204   6.401   2.500
 6183TIP3   OH218489   8.059   6.991   1.898
 6183TIP3    H118490   7.970   6.976   1.865
 6183TIP3    H218491   8.067   6.933   1.973
 6184TIP3   OH218492   0.560   3.525   2.031
 6184TIP3    H118493   0.633   3.587   2.033
 6184TIP3    H218494   0.573   3.471   2.109
 6185TIP3   OH218495   7.209   2.238   6.717
 6185TIP3    H118496   7.143   2.172   6.735
 6185TIP3    H218497   7.160   2.313   6.684
 6186TIP3   OH218498   2.542   3.209   5.252
 6186TIP3    H118499   2.469   3.151   5.230
 6186TIP3    H218500   2.579   3.172   5.331
 6187TIP3   OH218501   1.377   5.880   5.531
 6187TIP3    H118502   1.452   5.830   5.563
 6187TIP3    H218503   1.389   5.968   5.566
 6188TIP3   OH218504   6.792   2.797   1.810
 6188TIP3    H118505   6.810   2.704   1.817
 6188TIP3    H218506   6.697   2.804   1.819
 6189TIP3   OH218507   4.749   0.102   4.858
 6189TIP3    H118508   4.721   0.183   4.816
 6189TIP3    H218509   4.839   0.119   4.885
 6190TIP3   OH218510   0.203   3.889   4.222
 6190TIP3    H118511   0.148   3.871   4.146
 6190TIP3    H218512   0.181   3.819   4.284
 6191TIP3   OH218513   0.750  -0.047   6.561
 6191TIP3    H118514   0.802   0.021   6.518
 6191TIP3    H218515   0.722  -0.007   6.643
 6192TIP3   OH218516   1.337   0.229   1.400
 6192TIP3    H118517   1.382   0.207   1.482
 6192TIP3    H218518   1.318   0.144   1.360
 6193TIP3   OH218519   0.665   2.248   2.985
 6193TIP3    H118520   0.586   2.242   3.040
 6193TIP3    H218521   0.737   2.230   3.046
 6194TIP3   OH218522   8.310   0.656   5.611
 6194TIP3    H118523   8.313   0.750   5.592
 6194TIP3    H218524   8.326   0.614   5.527
 6195TIP3   OH218525   2.898   0.761   4.726
 6195TIP3    H118526   2.967   0.715   4.678
 6195TIP3    H218527   2.921   0.854   4.719
 6196TIP3   OH218528   2.328   1.096   4.365
 6196TIP3    H118529   2.287   1.079   4.280
 6196TIP3    H218530   2.264   1.150   4.412
 6197TIP3   OH218531   5.287   2.041   0.316
 6197TIP3    H118532   5.286   2.134   0.339
 6197TIP3    H218533   5.379   2.017   0.316
 6198TIP3   OH218534   0.721   3.135   3.565
 6198TIP3    H118535   0.708   3.137   3.471
 6198TIP3    H218536   0.632   3.126   3.601
 6199TIP3   OH218537   6.668   5.289   5.302
 6199TIP3    H118538   6.679   5.384   5.314
 6199TIP3    H218539   6.679   5.277   5.207
 6200TIP3   OH218540   0.092   2.249   4.410
 6200TIP3    H118541   0.177   2.277   4.443
 6200TIP3    H218542   0.031   2.268   4.482
 6201TIP3   OH218543   7.645   5.644   4.497
 6201TIP3    H118544   7.578   5.712   4.494
 6201TIP3    H218545   7.727   5.693   4.508
 6202TIP3   OH218546   0.771   1.057   2.992
 6202TIP3    H118547   0.846   1.009   2.957
 6202TIP3    H218548   0.782   1.052   3.087
 6203TIP3   OH218549   4.981   6.690   6.808
 6203TIP3    H118550   4.999   6.616   6.867
 6203TIP3    H218551   4.992   6.767   6.864
 6204TIP3   OH218552   4.969   4.422   2.624
 6204TIP3    H118553   4.874   4.432   2.618
 6204TIP3    H218554   4.982   4.351   2.687
 6205TIP3   OH218555   1.130   1.846   2.333
 6205TIP3    H118556   1.138   1.819   2.242
 6205TIP3    H218557   1.175   1.778   2.383
 6206TIP3   OH218558   5.614   1.228   2.934
 6206TIP3    H118559   5.673   1.238   3.009
 6206TIP3    H218560   5.605   1.316   2.899
 6207TIP3   OH218561   6.973   6.999   3.226
 6207TIP3    H118562   7.067   7.003   3.242
 6207TIP3    H218563   6.944   6.922   3.274
 6208TIP3   OH218564   2.611   2.378   4.756
 6208TIP3    H118565   2.528   2.407   4.794
 6208TIP3    H218566   2.675   2.444   4.784
 6209TIP3   OH218567   7.125   5.212   1.452
 6209TIP3    H118568   7.101   5.203   1.544
 6209TIP3    H218569   7.173   5.294   1.447
 6210TIP3   OH218570   3.153   1.824   6.439
 6210TIP3    H118571   3.239   1.865   6.447
 6210TIP3    H218572   3.091   1.894   6.458
 6211TIP3   OH218573   0.575   5.469   4.654
 6211TIP3    H118574   0.506   5.428   4.601
 6211TIP3    H218575   0.536   5.479   4.740
 6212TIP3   OH218576   6.417   2.746   3.118
 6212TIP3    H118577   6.497   2.695   3.109
 6212TIP3    H218578   6.430   2.822   3.062
 6213TIP3   OH218579   2.052   1.131   5.252
 6213TIP3    H118580   2.043   1.113   5.158
 6213TIP3    H218581   2.010   1.216   5.264
 6214TIP3   OH218582   5.346   4.734   1.363
 6214TIP3    H118583   5.340   4.649   1.319
 6214TIP3    H218584   5.262   4.775   1.346
 6215TIP3   OH218585   2.089   2.291   3.973
 6215TIP3    H118586   2.048   2.368   3.934
 6215TIP3    H218587   2.131   2.247   3.899
 6216TIP3   OH218588   3.035   5.501   0.165
 6216TIP3    H118589   2.987   5.431   0.120
 6216TIP3    H218590   3.018   5.579   0.113
 6217TIP3   OH218591   2.196   6.702   5.607
 6217TIP3    H118592   2.255   6.776   5.596
 6217TIP3    H218593   2.109   6.737   5.587
 6218TIP3   OH218594   6.380   5.094   2.765
 6218TIP3    H118595   6.336   5.131   2.688
 6218TIP3    H218596   6.389   5.001   2.745
 6219TIP3   OH218597   3.901   3.628   2.990
 6219TIP3    H118598   3.822   3.683   2.985
 6219TIP3    H218599   3.973   3.690   2.979
 6220TIP3   OH218600   2.353   4.881   3.460
 6220TIP3    H118601   2.348   4.956   3.519
 6220TIP3    H218602   2.446   4.861   3.454
 6221TIP3   OH218603   2.058   1.533   3.873
 6221TIP3    H118604   2.044   1.603   3.810
 6221TIP3    H218605   2.078   1.578   3.955
 6222TIP3   OH218606   1.355   2.490   6.635
 6222TIP3    H118607   1.308   2.412   6.662
 6222TIP3    H218608   1.346   2.551   6.709
 6223TIP3   OH218609   7.805   7.654   0.299
 6223TIP3    H118610   7.826   7.729   0.355
 6223TIP3    H218611   7.888   7.632   0.257
 6224TIP3   OH218612   4.676   0.605   3.486
 6224TIP3    H118613   4.685   0.513   3.511
 6224TIP3    H218614   4.766   0.637   3.480
 6225TIP3   OH218615   0.857   6.324   2.109
 6225TIP3    H118616   0.806   6.343   2.187
 6225TIP3    H218617   0.877   6.409   2.071
 6226TIP3   OH218618   4.282   4.611   4.216
 6226TIP3    H118619   4.377   4.622   4.213
 6226TIP3    H218620   4.265   4.542   4.152
 6227TIP3   OH218621   5.335   4.696   2.236
 6227TIP3    H118622   5.252   4.718   2.276
 6227TIP3    H218623   5.388   4.775   2.244
 6228TIP3   OH218624   1.508   3.077   2.134
 6228TIP3    H118625   1.539   3.046   2.048
 6228TIP3    H218626   1.583   3.123   2.171
 6229TIP3   OH218627   5.011   3.993   4.430
 6229TIP3    H118628   4.938   3.933   4.447
 6229TIP3    H218629   5.000   4.018   4.338
 6230TIP3   OH218630   8.338   0.500   4.158
 6230TIP3    H118631   8.356   0.498   4.064
 6230TIP3    H218632   8.414   0.457   4.197
 6231TIP3   OH218633   0.163   2.994   6.042
 6231TIP3    H118634   0.153   2.930   6.113
 6231TIP3    H218635   0.122   2.952   5.966
 6232TIP3   OH218636   6.933   4.409   2.185
 6232TIP3    H118637   7.015   4.379   2.226
 6232TIP3    H218638   6.865   4.362   2.232
 6233TIP3   OH218639   5.338   2.317   0.245
 6233TIP3    H118640   5.390   2.266   0.183
 6233TIP3    H218641   5.357   2.408   0.221
 6234TIP3   OH218642   6.199   4.834   5.396
 6234TIP3    H118643   6.167   4.841   5.306
 6234TIP3    H218644   6.287   4.871   5.392
 6235TIP3   OH218645   6.288   6.949   4.676
 6235TIP3    H118646   6.348   6.994   4.737
 6235TIP3    H218647   6.241   7.019   4.633
 6236TIP3   OH218648   5.702   3.897   2.078
 6236TIP3    H118649   5.675   3.976   2.031
 6236TIP3    H218650   5.763   3.928   2.145
 6237TIP3   OH218651   2.164   3.326   1.621
 6237TIP3    H118652   2.217   3.257   1.662
 6237TIP3    H218653   2.217   3.405   1.630
 6238TIP3   OH218654   3.946   7.859   2.031
 6238TIP3    H118655   4.015   7.876   2.094
 6238TIP3    H218656   3.871   7.831   2.083
 6239TIP3   OH218657   6.152   3.743   6.011
 6239TIP3    H118658   6.201   3.670   6.049
 6239TIP3    H218659   6.169   3.736   5.917
 6240TIP3   OH218660   1.563   1.569   1.208
 6240TIP3    H118661   1.645   1.605   1.241
 6240TIP3    H218662   1.499   1.591   1.275
 6241TIP3   OH218663   0.022   5.529   0.519
 6241TIP3    H118664   0.116   5.519   0.506
 6241TIP3    H218665   0.007   5.624   0.514
 6242TIP3   OH218666   3.027   4.015   6.343
 6242TIP3    H118667   3.069   4.053   6.420
 6242TIP3    H218668   2.994   3.930   6.373
 6243TIP3   OH218669   5.903   4.631   6.104
 6243TIP3    H118670   5.813   4.661   6.122
 6243TIP3    H218671   5.910   4.548   6.150
 6244TIP3   OH218672   7.687   4.642   4.487
 6244TIP3    H118673   7.752   4.576   4.511
 6244TIP3    H218674   7.637   4.656   4.568
 6245TIP3   OH218675   3.983   4.166   3.417
 6245TIP3    H118676   3.902   4.125   3.447
 6245TIP3    H218677   4.001   4.124   3.332
 6246TIP3   OH218678   4.867   3.582   0.720
 6246TIP3    H118679   4.810   3.602   0.646
 6246TIP3    H218680   4.868   3.662   0.772
 6247TIP3   OH218681   1.553   2.831   6.224
 6247TIP3    H118682   1.579   2.847   6.315
 6247TIP3    H218683   1.531   2.917   6.190
 6248TIP3   OH218684   4.533   6.703   2.616
 6248TIP3    H118685   4.486   6.783   2.592
 6248TIP3    H218686   4.625   6.730   2.624
 6249TIP3   OH218687   8.018   1.913   0.720
 6249TIP3    H118688   8.050   2.002   0.737
 6249TIP3    H218689   8.016   1.871   0.806
 6250TIP3   OH218690   8.072   2.140   0.418
 6250TIP3    H118691   7.999   2.202   0.422
 6250TIP3    H218692   8.035   2.062   0.377
 6251TIP3   OH218693   5.359   4.184   6.017
 6251TIP3    H118694   5.313   4.169   6.100
 6251TIP3    H218695   5.336   4.108   5.964
 6252TIP3   OH218696   1.105   1.042   0.560
 6252TIP3    H118697   1.016   1.013   0.543
 6252TIP3    H218698   1.154   0.960   0.572
 6253TIP3   OH218699   6.094   4.891   0.022
 6253TIP3    H118700   6.010   4.846   0.037
 6253TIP3    H218701   6.101   4.951   0.095
 6254TIP3   OH218702   7.942   5.535   6.269
 6254TIP3    H118703   7.971   5.444   6.266
 6254TIP3    H218704   7.849   5.529   6.295
 6255TIP3   OH218705   8.172   3.554   5.105
 6255TIP3    H118706   8.228   3.606   5.163
 6255TIP3    H218707   8.110   3.511   5.163
 6256TIP3   OH218708   2.812   5.999   2.890
 6256TIP3    H118709   2.732   5.991   2.943
 6256TIP3    H218710   2.883   5.978   2.950
 6257TIP3   OH218711   3.501   4.023   1.788
 6257TIP3    H118712   3.583   4.073   1.789
 6257TIP3    H218713   3.435   4.087   1.760
 6258TIP3   OH218714   7.902   1.550   2.735
 6258TIP3    H118715   7.968   1.500   2.686
 6258TIP3    H218716   7.951   1.587   2.809
 6259TIP3   OH218717   7.493   4.549   2.424
 6259TIP3    H118718   7.425   4.483   2.441
 6259TIP3    H218719   7.575   4.501   2.429
 6260TIP3   OH218720   3.099   2.182   0.811
 6260TIP3    H118721   3.180   2.196   0.761
 6260TIP3    H218722   3.029   2.190   0.746
 6261TIP3   OH218723   6.664   6.249   2.959
 6261TIP3    H118724   6.747   6.255   3.007
 6261TIP3    H218725   6.624   6.336   2.971
 6262TIP3   OH218726   6.251   0.137   6.841
 6262TIP3    H118727   6.337   0.097   6.856
 6262TIP3    H218728   6.197   0.065   6.807
 6263TIP3   OH218729   4.288   5.642   3.093
 6263TIP3    H118730   4.352   5.651   3.022
 6263TIP3    H218731   4.207   5.617   3.048
 6264TIP3   OH218732   6.125   5.573   3.411
 6264TIP3    H118733   6.061   5.605   3.348
 6264TIP3    H218734   6.185   5.520   3.359
 6265TIP3   OH218735   6.690   6.983   0.981
 6265TIP3    H118736   6.674   7.019   1.069
 6265TIP3    H218737   6.678   6.889   0.991
 6266TIP3   OH218738   1.242   2.170   3.221
 6266TIP3    H118739   1.315   2.136   3.169
 6266TIP3    H218740   1.219   2.099   3.280
 6267TIP3   OH218741   4.670   5.043   5.590
 6267TIP3    H118742   4.625   5.118   5.552
 6267TIP3    H218743   4.600   4.986   5.623
 6268TIP3   OH218744   5.743   4.034   3.731
 6268TIP3    H118745   5.796   4.113   3.741
 6268TIP3    H218746   5.792   3.966   3.777
 6269TIP3   OH218747   7.199   7.254   5.719
 6269TIP3    H118748   7.118   7.231   5.675
 6269TIP3    H218749   7.177   7.250   5.813
 6270TIP3   OH218750   1.321   1.215   0.834
 6270TIP3    H118751   1.358   1.187   0.750
 6270TIP3    H218752   1.287   1.135   0.873
 6271TIP3   OH218753   8.225   5.680   2.719
 6271TIP3    H118754   8.135   5.649   2.722
 6271TIP3    H218755   8.218   5.774   2.703
 6272TIP3   OH218756   4.969   2.709   1.569
 6272TIP3    H118757   4.984   2.624   1.529
 6272TIP3    H218758   4.954   2.768   1.495
 6273TIP3   OH218759   0.333   6.274   4.498
 6273TIP3    H118760   0.289   6.229   4.570
 6273TIP3    H218761   0.378   6.204   4.450
 6274TIP3   OH218762   4.166   7.908   5.271
 6274TIP3    H118763   4.119   7.834   5.309
 6274TIP3    H218764   4.151   7.901   5.177
 6275TIP3   OH218765   1.288   2.961   4.912
 6275TIP3    H118766   1.340   3.014   4.851
 6275TIP3    H218767   1.319   2.987   4.999
 6276TIP3   OH218768   3.527   6.641   6.678
 6276TIP3    H118769   3.605   6.676   6.634
 6276TIP3    H218770   3.473   6.606   6.607
 6277TIP3   OH218771   6.135   4.071   3.635
 6277TIP3    H118772   6.077   4.102   3.565
 6277TIP3    H218773   6.151   3.979   3.613
 6278TIP3   OH218774   7.458   5.989   2.328
 6278TIP3    H118775   7.369   5.961   2.306
 6278TIP3    H218776   7.473   5.954   2.415
 6279TIP3   OH218777   6.251   2.174   4.698
 6279TIP3    H118778   6.274   2.217   4.616
 6279TIP3    H218779   6.157   2.190   4.709
 6280TIP3   OH218780   4.114   5.293   4.112
 6280TIP3    H118781   4.186   5.354   4.128
 6280TIP3    H218782   4.042   5.324   4.167
 6281TIP3   OH218783   2.107   4.990   1.262
 6281TIP3    H118784   2.092   4.895   1.267
 6281TIP3    H218785   2.198   4.998   1.232
 6282TIP3   OH218786   5.378   7.242   6.745
 6282TIP3    H118787   5.285   7.250   6.723
 6282TIP3    H218788   5.408   7.165   6.696
 6283TIP3   OH218789   2.144   0.890   1.535
 6283TIP3    H118790   2.225   0.888   1.586
 6283TIP3    H218791   2.173   0.879   1.444
 6284TIP3   OH218792   7.083   7.654   2.564
 6284TIP3    H118793   7.172   7.655   2.528
 6284TIP3    H218794   7.033   7.710   2.504
 6285TIP3   OH218795   6.924   4.972   4.496
 6285TIP3    H118796   6.884   4.903   4.550
 6285TIP3    H218797   7.016   4.972   4.523
 6286TIP3   OH218798   0.319   2.557   1.785
 6286TIP3    H118799   0.240   2.611   1.780
 6286TIP3    H218800   0.362   2.586   1.865
 6287TIP3   OH218801   6.559   6.446   1.042
 6287TIP3    H118802   6.598   6.443   0.955
 6287TIP3    H218803   6.579   6.360   1.080
 6288TIP3   OH218804   5.954   3.570   4.222
 6288TIP3    H118805   5.929   3.648   4.173
 6288TIP3    H218806   5.941   3.497   4.161
 6289TIP3   OH218807   4.338   5.479   4.143
 6289TIP3    H118808   4.352   5.567   4.108
 6289TIP3    H218809   4.426   5.442   4.149
 6290TIP3   OH218810   5.404   4.663   0.458
 6290TIP3    H118811   5.469   4.607   0.501
 6290TIP3    H218812   5.378   4.615   0.380
 6291TIP3   OH218813   1.504   6.218   0.962
 6291TIP3    H118814   1.443   6.253   0.897
 6291TIP3    H218815   1.448   6.194   1.037
 6292TIP3   OH218816   5.405   5.150   2.395
 6292TIP3    H118817   5.413   5.061   2.429
 6292TIP3    H218818   5.473   5.200   2.440
 6293TIP3   OH218819   6.167   3.504   2.838
 6293TIP3    H118820   6.171   3.421   2.791
 6293TIP3    H218821   6.129   3.482   2.923
 6294TIP3   OH218822   4.609   5.869   4.080
 6294TIP3    H118823   4.663   5.794   4.105
 6294TIP3    H218824   4.634   5.938   4.142
 6295TIP3   OH218825   7.028   1.054   0.103
 6295TIP3    H118826   7.020   0.961   0.120
 6295TIP3    H218827   7.107   1.063   0.050
 6296TIP3   OH218828   5.440   5.749   1.062
 6296TIP3    H118829   5.496   5.673   1.078
 6296TIP3    H218830   5.454   5.805   1.138
 6297TIP3   OH218831   3.453   1.154   5.316
 6297TIP3    H118832   3.509   1.212   5.264
 6297TIP3    H218833   3.448   1.073   5.265
 6298TIP3   OH218834   5.743   4.443   5.483
 6298TIP3    H118835   5.706   4.356   5.498
 6298TIP3    H218836   5.755   4.480   5.570
 6299TIP3   OH218837   7.207   2.699   1.281
 6299TIP3    H118838   7.215   2.783   1.324
 6299TIP3    H218839   7.296   2.680   1.249
 6300TIP3   OH218840   1.868   2.926   1.027
 6300TIP3    H118841   1.815   2.863   0.979
 6300TIP3    H218842   1.957   2.913   0.993
 6301TIP3   OH218843   2.853   5.007   4.969
 6301TIP3    H118844   2.885   4.937   5.026
 6301TIP3    H218845   2.759   4.991   4.962
 6302TIP3   OH218846   6.777   4.625   3.021
 6302TIP3    H118847   6.697   4.626   2.968
 6302TIP3    H218848   6.811   4.714   3.013
 6303TIP3   OH218849   4.063   5.863   1.257
 6303TIP3    H118850   4.119   5.795   1.219
 6303TIP3    H218851   3.975   5.825   1.256
 6304TIP3   OH218852   6.171   1.334   3.310
 6304TIP3    H118853   6.251   1.282   3.310
 6304TIP3    H218854   6.193   1.412   3.360
 6305TIP3   OH218855   4.916   4.471   0.667
 6305TIP3    H118856   4.922   4.377   0.649
 6305TIP3    H218857   4.917   4.476   0.763
 6306TIP3   OH218858   2.088   5.524   4.195
 6306TIP3    H118859   2.167   5.490   4.236
 6306TIP3    H218860   2.024   5.528   4.266
 6307TIP3   OH218861   0.853   5.517   5.261
 6307TIP3    H118862   0.912   5.514   5.336
 6307TIP3    H218863   0.891   5.455   5.198
 6308TIP3   OH218864   7.251   0.206   4.539
 6308TIP3    H118865   7.243   0.194   4.633
 6308TIP3    H218866   7.176   0.261   4.515
 6309TIP3   OH218867   8.075   3.458   5.455
 6309TIP3    H118868   8.083   3.375   5.502
 6309TIP3    H218869   8.013   3.439   5.384
 6310TIP3   OH218870   0.760   1.199   5.341
 6310TIP3    H118871   0.808   1.197   5.424
 6310TIP3    H218872   0.691   1.263   5.354
 6311TIP3   OH218873   3.930   0.596   6.077
 6311TIP3    H118874   3.850   0.578   6.028
 6311TIP3    H218875   3.976   0.512   6.079
 6312TIP3   OH218876   3.098   6.749   1.548
 6312TIP3    H118877   3.046   6.739   1.627
 6312TIP3    H218878   3.186   6.721   1.574
 6313TIP3   OH218879   4.705   0.317   3.476
 6313TIP3    H118880   4.788   0.271   3.462
 6313TIP3    H218881   4.657   0.304   3.395
 6314TIP3   OH218882   2.114   1.481   5.031
 6314TIP3    H118883   2.044   1.511   5.089
 6314TIP3    H218884   2.189   1.535   5.054
 6315TIP3   OH218885   7.610   4.763   5.588
 6315TIP3    H118886   7.657   4.685   5.618
 6315TIP3    H218887   7.613   4.757   5.493
 6316TIP3   OH218888   1.102   6.154   0.300
 6316TIP3    H118889   1.024   6.132   0.248
 6316TIP3    H218890   1.068   6.181   0.385
 6317TIP3   OH218891   4.664   4.811   0.090
 6317TIP3    H118892   4.696   4.793   0.179
 6317TIP3    H218893   4.726   4.767   0.033
 6318TIP3   OH218894   6.437   1.186   4.636
 6318TIP3    H118895   6.477   1.251   4.578
 6318TIP3    H218896   6.382   1.133   4.579
 6319TIP3   OH218897   4.576   2.169   5.244
 6319TIP3    H118898   4.597   2.165   5.337
 6319TIP3    H218899   4.483   2.144   5.240
 6320TIP3   OH218900   8.120   4.152   4.724
 6320TIP3    H118901   8.089   4.105   4.801
 6320TIP3    H218902   8.102   4.244   4.742
 6321TIP3   OH218903   7.010   2.214   5.148
 6321TIP3    H118904   7.093   2.237   5.190
 6321TIP3    H218905   7.011   2.262   5.065
 6322TIP3   OH218906   0.189   5.417   2.483
 6322TIP3    H118907   0.226   5.476   2.549
 6322TIP3    H218908   0.102   5.394   2.517
 6323TIP3   OH218909   6.531   5.657   2.194
 6323TIP3    H118910   6.504   5.565   2.203
 6323TIP3    H218911   6.480   5.703   2.260
 6324TIP3   OH218912   1.149   6.810   1.056
 6324TIP3    H118913   1.235   6.768   1.066
 6324TIP3    H218914   1.157   6.893   1.102
 6325TIP3   OH218915   7.901   5.235   0.746
 6325TIP3    H118916   7.889   5.282   0.828
 6325TIP3    H218917   7.838   5.276   0.686
 6326TIP3   OH218918   0.845   1.124   0.783
 6326TIP3    H118919   0.872   1.209   0.818
 6326TIP3    H218920   0.775   1.146   0.721
 6327TIP3   OH218921   7.775   1.151   6.394
 6327TIP3    H118922   7.748   1.083   6.332
 6327TIP3    H218923   7.692   1.182   6.431
 6328TIP3   OH218924   7.114   0.264   4.098
 6328TIP3    H118925   7.150   0.210   4.168
 6328TIP3    H218926   7.063   0.203   4.045
 6329TIP3   OH218927   0.562   6.269   2.516
 6329TIP3    H118928   0.488   6.318   2.553
 6329TIP3    H218929   0.539   6.177   2.530
 6330TIP3   OH218930   3.901   4.592   3.357
 6330TIP3    H118931   3.978   4.610   3.302
 6330TIP3    H218932   3.868   4.508   3.326
 6331TIP3   OH218933   4.981   3.076   3.176
 6331TIP3    H118934   5.023   3.127   3.245
 6331TIP3    H218935   5.048   3.070   3.108
 6332TIP3   OH218936   4.246   7.363   4.174
 6332TIP3    H118937   4.258   7.445   4.222
 6332TIP3    H218938   4.324   7.312   4.195
 6333TIP3   OH218939   5.145   1.349   1.150
 6333TIP3    H118940   5.192   1.421   1.107
 6333TIP3    H218941   5.200   1.273   1.135
 6334TIP3   OH218942   6.901   0.549   6.106
 6334TIP3    H118943   6.994   0.570   6.107
 6334TIP3    H218944   6.868   0.581   6.190
 6335TIP3   OH218945   6.469   1.997   3.064
 6335TIP3    H118946   6.383   1.961   3.086
 6335TIP3    H218947   6.502   1.940   2.995
 6336TIP3   OH218948   0.260   0.812   5.397
 6336TIP3    H118949   0.318   0.754   5.446
 6336TIP3    H218950   0.291   0.808   5.307
 6337TIP3   OH218951   6.350   7.585   6.140
 6337TIP3    H118952   6.353   7.503   6.091
 6337TIP3    H218953   6.388   7.650   6.081
 6338TIP3   OH218954   7.400   7.010   4.511
 6338TIP3    H118955   7.363   7.075   4.571
 6338TIP3    H218956   7.411   7.058   4.429
 6339TIP3   OH218957   7.327   1.426   6.607
 6339TIP3    H118958   7.281   1.383   6.679
 6339TIP3    H218959   7.268   1.496   6.579
 6340TIP3   OH218960   4.174   4.179   5.649
 6340TIP3    H118961   4.266   4.178   5.622
 6340TIP3    H218962   4.125   4.182   5.567
 6341TIP3   OH218963   1.795   5.797   5.315
 6341TIP3    H118964   1.732   5.798   5.243
 6341TIP3    H218965   1.785   5.883   5.356
 6342TIP3   OH218966   5.292   5.326   1.148
 6342TIP3    H118967   5.256   5.415   1.154
 6342TIP3    H218968   5.222   5.275   1.107
 6343TIP3   OH218969   8.083   2.648   6.479
 6343TIP3    H118970   8.069   2.575   6.539
 6343TIP3    H218971   8.154   2.620   6.422
 6344TIP3   OH218972   2.172   0.703   0.668
 6344TIP3    H118973   2.223   0.781   0.688
 6344TIP3    H218974   2.137   0.675   0.753
 6345TIP3   OH218975   0.201   3.162   4.175
 6345TIP3    H118976   0.203   3.180   4.081
 6345TIP3    H218977   0.234   3.072   4.183
 6346TIP3   OH218978   6.387   7.817   1.203
 6346TIP3    H118979   6.444   7.740   1.197
 6346TIP3    H218980   6.301   7.785   1.176
 6347TIP3   OH218981   5.864   3.926   2.285
 6347TIP3    H118982   5.905   4.012   2.293
 6347TIP3    H218983   5.908   3.872   2.350
 6348TIP3   OH218984   1.998   1.207   4.283
 6348TIP3    H118985   2.002   1.216   4.379
 6348TIP3    H218986   2.089   1.210   4.255
 6349TIP3   OH218987   0.421   1.612   4.963
 6349TIP3    H118988   0.370   1.533   4.985
 6349TIP3    H218989   0.472   1.587   4.886
 6350TIP3   OH218990   3.377   1.708   0.828
 6350TIP3    H118991   3.298   1.653   0.824
 6350TIP3    H218992   3.349   1.792   0.792
 6351TIP3   OH218993   2.766   6.720   5.100
 6351TIP3    H118994   2.684   6.768   5.089
 6351TIP3    H218995   2.834   6.786   5.094
 6352TIP3   OH218996   3.250   7.477   0.065
 6352TIP3    H118997   3.177   7.445   0.013
 6352TIP3    H218998   3.328   7.453   0.015
 6353TIP3   OH218999   5.023   3.638   6.541
 6353TIP3    H119000   5.106   3.638   6.494
 6353TIP3    H219001   4.959   3.611   6.476
 6354TIP3   OH219002   0.382   6.293   6.777
 6354TIP3    H119003   0.391   6.365   6.714
 6354TIP3    H219004   0.306   6.244   6.746
 6355TIP3   OH219005   0.791   7.048   3.137
 6355TIP3    H119006   0.773   7.064   3.044
 6355TIP3    H219007   0.793   6.952   3.144
 6356TIP3   OH219008   4.239   1.846   3.489
 6356TIP3    H119009   4.158   1.806   3.456
 6356TIP3    H219010   4.210   1.928   3.529
 6357TIP3   OH219011   5.474   5.424   4.876
 6357TIP3    H119012   5.389   5.381   4.880
 6357TIP3    H219013   5.468   5.496   4.940
 6358TIP3   OH219014   7.249   6.850   3.756
 6358TIP3    H119015   7.271   6.845   3.849
 6358TIP3    H219016   7.165   6.895   3.754
 6359TIP3   OH219017   6.585   3.198   6.656
 6359TIP3    H119018   6.669   3.177   6.696
 6359TIP3    H219019   6.520   3.161   6.716
 6360TIP3   OH219020   1.447   2.214   6.043
 6360TIP3    H119021   1.404   2.181   6.121
 6360TIP3    H219022   1.448   2.309   6.053
 6361TIP3   OH219023   7.796   6.355   0.578
 6361TIP3    H119024   7.858   6.289   0.546
 6361TIP3    H219025   7.851   6.424   0.616
 6362TIP3   OH219026   1.716   5.022   1.910
 6362TIP3    H119027   1.661   4.976   1.846
 6362TIP3    H219028   1.739   4.955   1.974
 6363TIP3   OH219029   0.219   6.008   6.087
 6363TIP3    H119030   0.230   5.944   6.017
 6363TIP3    H219031   0.145   6.062   6.060
 6364TIP3   OH219032   1.208   0.702   5.130
 6364TIP3    H119033   1.135   0.709   5.068
 6364TIP3    H219034   1.174   0.649   5.201
 6365TIP3   OH219035   1.247   1.855   0.630
 6365TIP3    H119036   1.284   1.797   0.564
 6365TIP3    H219037   1.188   1.913   0.581
 6366TIP3   OH219038   5.332   1.058   4.434
 6366TIP3    H119039   5.276   1.119   4.385
 6366TIP3    H219040   5.421   1.090   4.420
 6367TIP3   OH219041   8.338   2.219   6.519
 6367TIP3    H119042   8.320   2.154   6.451
 6367TIP3    H219043   8.291   2.297   6.490
 6368TIP3   OH219044   5.126   0.025   5.548
 6368TIP3    H119045   5.179   0.048   5.472
 6368TIP3    H219046   5.039   0.061   5.529
 6369TIP3   OH219047   5.102   0.331   1.527
 6369TIP3    H119048   5.037   0.264   1.502
 6369TIP3    H219049   5.082   0.351   1.618
 6370TIP3   OH219050   6.261   0.324   2.017
 6370TIP3    H119051   6.219   0.410   2.017
 6370TIP3    H219052   6.193   0.265   2.050
 6371TIP3   OH219053   1.144   6.190   6.806
 6371TIP3    H119054   1.211   6.257   6.824
 6371TIP3    H219055   1.194   6.114   6.776
 6372TIP3   OH219056   3.873   2.241   6.220
 6372TIP3    H119057   3.829   2.324   6.241
 6372TIP3    H219058   3.856   2.229   6.126
 6373TIP3   OH219059   6.013   0.496   2.188
 6373TIP3    H119060   6.013   0.492   2.092
 6373TIP3    H219061   5.953   0.427   2.214
 6374TIP3   OH219062   1.792   6.994   4.511
 6374TIP3    H119063   1.742   7.071   4.482
 6374TIP3    H219064   1.821   7.016   4.599
 6375TIP3   OH219065   3.013   6.231   0.477
 6375TIP3    H119066   2.974   6.226   0.564
 6375TIP3    H219067   3.097   6.275   0.491
 6376TIP3   OH219068   1.701   3.177   3.467
 6376TIP3    H119069   1.738   3.255   3.509
 6376TIP3    H219070   1.765   3.108   3.484
 6377TIP3   OH219071   8.279   0.580   2.469
 6377TIP3    H119072   8.309   0.492   2.447
 6377TIP3    H219073   8.355   0.623   2.506
 6378TIP3   OH219074   6.996   5.396   2.225
 6378TIP3    H119075   7.074   5.366   2.272
 6378TIP3    H219076   6.927   5.337   2.253
 6379TIP3   OH219077   2.578   2.501   5.580
 6379TIP3    H119078   2.556   2.590   5.606
 6379TIP3    H219079   2.612   2.461   5.660
 6380TIP3   OH219080   1.252   3.028   3.618
 6380TIP3    H119081   1.239   3.036   3.523
 6380TIP3    H219082   1.346   3.018   3.628
 6381TIP3   OH219083   3.060   0.205   6.046
 6381TIP3    H119084   3.051   0.110   6.038
 6381TIP3    H219085   3.136   0.217   6.103
 6382TIP3   OH219086   4.030   6.816   5.181
 6382TIP3    H119087   4.020   6.725   5.154
 6382TIP3    H219088   3.991   6.820   5.268
 6383TIP3   OH219089   3.415   2.230   4.494
 6383TIP3    H119090   3.485   2.243   4.429
 6383TIP3    H219091   3.343   2.191   4.444
 6384TIP3   OH219092   2.602   3.847   2.178
 6384TIP3    H119093   2.670   3.909   2.152
 6384TIP3    H219094   2.624   3.825   2.268
 6385TIP3   OH219095   3.162   0.804   5.122
 6385TIP3    H119096   3.177   0.731   5.182
 6385TIP3    H219097   3.068   0.822   5.131
 6386TIP3   OH219098   8.254   2.045   3.321
 6386TIP3    H119099   8.159   2.050   3.311
 6386TIP3    H219100   8.267   1.993   3.400
 6387TIP3   OH219101   7.235   3.966   5.677
 6387TIP3    H119102   7.290   3.897   5.642
 6387TIP3    H219103   7.179   3.921   5.741
 6388TIP3   OH219104   1.351   7.001   6.454
 6388TIP3    H119105   1.363   7.075   6.394
 6388TIP3    H219106   1.285   7.030   6.516
 6389TIP3   OH219107   4.962   7.766   0.432
 6389TIP3    H119108   4.946   7.673   0.418
 6389TIP3    H219109   5.057   7.774   0.430
 6390TIP3   OH219110   6.414   4.641   6.360
 6390TIP3    H119111   6.441   4.663   6.449
 6390TIP3    H219112   6.322   4.665   6.356
 6391TIP3   OH219113   6.919   3.154   0.945
 6391TIP3    H119114   6.957   3.130   1.030
 6391TIP3    H219115   6.825   3.151   0.959
 6392TIP3   OH219116   4.157   2.052   3.678
 6392TIP3    H119117   4.095   2.074   3.748
 6392TIP3    H219118   4.115   2.082   3.598
 6393TIP3   OH219119   0.629   7.126   5.071
 6393TIP3    H119120   0.667   7.072   5.002
 6393TIP3    H219121   0.551   7.078   5.099
 6394TIP3   OH219122   7.610   4.071   2.703
 6394TIP3    H119123   7.694   4.105   2.670
 6394TIP3    H219124   7.630   3.981   2.728
 6395TIP3   OH219125   6.320   1.055   2.017
 6395TIP3    H119126   6.248   0.996   1.992
 6395TIP3    H219127   6.350   1.092   1.934
 6396TIP3   OH219128   0.513   1.666   5.867
 6396TIP3    H119129   0.525   1.589   5.811
 6396TIP3    H219130   0.445   1.640   5.929
 6397TIP3   OH219131   2.634   2.266   0.096
 6397TIP3    H119132   2.686   2.201   0.049
 6397TIP3    H219133   2.655   2.251   0.189
 6398TIP3   OH219134   6.167   3.260   3.591
 6398TIP3    H119135   6.224   3.241   3.666
 6398TIP3    H219136   6.162   3.178   3.543
 6399TIP3   OH219137   1.141   1.802   4.422
 6399TIP3    H119138   1.138   1.806   4.326
 6399TIP3    H219139   1.131   1.710   4.443
 6400TIP3   OH219140   7.529   1.570   3.923
 6400TIP3    H119141   7.452   1.516   3.905
 6400TIP3    H219142   7.495   1.658   3.937
 6401TIP3   OH219143   2.438   6.700   6.911
 6401TIP3    H119144   2.374   6.669   6.848
 6401TIP3    H219145   2.441   6.795   6.897
 6402TIP3   OH219146   5.500   0.776   0.925
 6402TIP3    H119147   5.463   0.712   0.985
 6402TIP3    H219148   5.509   0.856   0.977
 6403TIP3   OH219149   3.439   7.327   6.695
 6403TIP3    H119150   3.362   7.383   6.685
 6403TIP3    H219151   3.455   7.292   6.607
 6404TIP3   OH219152   0.276   3.679   2.619
 6404TIP3    H119153   0.370   3.681   2.598
 6404TIP3    H219154   0.262   3.594   2.659
 6405TIP3   OH219155   4.563   3.850   0.438
 6405TIP3    H119156   4.612   3.778   0.477
 6405TIP3    H219157   4.546   3.822   0.349
 6406TIP3   OH219158   6.854   0.237   4.312
 6406TIP3    H119159   6.836   0.143   4.317
 6406TIP3    H219160   6.840   0.269   4.402
 6407TIP3   OH219161   2.562   3.514   0.022
 6407TIP3    H119162   2.550   3.440  -0.037
 6407TIP3    H219163   2.536   3.591  -0.029
 6408TIP3   OH219164   4.344   4.698   4.779
 6408TIP3    H119165   4.434   4.724   4.757
 6408TIP3    H219166   4.289   4.768   4.744
 6409TIP3   OH219167   1.335   7.028   4.433
 6409TIP3    H119168   1.402   7.096   4.436
 6409TIP3    H219169   1.274   7.057   4.365
 6410TIP3   OH219170   3.925   6.241   6.205
 6410TIP3    H119171   3.862   6.238   6.132
 6410TIP3    H219172   3.876   6.280   6.277
 6411TIP3   OH219173   7.703   4.200   6.348
 6411TIP3    H119174   7.629   4.217   6.289
 6411TIP3    H219175   7.781   4.210   6.293
 6412TIP3   OH219176   2.800   5.862   3.859
 6412TIP3    H119177   2.746   5.941   3.853
 6412TIP3    H219178   2.785   5.817   3.777
 6413TIP3   OH219179   3.267   4.022   3.025
 6413TIP3    H119180   3.193   4.059   3.073
 6413TIP3    H219181   3.286   4.088   2.958
 6414TIP3   OH219182   0.822   6.757   3.290
 6414TIP3    H119183   0.817   6.744   3.196
 6414TIP3    H219184   0.736   6.730   3.323
 6415TIP3   OH219185   2.887   0.744   6.706
 6415TIP3    H119186   2.819   0.774   6.767
 6415TIP3    H219187   2.839   0.709   6.631
 6416TIP3   OH219188   4.454   0.763   1.681
 6416TIP3    H119189   4.473   0.850   1.646
 6416TIP3    H219190   4.494   0.764   1.768
 6417TIP3   OH219191   7.465   2.746   1.200
 6417TIP3    H119192   7.560   2.746   1.186
 6417TIP3    H219193   7.434   2.822   1.151
 6418TIP3   OH219194   4.777   4.462   1.407
 6418TIP3    H119195   4.729   4.469   1.489
 6418TIP3    H219196   4.823   4.378   1.413
 6419TIP3   OH219197   2.086   1.324   0.525
 6419TIP3    H119198   2.173   1.283   0.526
 6419TIP3    H219199   2.029   1.259   0.484
 6420TIP3   OH219200   3.908   3.192   6.697
 6420TIP3    H119201   3.946   3.189   6.609
 6420TIP3    H219202   3.832   3.133   6.692
 6421TIP3   OH219203   4.200   1.719   2.672
 6421TIP3    H119204   4.272   1.712   2.609
 6421TIP3    H219205   4.229   1.669   2.748
 6422TIP3   OH219206   7.671   3.809   2.449
 6422TIP3    H119207   7.578   3.835   2.448
 6422TIP3    H219208   7.691   3.796   2.541
 6423TIP3   OH219209   5.299   1.751   6.532
 6423TIP3    H119210   5.373   1.802   6.566
 6423TIP3    H219211   5.329   1.720   6.447
 6424TIP3   OH219212   2.775   3.286   0.095
 6424TIP3    H119213   2.749   3.196   0.116
 6424TIP3    H219214   2.720   3.310   0.020
 6425TIP3   OH219215   4.558   3.665   2.396
 6425TIP3    H119216   4.502   3.597   2.358
 6425TIP3    H219217   4.628   3.616   2.440
 6426TIP3   OH219218   8.305   1.134   6.378
 6426TIP3    H119219   8.291   1.055   6.430
 6426TIP3    H219220   8.258   1.118   6.296
 6427TIP3   OH219221   6.420   4.057   3.583
 6427TIP3    H119222   6.441   4.142   3.622
 6427TIP3    H219223   6.330   4.066   3.551
 6428TIP3   OH219224   0.767   7.224   5.315
 6428TIP3    H119225   0.812   7.308   5.310
 6428TIP3    H219226   0.728   7.213   5.229
 6429TIP3   OH219227   0.038   4.499   0.967
 6429TIP3    H119228   0.031   4.560   1.041
 6429TIP3    H219229   0.131   4.500   0.945
 6430TIP3   OH219230   0.988   3.003   1.434
 6430TIP3    H119231   0.976   2.911   1.455
 6430TIP3    H219232   0.900   3.040   1.438
 6431TIP3   OH219233   8.362   4.294   3.498
 6431TIP3    H119234   8.351   4.211   3.543
 6431TIP3    H219235   8.425   4.276   3.428
 6432TIP3   OH219236   3.144   5.305   6.140
 6432TIP3    H119237   3.179   5.290   6.228
 6432TIP3    H219238   3.221   5.300   6.083
 6433TIP3   OH219239   3.489   7.869   2.885
 6433TIP3    H119240   3.580   7.897   2.895
 6433TIP3    H219241   3.454   7.869   2.974
 6434TIP3   OH219242   1.686   4.805   5.438
 6434TIP3    H119243   1.768   4.784   5.484
 6434TIP3    H219244   1.677   4.736   5.373
 6435TIP3   OH219245   8.165   2.754   3.704
 6435TIP3    H119246   8.116   2.836   3.706
 6435TIP3    H219247   8.208   2.749   3.789
 6436TIP3   OH219248   4.857   7.568   5.231
 6436TIP3    H119249   4.829   7.660   5.236
 6436TIP3    H219250   4.912   7.564   5.153
 6437TIP3   OH219251   4.623   5.362   5.861
 6437TIP3    H119252   4.601   5.453   5.882
 6437TIP3    H219253   4.540   5.322   5.837
 6438TIP3   OH219254   5.595   1.109   4.396
 6438TIP3    H119255   5.627   1.199   4.399
 6438TIP3    H219256   5.649   1.062   4.460
 6439TIP3   OH219257   4.949   4.264   1.447
 6439TIP3    H119258   5.017   4.247   1.382
 6439TIP3    H219259   4.942   4.181   1.495
 6440TIP3   OH219260   2.732   6.815   4.807
 6440TIP3    H119261   2.802   6.877   4.790
 6440TIP3    H219262   2.701   6.837   4.895
 6441TIP3   OH219263   6.097   2.754   2.787
 6441TIP3    H119264   6.150   2.707   2.852
 6441TIP3    H219265   6.032   2.801   2.840
 6442TIP3   OH219266   5.258   2.258   3.692
 6442TIP3    H119267   5.225   2.176   3.729
 6442TIP3    H219268   5.187   2.321   3.707
 6443TIP3   OH219269   2.825   1.898   6.258
 6443TIP3    H119270   2.861   1.810   6.253
 6443TIP3    H219271   2.897   1.955   6.231
 6444TIP3   OH219272   2.444   4.319   2.744
 6444TIP3    H119273   2.374   4.345   2.684
 6444TIP3    H219274   2.449   4.224   2.734
 6445TIP3   OH219275   8.145   1.377   3.080
 6445TIP3    H119276   8.052   1.353   3.075
 6445TIP3    H219277   8.158   1.404   3.171
 6446TIP3   OH219278   2.115   6.588   3.184
 6446TIP3    H119279   2.020   6.594   3.176
 6446TIP3    H219280   2.148   6.614   3.098
 6447TIP3   OH219281   5.722   4.386   3.079
 6447TIP3    H119282   5.789   4.324   3.109
 6447TIP3    H219283   5.651   4.377   3.142
 6448TIP3   OH219284   3.706   0.791   0.769
 6448TIP3    H119285   3.778   0.831   0.719
 6448TIP3    H219286   3.630   0.846   0.749
 6449TIP3   OH219287   3.919   2.504   1.164
 6449TIP3    H119288   3.851   2.484   1.229
 6449TIP3    H219289   3.972   2.572   1.206
 6450TIP3   OH219290   6.824   3.200   2.656
 6450TIP3    H119291   6.796   3.224   2.568
 6450TIP3    H219292   6.755   3.234   2.713
 6451TIP3   OH219293   7.566   0.488   6.546
 6451TIP3    H119294   7.517   0.509   6.467
 6451TIP3    H219295   7.535   0.552   6.610
 6452TIP3   OH219296   3.902   0.163   2.305
 6452TIP3    H119297   3.948   0.089   2.344
 6452TIP3    H219298   3.813   0.157   2.339
 6453TIP3   OH219299   5.984   1.612   5.497
 6453TIP3    H119300   5.973   1.697   5.540
 6453TIP3    H219301   6.047   1.630   5.427
 6454TIP3   OH219302   1.006   1.333   0.906
 6454TIP3    H119303   1.057   1.377   0.838
 6454TIP3    H219304   1.069   1.313   0.975
 6455TIP3   OH219305   4.024   6.199   6.655
 6455TIP3    H119306   4.019   6.242   6.740
 6455TIP3    H219307   4.030   6.105   6.675
 6456TIP3   OH219308   7.091   1.918   2.918
 6456TIP3    H119309   7.084   1.823   2.912
 6456TIP3    H219310   7.001   1.948   2.934
 6457TIP3   OH219311   3.213   1.926   3.761
 6457TIP3    H119312   3.190   1.912   3.853
 6457TIP3    H219313   3.199   1.842   3.719
 6458TIP3   OH219314   5.536   4.653   1.623
 6458TIP3    H119315   5.557   4.569   1.663
 6458TIP3    H219316   5.507   4.631   1.534
 6459TIP3   OH219317   3.605   4.761   4.123
 6459TIP3    H119318   3.646   4.845   4.101
 6459TIP3    H219319   3.669   4.695   4.098
 6460TIP3   OH219320   5.906   2.584   2.415
 6460TIP3    H119321   5.836   2.597   2.479
 6460TIP3    H219322   5.984   2.619   2.458
 6461TIP3   OH219323   5.524   1.967   2.121
 6461TIP3    H119324   5.541   2.060   2.136
 6461TIP3    H219325   5.602   1.923   2.155
 6462TIP3   OH219326   3.236   6.464   3.621
 6462TIP3    H119327   3.191   6.491   3.701
 6462TIP3    H219328   3.320   6.430   3.651
 6463TIP3   OH219329   1.664   6.280   6.570
 6463TIP3    H119330   1.650   6.374   6.578
 6463TIP3    H219331   1.692   6.253   6.658
 6464TIP3   OH219332   0.473   5.153   5.391
 6464TIP3    H119333   0.553   5.205   5.399
 6464TIP3    H219334   0.493   5.072   5.438
 6465TIP3   OH219335   3.817   3.475   2.259
 6465TIP3    H119336   3.732   3.514   2.277
 6465TIP3    H219337   3.809   3.384   2.288
 6466TIP3   OH219338   2.367   3.364   0.195
 6466TIP3    H119339   2.357   3.398   0.106
 6466TIP3    H219340   2.426   3.426   0.238
 6467TIP3   OH219341   7.575   5.003   6.478
 6467TIP3    H119342   7.655   4.964   6.514
 6467TIP3    H219343   7.506   4.971   6.535
 6468TIP3   OH219344   3.861   7.510   4.287
 6468TIP3    H119345   3.862   7.482   4.195
 6468TIP3    H219346   3.778   7.557   4.296
 6469TIP3   OH219347   8.021   5.479   2.717
 6469TIP3    H119348   8.066   5.417   2.659
 6469TIP3    H219349   7.942   5.503   2.670
 6470TIP3   OH219350   7.614   2.536   4.996
 6470TIP3    H119351   7.634   2.626   5.024
 6470TIP3    H219352   7.634   2.536   4.902
 6471TIP3   OH219353   8.457   6.505   3.173
 6471TIP3    H119354   8.392   6.472   3.234
 6471TIP3    H219355   8.476   6.430   3.116
 6472TIP3   OH219356   3.067   5.113   5.828
 6472TIP3    H119357   3.074   5.098   5.922
 6472TIP3    H219358   2.992   5.172   5.819
 6473TIP3   OH219359   5.385   3.071   6.267
 6473TIP3    H119360   5.305   3.111   6.233
 6473TIP3    H219361   5.455   3.132   6.244
 6474TIP3   OH219362   7.352   2.364   1.671
 6474TIP3    H119363   7.343   2.318   1.587
 6474TIP3    H219364   7.447   2.374   1.683
 6475TIP3   OH219365   3.801   6.343   6.424
 6475TIP3    H119366   3.719   6.378   6.389
 6475TIP3    H219367   3.840   6.417   6.472
 6476TIP3   OH219368   4.839   2.731   5.625
 6476TIP3    H119369   4.861   2.675   5.551
 6476TIP3    H219370   4.814   2.814   5.586
 6477TIP3   OH219371   3.930   7.095   2.599
 6477TIP3    H119372   3.972   7.062   2.520
 6477TIP3    H219373   3.997   7.084   2.667
 6478TIP3   OH219374   6.942   2.944   4.559
 6478TIP3    H119375   6.954   2.856   4.595
 6478TIP3    H219376   7.001   2.947   4.483
 6479TIP3   OH219377   5.003   7.920   2.051
 6479TIP3    H119378   5.005   7.968   2.134
 6479TIP3    H219379   5.094   7.892   2.038
 6480TIP3   OH219380   3.694   3.272   0.986
 6480TIP3    H119381   3.653   3.189   1.010
 6480TIP3    H219382   3.645   3.301   0.909
 6481TIP3   OH219383   1.950   3.584   2.266
 6481TIP3    H119384   1.876   3.641   2.288
 6481TIP3    H219385   1.911   3.512   2.216
 6482TIP3   OH219386   5.437   5.521   5.623
 6482TIP3    H119387   5.364   5.478   5.578
 6482TIP3    H219388   5.400   5.551   5.705
 6483TIP3   OH219389   5.542   3.789   5.037
 6483TIP3    H119390   5.540   3.791   4.941
 6483TIP3    H219391   5.495   3.869   5.063
 6484TIP3   OH219392   2.805   6.684   3.406
 6484TIP3    H119393   2.879   6.650   3.356
 6484TIP3    H219394   2.841   6.703   3.493
 6485TIP3   OH219395   2.529   1.325   5.956
 6485TIP3    H119396   2.570   1.249   5.915
 6485TIP3    H219397   2.521   1.389   5.886
 6486TIP3   OH219398   5.275   4.297   6.314
 6486TIP3    H119399   5.270   4.207   6.346
 6486TIP3    H219400   5.294   4.350   6.391
 6487TIP3   OH219401   1.165   4.252   0.765
 6487TIP3    H119402   1.134   4.313   0.832
 6487TIP3    H219403   1.125   4.284   0.684
 6488TIP3   OH219404   7.664   3.016   1.180
 6488TIP3    H119405   7.729   2.960   1.137
 6488TIP3    H219406   7.664   3.097   1.129
 6489TIP3   OH219407   7.563   2.889   2.420
 6489TIP3    H119408   7.501   2.950   2.459
 6489TIP3    H219409   7.530   2.873   2.332
 6490TIP3   OH219410   0.703   7.305   4.131
 6490TIP3    H119411   0.617   7.274   4.100
 6490TIP3    H219412   0.759   7.302   4.053
 6491TIP3   OH219413   2.945   6.899   0.137
 6491TIP3    H119414   2.949   6.819   0.085
 6491TIP3    H219415   2.947   6.869   0.228
 6492TIP3   OH219416   4.972   1.742   6.396
 6492TIP3    H119417   4.986   1.713   6.487
 6492TIP3    H219418   5.050   1.712   6.350
 6493TIP3   OH219419   0.246   4.983   2.569
 6493TIP3    H119420   0.160   5.026   2.574
 6493TIP3    H219421   0.309   5.053   2.586
 6494TIP3   OH219422   1.816   2.652   5.717
 6494TIP3    H119423   1.801   2.745   5.702
 6494TIP3    H219424   1.870   2.649   5.796
 6495TIP3   OH219425   2.425   2.178   0.600
 6495TIP3    H119426   2.405   2.272   0.592
 6495TIP3    H219427   2.485   2.161   0.528
 6496TIP3   OH219428   5.190   2.266   4.722
 6496TIP3    H119429   5.197   2.178   4.685
 6496TIP3    H219430   5.244   2.263   4.801
 6497TIP3   OH219431   5.736   6.222  -0.046
 6497TIP3    H119432   5.827   6.213  -0.017
 6497TIP3    H219433   5.685   6.213   0.034
 6498TIP3   OH219434   6.093   5.518   4.972
 6498TIP3    H119435   6.073   5.548   5.061
 6498TIP3    H219436   6.023   5.456   4.952
 6499TIP3   OH219437   3.540   2.785   0.085
 6499TIP3    H119438   3.550   2.872   0.047
 6499TIP3    H219439   3.612   2.778   0.148
 6500TIP3   OH219440   0.402   7.360   0.126
 6500TIP3    H119441   0.495   7.348   0.110
 6500TIP3    H219442   0.360   7.337   0.043
 6501TIP3   OH219443   7.399   6.976   2.192
 6501TIP3    H119444   7.448   6.963   2.111
 6501TIP3    H219445   7.326   7.033   2.167
 6502TIP3   OH219446   6.102   2.008   5.503
 6502TIP3    H119447   6.145   1.946   5.444
 6502TIP3    H219448   6.068   2.077   5.445
 6503TIP3   OH219449   0.884   5.596   2.153
 6503TIP3    H119450   0.866   5.565   2.064
 6503TIP3    H219451   0.799   5.594   2.197
 6504TIP3   OH219452   6.264   6.488   3.166
 6504TIP3    H119453   6.301   6.428   3.101
 6504TIP3    H219454   6.172   6.461   3.173
 6505TIP3   OH219455   7.726   7.749   3.740
 6505TIP3    H119456   7.738   7.663   3.780
 6505TIP3    H219457   7.645   7.741   3.689
 6506TIP3   OH219458   6.177   7.397   0.432
 6506TIP3    H119459   6.268   7.421   0.448
 6506TIP3    H219460   6.163   7.319   0.486
 6507TIP3   OH219461   1.882   4.546   2.903
 6507TIP3    H119462   1.860   4.536   2.810
 6507TIP3    H219463   1.976   4.528   2.907
 6508TIP3   OH219464   7.031   4.175   6.827
 6508TIP3    H119465   6.984   4.102   6.788
 6508TIP3    H219466   7.097   4.199   6.763
 6509TIP3   OH219467   2.772   3.668   0.164
 6509TIP3    H119468   2.763   3.583   0.121
 6509TIP3    H219469   2.683   3.690   0.192
 6510TIP3   OH219470   6.886   6.399   4.784
 6510TIP3    H119471   6.869   6.487   4.819
 6510TIP3    H219472   6.834   6.341   4.839
 6511TIP3   OH219473   6.373   0.742   1.276
 6511TIP3    H119474   6.300   0.692   1.240
 6511TIP3    H219475   6.403   0.797   1.203
 6512TIP3   OH219476   0.109   0.851   4.773
 6512TIP3    H119477   0.175   0.782   4.781
 6512TIP3    H219478   0.130   0.913   4.843
 6513TIP3   OH219479   2.507   2.789   5.291
 6513TIP3    H119480   2.463   2.711   5.324
 6513TIP3    H219481   2.479   2.859   5.350
 6514TIP3   OH219482   6.064   0.263   2.435
 6514TIP3    H119483   6.114   0.345   2.432
 6514TIP3    H219484   5.975   0.289   2.410
 6515TIP3   OH219485   6.919   1.475   5.645
 6515TIP3    H119486   6.881   1.550   5.598
 6515TIP3    H219487   6.844   1.435   5.689
 6516TIP3   OH219488   6.032   2.581   1.620
 6516TIP3    H119489   6.033   2.538   1.706
 6516TIP3    H219490   5.953   2.548   1.578
 6517TIP3   OH219491   4.699   7.691   0.729
 6517TIP3    H119492   4.711   7.615   0.786
 6517TIP3    H219493   4.663   7.758   0.787
 6518TIP3   OH219494   7.239   2.701   1.934
 6518TIP3    H119495   7.221   2.646   2.010
 6518TIP3    H219496   7.211   2.649   1.859
 6519TIP3   OH219497   1.242   4.320   2.542
 6519TIP3    H119498   1.168   4.378   2.560
 6519TIP3    H219499   1.319   4.372   2.564
 6520TIP3   OH219500   3.450   6.932   1.465
 6520TIP3    H119501   3.436   6.940   1.370
 6520TIP3    H219502   3.367   6.961   1.503
 6521TIP3   OH219503   4.684   0.495   2.463
 6521TIP3    H119504   4.655   0.410   2.429
 6521TIP3    H219505   4.757   0.474   2.522
 6522TIP3   OH219506   4.188   5.859   4.701
 6522TIP3    H119507   4.155   5.923   4.764
 6522TIP3    H219508   4.244   5.909   4.642
 6523TIP3   OH219509   0.955   6.548   2.016
 6523TIP3    H119510   1.010   6.592   2.081
 6523TIP3    H219511   1.007   6.549   1.935
 6524TIP3   OH219512   1.909   0.393   1.867
 6524TIP3    H119513   1.942   0.392   1.777
 6524TIP3    H219514   1.868   0.479   1.878
 6525TIP3   OH219515   0.362   0.169   1.521
 6525TIP3    H119516   0.364   0.193   1.428
 6525TIP3    H219517   0.318   0.241   1.564
 6526TIP3   OH219518   3.897   3.446   3.190
 6526TIP3    H119519   3.894   3.513   3.122
 6526TIP3    H219520   3.814   3.456   3.237
 6527TIP3   OH219521   5.821   2.373   1.804
 6527TIP3    H119522   5.915   2.388   1.804
 6527TIP3    H219523   5.809   2.296   1.748
 6528TIP3   OH219524   8.235   7.367   0.480
 6528TIP3    H119525   8.219   7.296   0.542
 6528TIP3    H219526   8.147   7.399   0.457
 6529TIP3   OH219527   5.660   4.244   3.312
 6529TIP3    H119528   5.704   4.257   3.396
 6529TIP3    H219529   5.623   4.156   3.318
 6530TIP3   OH219530   2.740   0.305   3.868
 6530TIP3    H119531   2.666   0.245   3.868
 6530TIP3    H219532   2.816   0.250   3.883
 6531TIP3   OH219533   2.572   1.291   3.290
 6531TIP3    H119534   2.626   1.320   3.363
 6531TIP3    H219535   2.607   1.337   3.214
 6532TIP3   OH219536   2.846   7.140   5.561
 6532TIP3    H119537   2.778   7.177   5.617
 6532TIP3    H219538   2.798   7.099   5.489
 6533TIP3   OH219539   6.723   0.091   3.393
 6533TIP3    H119540   6.754   0.053   3.475
 6533TIP3    H219541   6.802   0.110   3.343
 6534TIP3   OH219542   2.251   7.446   5.176
 6534TIP3    H119543   2.319   7.398   5.127
 6534TIP3    H219544   2.295   7.526   5.205
 6535TIP3   OH219545   7.508   2.715   6.301
 6535TIP3    H119546   7.575   2.719   6.370
 6535TIP3    H219547   7.460   2.635   6.320
 6536TIP3   OH219548   8.177   6.796   1.456
 6536TIP3    H119549   8.271   6.812   1.455
 6536TIP3    H219550   8.144   6.844   1.379
 6537TIP3   OH219551   0.216   5.830   5.893
 6537TIP3    H119552   0.169   5.757   5.853
 6537TIP3    H219553   0.305   5.824   5.857
 6538TIP3   OH219554   4.628   7.016   5.533
 6538TIP3    H119555   4.722   7.032   5.527
 6538TIP3    H219556   4.599   7.007   5.442
 6539TIP3   OH219557   7.693   4.032   6.080
 6539TIP3    H119558   7.627   3.978   6.123
 6539TIP3    H219559   7.733   3.974   6.016
 6540TIP3   OH219560   6.756   3.431   3.752
 6540TIP3    H119561   6.728   3.368   3.819
 6540TIP3    H219562   6.731   3.516   3.787
 6541TIP3   OH219563   7.272   5.921   0.471
 6541TIP3    H119564   7.360   5.912   0.436
 6541TIP3    H219565   7.267   5.855   0.541
 6542TIP3   OH219566   5.586   5.804   2.511
 6542TIP3    H119567   5.589   5.782   2.604
 6542TIP3    H219568   5.493   5.793   2.487
 6543TIP3   OH219569   8.197   7.859   1.622
 6543TIP3    H119570   8.251   7.860   1.700
 6543TIP3    H219571   8.259   7.844   1.550
 6544TIP3   OH219572   5.786   4.232   4.543
 6544TIP3    H119573   5.880   4.230   4.557
 6544TIP3    H219574   5.772   4.301   4.479
 6545TIP3   OH219575   4.536   0.460   6.410
 6545TIP3    H119576   4.509   0.480   6.500
 6545TIP3    H219577   4.622   0.420   6.419
 6546TIP3   OH219578   1.365   4.453   4.083
 6546TIP3    H119579   1.451   4.454   4.041
 6546TIP3    H219580   1.304   4.436   4.011
 6547TIP3   OH219581   5.302   4.445   5.944
 6547TIP3    H119582   5.216   4.432   5.903
 6547TIP3    H219583   5.335   4.357   5.960
 6548TIP3   OH219584   3.807   0.653   1.771
 6548TIP3    H119585   3.735   0.598   1.742
 6548TIP3    H219586   3.859   0.669   1.692
 6549TIP3   OH219587   6.166   4.060   2.657
 6549TIP3    H119588   6.207   4.071   2.572
 6549TIP3    H219589   6.192   3.972   2.685
 6550TIP3   OH219590   5.717   5.346   3.255
 6550TIP3    H119591   5.768   5.266   3.242
 6550TIP3    H219592   5.784   5.415   3.264
 6551TIP3   OH219593   2.400   5.546   1.773
 6551TIP3    H119594   2.316   5.500   1.773
 6551TIP3    H219595   2.410   5.578   1.863
 6552TIP3   OH219596   3.547   6.418   3.369
 6552TIP3    H119597   3.483   6.361   3.412
 6552TIP3    H219598   3.507   6.505   3.373
 6553TIP3   OH219599   6.128   4.836   0.338
 6553TIP3    H119600   6.199   4.876   0.287
 6553TIP3    H219601   6.157   4.746   0.353
 6554TIP3   OH219602   8.326   2.629   5.721
 6554TIP3    H119603   8.322   2.533   5.728
 6554TIP3    H219604   8.236   2.655   5.700
 6555TIP3   OH219605   5.836   5.345   4.389
 6555TIP3    H119606   5.816   5.375   4.478
 6555TIP3    H219607   5.924   5.377   4.372
 6556TIP3   OH219608   7.803   6.122   2.564
 6556TIP3    H119609   7.843   6.131   2.650
 6556TIP3    H219610   7.770   6.032   2.562
 6557TIP3   OH219611   5.361   5.113   4.724
 6557TIP3    H119612   5.292   5.051   4.749
 6557TIP3    H219613   5.317   5.198   4.720
 6558TIP3   OH219614   7.987   1.307   1.504
 6558TIP3    H119615   7.900   1.340   1.482
 6558TIP3    H219616   7.977   1.272   1.593
 6559TIP3   OH219617   3.075   0.857   1.011
 6559TIP3    H119618   3.126   0.807   1.074
 6559TIP3    H219619   2.991   0.810   1.006
 6560TIP3   OH219620   6.611   6.521   3.041
 6560TIP3    H119621   6.544   6.577   3.001
 6560TIP3    H219622   6.670   6.583   3.085
 6561TIP3   OH219623   1.740   6.415   0.718
 6561TIP3    H119624   1.778   6.425   0.631
 6561TIP3    H219625   1.812   6.381   0.772
 6562TIP3   OH219626   4.966   5.060   6.436
 6562TIP3    H119627   4.903   4.989   6.442
 6562TIP3    H219628   4.914   5.137   6.414
 6563TIP3   OH219629   2.396   4.414   1.661
 6563TIP3    H119630   2.372   4.506   1.655
 6563TIP3    H219631   2.315   4.367   1.642
 6564TIP3   OH219632   4.519   0.175   2.826
 6564TIP3    H119633   4.479   0.254   2.789
 6564TIP3    H219634   4.611   0.180   2.802
 6565TIP3   OH219635   3.444   4.843   0.243
 6565TIP3    H119636   3.517   4.860   0.183
 6565TIP3    H219637   3.381   4.913   0.224
 6566TIP3   OH219638   8.190   5.075   2.746
 6566TIP3    H119639   8.188   4.997   2.801
 6566TIP3    H219640   8.219   5.145   2.804
 6567TIP3   OH219641   0.201   2.718   4.033
 6567TIP3    H119642   0.143   2.783   4.072
 6567TIP3    H219643   0.263   2.770   3.982
 6568TIP3   OH219644   2.734   0.794   0.172
 6568TIP3    H119645   2.804   0.785   0.108
 6568TIP3    H219646   2.738   0.714   0.224
 6569TIP3   OH219647   8.155   7.756   6.555
 6569TIP3    H119648   8.175   7.731   6.465
 6569TIP3    H219649   8.161   7.852   6.555
 6570TIP3   OH219650   1.016   0.383   3.170
 6570TIP3    H119651   0.991   0.341   3.252
 6570TIP3    H219652   1.088   0.330   3.136
 6571TIP3   OH219653   1.788   0.347   6.627
 6571TIP3    H119654   1.798   0.338   6.532
 6571TIP3    H219655   1.702   0.387   6.639
 6572TIP3   OH219656   6.330   1.652   1.885
 6572TIP3    H119657   6.394   1.693   1.943
 6572TIP3    H219658   6.293   1.724   1.835
 6573TIP3   OH219659   1.294   4.504   3.333
 6573TIP3    H119660   1.302   4.421   3.381
 6573TIP3    H219661   1.363   4.559   3.370
 6574TIP3   OH219662   4.627   1.850   1.976
 6574TIP3    H119663   4.562   1.906   2.018
 6574TIP3    H219664   4.654   1.900   1.898
 6575TIP3   OH219665   5.330   2.394   1.914
 6575TIP3    H119666   5.370   2.358   1.835
 6575TIP3    H219667   5.239   2.362   1.911
 6576TIP3   OH219668   4.505   4.726   3.950
 6576TIP3    H119669   4.570   4.789   3.918
 6576TIP3    H219670   4.495   4.748   4.043
 6577TIP3   OH219671   0.112   7.556   1.015
 6577TIP3    H119672   0.150   7.469   1.024
 6577TIP3    H219673   0.187   7.614   1.004
 6578TIP3   OH219674   5.269   3.743   3.079
 6578TIP3    H119675   5.326   3.697   3.140
 6578TIP3    H219676   5.292   3.835   3.087
 6579TIP3   OH219677   5.474   6.946   0.459
 6579TIP3    H119678   5.568   6.963   0.446
 6579TIP3    H219679   5.469   6.906   0.546
 6580TIP3   OH219680   0.470   7.686   2.654
 6580TIP3    H119681   0.382   7.650   2.660
 6580TIP3    H219682   0.517   7.647   2.728
 6581TIP3   OH219683   1.465   7.426   1.109
 6581TIP3    H119684   1.551   7.466   1.106
 6581TIP3    H219685   1.432   7.446   1.196
 6582TIP3   OH219686   2.450   6.509   5.018
 6582TIP3    H119687   2.354   6.515   5.024
 6582TIP3    H219688   2.467   6.494   4.925
 6583TIP3   OH219689   1.660   6.146   4.495
 6583TIP3    H119690   1.595   6.076   4.501
 6583TIP3    H219691   1.707   6.143   4.578
 6584TIP3   OH219692   5.864   4.093   2.743
 6584TIP3    H119693   5.939   4.130   2.697
 6584TIP3    H219694   5.899   4.019   2.792
 6585TIP3   OH219695   3.727   6.024   5.483
 6585TIP3    H119696   3.713   6.040   5.389
 6585TIP3    H219697   3.734   5.928   5.490
 6586TIP3   OH219698   7.648   7.004   3.714
 6586TIP3    H119699   7.740   7.026   3.729
 6586TIP3    H219700   7.628   6.939   3.781
 6587TIP3   OH219701   5.753   2.038   5.180
 6587TIP3    H119702   5.769   2.126   5.144
 6587TIP3    H219703   5.661   2.020   5.158
 6588TIP3   OH219704   2.625   1.434   3.041
 6588TIP3    H119705   2.558   1.500   3.063
 6588TIP3    H219706   2.660   1.463   2.957
 6589TIP3   OH219707   2.983   1.651   3.353
 6589TIP3    H119708   3.037   1.586   3.398
 6589TIP3    H219709   2.926   1.598   3.297
 6590TIP3   OH219710   5.674   6.553   0.856
 6590TIP3    H119711   5.686   6.459   0.838
 6590TIP3    H219712   5.737   6.572   0.925
 6591TIP3   OH219713   6.915   5.558   1.626
 6591TIP3    H119714   6.966   5.496   1.677
 6591TIP3    H219715   6.881   5.620   1.690
 6592TIP3   OH219716   7.361   2.653   4.617
 6592TIP3    H119717   7.373   2.672   4.524
 6592TIP3    H219718   7.416   2.717   4.662
 6593TIP3   OH219719   6.247   3.796   2.164
 6593TIP3    H119720   6.338   3.799   2.135
 6593TIP3    H219721   6.241   3.862   2.233
 6594TIP3   OH219722   7.310   0.162   5.008
 6594TIP3    H119723   7.295   0.189   5.098
 6594TIP3    H219724   7.391   0.206   4.983
 6595TIP3   OH219725   8.115   2.035   6.851
 6595TIP3    H119726   8.185   1.985   6.810
 6595TIP3    H219727   8.035   1.998   6.815
 6596TIP3   OH219728   1.406   5.261   1.942
 6596TIP3    H119729   1.345   5.279   2.014
 6596TIP3    H219730   1.360   5.199   1.886
 6597TIP3   OH219731   4.769   2.385   3.876
 6597TIP3    H119732   4.723   2.356   3.797
 6597TIP3    H219733   4.733   2.471   3.895
 6598TIP3   OH219734   5.803   4.921   1.688
 6598TIP3    H119735   5.758   4.931   1.604
 6598TIP3    H219736   5.810   4.826   1.701
 6599TIP3   OH219737   3.540   6.876   3.003
 6599TIP3    H119738   3.482   6.904   3.074
 6599TIP3    H219739   3.625   6.865   3.045
 6600TIP3   OH219740   4.469   7.228   4.241
 6600TIP3    H119741   4.557   7.259   4.223
 6600TIP3    H219742   4.470   7.204   4.334
 6601TIP3   OH219743   5.155   5.131   0.348
 6601TIP3    H119744   5.185   5.066   0.285
 6601TIP3    H219745   5.137   5.209   0.295
 6602TIP3   OH219746   1.368   3.119   2.789
 6602TIP3    H119747   1.392   3.039   2.742
 6602TIP3    H219748   1.433   3.126   2.860
 6603TIP3   OH219749   5.966   7.188   5.859
 6603TIP3    H119750   5.924   7.271   5.882
 6603TIP3    H219751   6.036   7.213   5.800
 6604TIP3   OH219752   5.474   3.559   0.798
 6604TIP3    H119753   5.459   3.633   0.739
 6604TIP3    H219754   5.388   3.519   0.810
 6605TIP3   OH219755   3.266   2.792   1.305
 6605TIP3    H119756   3.258   2.887   1.309
 6605TIP3    H219757   3.186   2.759   1.345
 6606TIP3   OH219758   3.394   4.339   6.710
 6606TIP3    H119759   3.373   4.246   6.711
 6606TIP3    H219760   3.425   4.358   6.798
 6607TIP3   OH219761   4.921   4.838   4.483
 6607TIP3    H119762   4.958   4.801   4.403
 6607TIP3    H219763   4.914   4.932   4.465
 6608TIP3   OH219764   6.413   6.753   0.162
 6608TIP3    H119765   6.464   6.750   0.242
 6608TIP3    H219766   6.466   6.805   0.101
 6609TIP3   OH219767   2.827   5.965   2.284
 6609TIP3    H119768   2.752   6.013   2.320
 6609TIP3    H219769   2.791   5.916   2.210
 6610TIP3   OH219770   1.802   0.591   6.839
 6610TIP3    H119771   1.729   0.530   6.848
 6610TIP3    H219772   1.777   0.666   6.894
 6611TIP3   OH219773   5.250   0.188   3.688
 6611TIP3    H119774   5.296   0.194   3.604
 6611TIP3    H219775   5.269   0.100   3.720
 6612TIP3   OH219776   4.280   6.023   2.308
 6612TIP3    H119777   4.341   6.091   2.278
 6612TIP3    H219778   4.196   6.047   2.271
 6613TIP3   OH219779   6.540   1.373   5.993
 6613TIP3    H119780   6.589   1.456   5.996
 6613TIP3    H219781   6.475   1.382   6.062
 6614TIP3   OH219782   5.621   3.141   2.429
 6614TIP3    H119783   5.677   3.163   2.504
 6614TIP3    H219784   5.668   3.177   2.353
 6615TIP3   OH219785   6.882   6.148   5.732
 6615TIP3    H119786   6.888   6.133   5.826
 6615TIP3    H219787   6.803   6.102   5.705
 6616TIP3   OH219788   5.935   7.906   3.874
 6616TIP3    H119789   5.967   7.838   3.814
 6616TIP3    H219790   5.944   7.988   3.825
 6617TIP3   OH219791   6.959   6.898   3.632
 6617TIP3    H119792   6.868   6.875   3.650
 6617TIP3    H219793   6.974   6.871   3.542
 6618TIP3   OH219794   0.896   5.953   4.928
 6618TIP3    H119795   0.808   5.941   4.965
 6618TIP3    H219796   0.907   6.048   4.923
 6619TIP3   OH219797   4.535   1.324   6.704
 6619TIP3    H119798   4.627   1.304   6.725
 6619TIP3    H219799   4.534   1.420   6.695
 6620TIP3   OH219800   0.327   1.457   0.350
 6620TIP3    H119801   0.400   1.518   0.364
 6620TIP3    H219802   0.258   1.489   0.408
 6621TIP3   OH219803   4.081   2.727   1.560
 6621TIP3    H119804   4.070   2.727   1.465
 6621TIP3    H219805   4.040   2.809   1.589
 6622TIP3   OH219806   3.308   3.577   0.081
 6622TIP3    H119807   3.219   3.600   0.057
 6622TIP3    H219808   3.313   3.482   0.068
 6623TIP3   OH219809   2.442   6.114   1.183
 6623TIP3    H119810   2.440   6.129   1.277
 6623TIP3    H219811   2.517   6.056   1.169
 6624TIP3   OH219812   0.196   0.046   5.836
 6624TIP3    H119813   0.106   0.067   5.811
 6624TIP3    H219814   0.228   0.124   5.880
 6625TIP3   OH219815   2.849   1.980   3.892
 6625TIP3    H119816   2.804   1.967   3.975
 6625TIP3    H219817   2.840   1.896   3.846
 6626TIP3   OH219818   5.818   4.249   4.871
 6626TIP3    H119819   5.842   4.156   4.869
 6626TIP3    H219820   5.892   4.292   4.914
 6627TIP3   OH219821   1.118   4.399   3.660
 6627TIP3    H119822   1.170   4.328   3.697
 6627TIP3    H219823   1.030   4.385   3.695
 6628TIP3   OH219824   1.081   1.926   3.293
 6628TIP3    H119825   1.137   1.853   3.265
 6628TIP3    H219826   0.994   1.888   3.298
 6629TIP3   OH219827   6.812   1.672   5.462
 6629TIP3    H119828   6.805   1.593   5.410
 6629TIP3    H219829   6.905   1.695   5.459
 6630TIP3   OH219830   6.335   4.713   1.461
 6630TIP3    H119831   6.349   4.623   1.489
 6630TIP3    H219832   6.255   4.740   1.506
 6631TIP3   OH219833   0.176   7.264   3.882
 6631TIP3    H119834   0.225   7.186   3.909
 6631TIP3    H219835   0.103   7.229   3.830
 6632TIP3   OH219836   1.689   6.062   0.088
 6632TIP3    H119837   1.757   6.125   0.113
 6632TIP3    H219838   1.665   6.087  -0.001
 6633TIP3   OH219839   1.804   3.461   5.902
 6633TIP3    H119840   1.881   3.417   5.937
 6633TIP3    H219841   1.830   3.491   5.815
 6634TIP3   OH219842   5.321   1.504   0.997
 6634TIP3    H119843   5.364   1.546   0.923
 6634TIP3    H219844   5.254   1.448   0.959
 6635TIP3   OH219845   0.819   4.940   3.769
 6635TIP3    H119846   0.806   4.864   3.713
 6635TIP3    H219847   0.897   4.983   3.734
 6636TIP3   OH219848   7.406   4.249   6.339
 6636TIP3    H119849   7.326   4.197   6.339
 6636TIP3    H219850   7.377   4.338   6.319
 6637TIP3   OH219851   5.766   0.171   1.459
 6637TIP3    H119852   5.841   0.231   1.468
 6637TIP3    H219853   5.799   0.099   1.405
 6638TIP3   OH219854   6.821   1.569   4.892
 6638TIP3    H119855   6.858   1.645   4.936
 6638TIP3    H219856   6.892   1.505   4.889
 6639TIP3   OH219857   7.672   3.781   5.187
 6639TIP3    H119858   7.606   3.716   5.164
 6639TIP3    H219859   7.623   3.854   5.225
 6640TIP3   OH219860   7.044   0.708   4.006
 6640TIP3    H119861   7.073   0.616   4.008
 6640TIP3    H219862   7.086   0.747   4.083
 6641TIP3   OH219863   2.222   1.842   2.055
 6641TIP3    H119864   2.254   1.752   2.055
 6641TIP3    H219865   2.229   1.870   1.964
 6642TIP3   OH219866   3.011   7.705   0.489
 6642TIP3    H119867   3.095   7.666   0.464
 6642TIP3    H219868   2.950   7.632   0.493
 6643TIP3   OH219869   5.930   2.988   1.852
 6643TIP3    H119870   5.907   2.906   1.810
 6643TIP3    H219871   6.026   2.992   1.849
 6644TIP3   OH219872   1.568   0.938   3.252
 6644TIP3    H119873   1.477   0.930   3.281
 6644TIP3    H219874   1.573   1.027   3.216
 6645TIP3   OH219875   0.580   5.073   3.899
 6645TIP3    H119876   0.653   5.044   3.845
 6645TIP3    H219877   0.592   5.167   3.907
 6646TIP3   OH219878   1.555   3.430   4.823
 6646TIP3    H119879   1.505   3.483   4.762
 6646TIP3    H219880   1.554   3.342   4.785
 6647TIP3   OH219881   4.852   5.990   6.562
 6647TIP3    H119882   4.875   5.897   6.564
 6647TIP3    H219883   4.931   6.034   6.592
 6648TIP3   OH219884   3.214   4.788   3.103
 6648TIP3    H119885   3.290   4.781   3.161
 6648TIP3    H219886   3.229   4.721   3.036
 6649TIP3   OH219887   7.758   6.238   4.808
 6649TIP3    H119888   7.826   6.264   4.870
 6649TIP3    H219889   7.677   6.275   4.844
 6650TIP3   OH219890   7.763   7.542   6.776
 6650TIP3    H119891   7.830   7.488   6.819
 6650TIP3    H219892   7.743   7.495   6.696
 6651TIP3   OH219893   2.830   2.723   6.603
 6651TIP3    H119894   2.882   2.759   6.531
 6651TIP3    H219895   2.858   2.632   6.609
 6652TIP3   OH219896   0.764   6.058   2.932
 6652TIP3    H119897   0.721   6.132   2.976
 6652TIP3    H219898   0.738   6.066   2.841
 6653TIP3   OH219899   4.254   3.772   1.049
 6653TIP3    H119900   4.243   3.807   1.137
 6653TIP3    H219901   4.253   3.677   1.061
 6654TIP3   OH219902   1.634   0.615   4.460
 6654TIP3    H119903   1.552   0.626   4.510
 6654TIP3    H219904   1.670   0.532   4.491
 6655TIP3   OH219905   0.560   3.934   0.335
 6655TIP3    H119906   0.612   3.940   0.415
 6655TIP3    H219907   0.595   4.003   0.279
 6656TIP3   OH219908   5.591   7.263   5.655
 6656TIP3    H119909   5.561   7.206   5.584
 6656TIP3    H219910   5.515   7.270   5.713
 6657TIP3   OH219911   6.150   1.493   2.889
 6657TIP3    H119912   6.084   1.446   2.940
 6657TIP3    H219913   6.188   1.428   2.831
 6658TIP3   OH219914   0.449   1.476   1.909
 6658TIP3    H119915   0.491   1.390   1.914
 6658TIP3    H219916   0.482   1.523   1.985
 6659TIP3   OH219917   1.893   7.675   1.334
 6659TIP3    H119918   1.979   7.642   1.307
 6659TIP3    H219919   1.898   7.769   1.321
 6660TIP3   OH219920   6.332   0.911   4.444
 6660TIP3    H119921   6.413   0.862   4.453
 6660TIP3    H219922   6.282   0.863   4.378
 6661TIP3   OH219923   5.115   5.742   5.869
 6661TIP3    H119924   5.162   5.822   5.845
 6661TIP3    H219925   5.087   5.757   5.960
 6662TIP3   OH219926   1.968   4.644   0.699
 6662TIP3    H119927   1.906   4.618   0.768
 6662TIP3    H219928   2.054   4.620   0.733
 6663TIP3   OH219929   7.284   5.125   2.077
 6663TIP3    H119930   7.288   5.071   2.157
 6663TIP3    H219931   7.279   5.062   2.006
 6664TIP3   OH219932   6.320   2.548   3.340
 6664TIP3    H119933   6.365   2.470   3.305
 6664TIP3    H219934   6.370   2.622   3.306
 6665TIP3   OH219935   2.108   3.454   3.538
 6665TIP3    H119936   2.106   3.369   3.582
 6665TIP3    H219937   2.159   3.438   3.459
 6666TIP3   OH219938   4.764   6.976   3.148
 6666TIP3    H119939   4.721   6.985   3.233
 6666TIP3    H219940   4.853   7.010   3.162
 6667TIP3   OH219941   2.931   6.307   4.692
 6667TIP3    H119942   2.880   6.281   4.769
 6667TIP3    H219943   2.924   6.403   4.690
 6668TIP3   OH219944   3.397   1.081   5.774
 6668TIP3    H119945   3.467   1.102   5.711
 6668TIP3    H219946   3.412   1.141   5.847
 6669TIP3   OH219947   2.610   3.650   4.542
 6669TIP3    H119948   2.555   3.586   4.498
 6669TIP3    H219949   2.573   3.735   4.517
 6670TIP3   OH219950   7.167   4.222   0.524
 6670TIP3    H119951   7.157   4.145   0.467
 6670TIP3    H219952   7.172   4.186   0.612
 6671TIP3   OH219953   1.479   6.671   5.162
 6671TIP3    H119954   1.401   6.718   5.192
 6671TIP3    H219955   1.550   6.704   5.218
 6672TIP3   OH219956   5.426   0.228   6.591
 6672TIP3    H119957   5.347   0.191   6.552
 6672TIP3    H219958   5.459   0.289   6.524
 6673TIP3   OH219959   1.604   4.187   0.726
 6673TIP3    H119960   1.532   4.136   0.763
 6673TIP3    H219961   1.643   4.232   0.801
 6674TIP3   OH219962   7.689   3.188   0.960
 6674TIP3    H119963   7.623   3.132   0.918
 6674TIP3    H219964   7.716   3.249   0.892
 6675TIP3   OH219965   6.846   0.975   5.210
 6675TIP3    H119966   6.811   1.063   5.218
 6675TIP3    H219967   6.788   0.932   5.147
 6676TIP3   OH219968   8.347   1.242   2.139
 6676TIP3    H119969   8.340   1.266   2.047
 6676TIP3    H219970   8.437   1.266   2.162
 6677TIP3   OH219971   4.079   6.987   0.271
 6677TIP3    H119972   4.148   6.968   0.208
 6677TIP3    H219973   4.027   7.056   0.230
 6678TIP3   OH219974   3.536   7.602   2.014
 6678TIP3    H119975   3.484   7.674   2.049
 6678TIP3    H219976   3.471   7.539   1.981
 6679TIP3   OH219977   4.793   6.325   4.017
 6679TIP3    H119978   4.789   6.383   3.940
 6679TIP3    H219979   4.875   6.349   4.061
 6680TIP3   OH219980   1.339   6.309   4.019
 6680TIP3    H119981   1.254   6.314   3.975
 6680TIP3    H219982   1.363   6.400   4.035
 6681TIP3   OH219983   4.039   3.030   2.394
 6681TIP3    H119984   4.121   2.993   2.429
 6681TIP3    H219985   4.050   3.027   2.299
 6682TIP3   OH219986   3.550   4.670   2.168
 6682TIP3    H119987   3.500   4.605   2.119
 6682TIP3    H219988   3.532   4.753   2.125
 6683TIP3   OH219989   7.410   5.140   6.095
 6683TIP3    H119990   7.420   5.051   6.129
 6683TIP3    H219991   7.329   5.173   6.135
 6684TIP3   OH219992   7.336   5.706   6.263
 6684TIP3    H119993   7.275   5.734   6.332
 6684TIP3    H219994   7.387   5.784   6.243
 6685TIP3   OH219995   0.501   3.150   3.864
 6685TIP3    H119996   0.475   3.231   3.820
 6685TIP3    H219997   0.492   3.082   3.797
 6686TIP3   OH219998   2.394   0.983   1.946
 6686TIP3    H119999   2.393   0.963   2.040
 6686TIP3    H220000   2.454   1.058   1.938
 6687TIP3   OH220001   1.167   0.503   1.644
 6687TIP3    H120002   1.171   0.584   1.695
 6687TIP3    H220003   1.111   0.445   1.695
 6688TIP3   OH220004   5.909   5.482   6.699
 6688TIP3    H120005   5.931   5.389   6.696
 6688TIP3    H220006   5.884   5.504   6.609
 6689TIP3   OH220007   6.112   5.981   0.948
 6689TIP3    H120008   6.017   5.979   0.958
 6689TIP3    H220009   6.144   5.926   1.020
 6690TIP3   OH220010   4.018   7.189   0.912
 6690TIP3    H120011   4.009   7.240   0.831
 6690TIP3    H220012   4.109   7.202   0.938
 6691TIP3   OH220013   7.472   4.382   5.231
 6691TIP3    H120014   7.406   4.367   5.298
 6691TIP3    H220015   7.485   4.477   5.232
 6692TIP3   OH220016   3.803   6.366   5.033
 6692TIP3    H120017   3.762   6.401   4.953
 6692TIP3    H220018   3.739   6.383   5.102
 6693TIP3   OH220019   3.532   7.016   3.620
 6693TIP3    H120020   3.519   7.058   3.535
 6693TIP3    H220021   3.501   6.926   3.607
 6694TIP3   OH220022   5.036   3.700   3.642
 6694TIP3    H120023   5.081   3.624   3.604
 6694TIP3    H220024   4.963   3.663   3.691
 6695TIP3   OH220025   5.609   3.903   4.027
 6695TIP3    H120026   5.526   3.919   3.982
 6695TIP3    H220027   5.593   3.823   4.078
 6696TIP3   OH220028   4.291   0.727   5.337
 6696TIP3    H120029   4.337   0.659   5.386
 6696TIP3    H220030   4.316   0.809   5.380
 6697TIP3   OH220031   2.360   7.580   3.017
 6697TIP3    H120032   2.357   7.519   2.943
 6697TIP3    H220033   2.433   7.550   3.070
 6698TIP3   OH220034   0.217   6.778   0.583
 6698TIP3    H120035   0.310   6.766   0.604
 6698TIP3    H220036   0.217   6.798   0.489
 6699TIP3   OH220037   0.144   0.903   2.406
 6699TIP3    H120038   0.167   0.837   2.341
 6699TIP3    H220039   0.079   0.959   2.363
 6700TIP3   OH220040   1.035   1.205   3.975
 6700TIP3    H120041   1.061   1.190   3.884
 6700TIP3    H220042   1.090   1.145   4.026
 6701TIP3   OH220043   3.130   5.008   6.085
 6701TIP3    H120044   3.091   4.922   6.099
 6701TIP3    H220045   3.108   5.057   6.164
 6702TIP3   OH220046   2.415   2.061   4.242
 6702TIP3    H120047   2.444   2.128   4.303
 6702TIP3    H220048   2.467   1.983   4.265
 6703TIP3   OH220049   3.538   5.236   5.853
 6703TIP3    H120050   3.587   5.179   5.794
 6703TIP3    H220051   3.452   5.195   5.860
 6704TIP3   OH220052   8.164   6.861   4.335
 6704TIP3    H120053   8.091   6.920   4.349
 6704TIP3    H220054   8.128   6.773   4.347
 6705TIP3   OH220055   0.963   4.743   0.124
 6705TIP3    H120056   0.919   4.775   0.203
 6705TIP3    H220057   1.026   4.811   0.103
 6706TIP3   OH220058   8.118   6.940   0.680
 6706TIP3    H120059   8.063   6.889   0.739
 6706TIP3    H220060   8.057   6.976   0.616
 6707TIP3   OH220061   5.968   3.272   6.110
 6707TIP3    H120062   5.888   3.224   6.092
 6707TIP3    H220063   6.010   3.225   6.182
 6708TIP3   OH220064   3.781   0.430   6.302
 6708TIP3    H120065   3.844   0.413   6.232
 6708TIP3    H220066   3.781   0.349   6.354
 6709TIP3   OH220067   5.662   4.450   4.331
 6709TIP3    H120068   5.608   4.513   4.377
 6709TIP3    H220069   5.599   4.390   4.291
 6710TIP3   OH220070   7.005   3.003   1.891
 6710TIP3    H120071   7.064   3.042   1.826
 6710TIP3    H220072   6.957   2.936   1.843
 6711TIP3   OH220073   6.272   3.610   0.317
 6711TIP3    H120074   6.338   3.606   0.386
 6711TIP3    H220075   6.321   3.625   0.237
 6712TIP3   OH220076   4.373   5.912   3.784
 6712TIP3    H120077   4.361   5.980   3.850
 6712TIP3    H220078   4.424   5.844   3.827
 6713TIP3   OH220079   2.702   7.648   0.726
 6713TIP3    H120080   2.736   7.709   0.661
 6713TIP3    H220081   2.643   7.591   0.676
 6714TIP3   OH220082   2.277   6.454   5.381
 6714TIP3    H120083   2.194   6.461   5.333
 6714TIP3    H220084   2.252   6.439   5.472
 6715TIP3   OH220085   0.451   6.392   3.185
 6715TIP3    H120086   0.373   6.422   3.233
 6715TIP3    H220087   0.503   6.346   3.250
 6716TIP3   OH220088   1.487   5.704   5.354
 6716TIP3    H120089   1.531   5.755   5.286
 6716TIP3    H220090   1.430   5.767   5.398
 6717TIP3   OH220091   2.381   4.625   4.952
 6717TIP3    H120092   2.475   4.641   4.955
 6717TIP3    H220093   2.373   4.529   4.953
 6718TIP3   OH220094   4.890   7.326   2.411
 6718TIP3    H120095   4.939   7.394   2.364
 6718TIP3    H220096   4.836   7.284   2.345
 6719TIP3   OH220097   1.511   2.073   3.048
 6719TIP3    H120098   1.587   2.072   2.989
 6719TIP3    H220099   1.508   1.984   3.084
 6720TIP3   OH220100   6.894   3.660   3.930
 6720TIP3    H120101   6.809   3.624   3.957
 6720TIP3    H220102   6.873   3.745   3.891
 6721TIP3   OH220103   3.596   4.184   3.057
 6721TIP3    H120104   3.557   4.209   2.974
 6721TIP3    H220105   3.690   4.181   3.039
 6722TIP3   OH220106   4.493   0.842   2.277
 6722TIP3    H120107   4.500   0.937   2.290
 6722TIP3    H220108   4.471   0.808   2.364
 6723TIP3   OH220109   8.123   6.811   2.078
 6723TIP3    H120110   8.166   6.745   2.024
 6723TIP3    H220111   8.187   6.833   2.145
 6724TIP3   OH220112   0.434   3.024   1.176
 6724TIP3    H120113   0.481   2.963   1.233
 6724TIP3    H220114   0.503   3.067   1.125
 6725TIP3   OH220115   7.635   7.367   1.479
 6725TIP3    H120116   7.687   7.445   1.459
 6725TIP3    H220117   7.698   7.295   1.477
 6726TIP3   OH220118   2.912   0.554   3.575
 6726TIP3    H120119   2.978   0.484   3.579
 6726TIP3    H220120   2.837   0.512   3.533
 6727TIP3   OH220121   6.506   2.544   3.900
 6727TIP3    H120122   6.423   2.567   3.858
 6727TIP3    H220123   6.480   2.508   3.985
 6728TIP3   OH220124   0.389   6.982   5.128
 6728TIP3    H120125   0.321   6.992   5.061
 6728TIP3    H220126   0.405   6.887   5.133
 6729TIP3   OH220127   6.440   7.016   2.514
 6729TIP3    H120128   6.374   6.974   2.569
 6729TIP3    H220129   6.398   7.097   2.484
 6730TIP3   OH220130   7.580   5.233   1.411
 6730TIP3    H120131   7.592   5.303   1.474
 6730TIP3    H220132   7.487   5.236   1.388
 6731TIP3   OH220133   3.901   1.158   6.637
 6731TIP3    H120134   3.916   1.208   6.556
 6731TIP3    H220135   3.816   1.187   6.668
 6732TIP3   OH220136   1.250   0.799   5.512
 6732TIP3    H120137   1.185   0.774   5.578
 6732TIP3    H220138   1.203   0.859   5.454
 6733TIP3   OH220139   5.515   3.958   2.298
 6733TIP3    H120140   5.593   4.013   2.309
 6733TIP3    H220141   5.535   3.904   2.222
 6734TIP3   OH220142   1.669   6.816   0.274
 6734TIP3    H120143   1.614   6.789   0.348
 6734TIP3    H220144   1.682   6.735   0.224
 6735TIP3   OH220145   5.877   7.575   1.439
 6735TIP3    H120146   5.861   7.669   1.432
 6735TIP3    H220147   5.878   7.558   1.533
 6736TIP3   OH220148   2.415   0.706   4.400
 6736TIP3    H120149   2.450   0.634   4.452
 6736TIP3    H220150   2.320   0.698   4.408
 6737TIP3   OH220151   3.294   4.885   3.371
 6737TIP3    H120152   3.240   4.891   3.450
 6737TIP3    H220153   3.343   4.803   3.382
 6738TIP3   OH220154   6.277   2.089   6.187
 6738TIP3    H120155   6.332   2.025   6.232
 6738TIP3    H220156   6.219   2.122   6.256
 6739TIP3   OH220157   3.061   1.657   1.471
 6739TIP3    H120158   2.996   1.727   1.468
 6739TIP3    H220159   3.019   1.588   1.523
 6740TIP3   OH220160   6.321   4.342   2.485
 6740TIP3    H120161   6.363   4.398   2.418
 6740TIP3    H220162   6.280   4.272   2.435
 6741TIP3   OH220163   2.947   3.562   1.826
 6741TIP3    H120164   2.890   3.490   1.800
 6741TIP3    H220165   2.888   3.629   1.861
 6742TIP3   OH220166   8.158   4.502   5.719
 6742TIP3    H120167   8.156   4.426   5.661
 6742TIP3    H220168   8.142   4.577   5.661
 6743TIP3   OH220169   3.040   2.639   1.365
 6743TIP3    H120170   2.989   2.615   1.443
 6743TIP3    H220171   2.983   2.616   1.291
 6744TIP3   OH220172   7.791   4.932   6.695
 6744TIP3    H120173   7.799   4.868   6.625
 6744TIP3    H220174   7.865   4.991   6.683
 6745TIP3   OH220175   7.303   0.807   6.189
 6745TIP3    H120176   7.374   0.743   6.186
 6745TIP3    H220177   7.281   0.823   6.098
 6746TIP3   OH220178   6.811  -0.030   0.055
 6746TIP3    H120179   6.792  -0.021  -0.038
 6746TIP3    H220180   6.890   0.023   0.068
 6747TIP3   OH220181   6.816   2.442   2.893
 6747TIP3    H120182   6.884   2.500   2.861
 6747TIP3    H220183   6.839   2.428   2.985
 6748TIP3   OH220184   7.062   5.462   1.066
 6748TIP3    H120185   7.043   5.427   1.154
 6748TIP3    H220186   6.976   5.487   1.032
 6749TIP3   OH220187   6.382   2.673   1.321
 6749TIP3    H120188   6.371   2.580   1.299
 6749TIP3    H220189   6.337   2.719   1.250
 6750TIP3   OH220190   5.941   2.849   5.295
 6750TIP3    H120191   5.919   2.787   5.225
 6750TIP3    H220192   5.965   2.794   5.369
 6751TIP3   OH220193   0.788   1.970   5.477
 6751TIP3    H120194   0.853   1.900   5.471
 6751TIP3    H220195   0.738   1.950   5.557
 6752TIP3   OH220196   2.716   5.691   6.049
 6752TIP3    H120197   2.725   5.746   6.127
 6752TIP3    H220198   2.743   5.604   6.078
 6753TIP3   OH220199   6.285   0.388   4.955
 6753TIP3    H120200   6.317   0.439   4.880
 6753TIP3    H220201   6.209   0.438   4.986
 6754TIP3   OH220202   4.609   6.076   3.768
 6754TIP3    H120203   4.574   6.159   3.801
 6754TIP3    H220204   4.534   6.033   3.728
 6755TIP3   OH220205   7.766   2.235   0.828
 6755TIP3    H120206   7.794   2.219   0.918
 6755TIP3    H220207   7.686   2.287   0.836
 6756TIP3   OH220208   5.577   2.254   1.902
 6756TIP3    H120209   5.526   2.318   1.950
 6756TIP3    H220210   5.655   2.239   1.955
 6757TIP3   OH220211   7.203   6.323   5.139
 6757TIP3    H120212   7.257   6.325   5.060
 6757TIP3    H220213   7.212   6.411   5.177
 6758TIP3   OH220214   6.533   1.195   0.952
 6758TIP3    H120215   6.506   1.269   1.006
 6758TIP3    H220216   6.484   1.205   0.870
 6759TIP3   OH220217   1.920   2.428   6.832
 6759TIP3    H120218   1.861   2.414   6.758
 6759TIP3    H220219   1.897   2.515   6.865
 6760TIP3   OH220220   0.793   0.491   1.149
 6760TIP3    H120221   0.778   0.396   1.145
 6760TIP3    H220222   0.856   0.502   1.219
 6761TIP3   OH220223   2.588   3.704   5.562
 6761TIP3    H120224   2.524   3.686   5.493
 6761TIP3    H220225   2.671   3.715   5.516
 6762TIP3   OH220226   7.702   6.027   3.077
 6762TIP3    H120227   7.740   6.111   3.102
 6762TIP3    H220228   7.734   5.966   3.143
 6763TIP3   OH220229   8.063   6.967   4.019
 6763TIP3    H120230   8.151   7.005   4.019
 6763TIP3    H220231   8.078   6.873   4.012
 6764TIP3   OH220232   3.749   5.905   5.071
 6764TIP3    H120233   3.744   5.812   5.094
 6764TIP3    H220234   3.771   5.906   4.978
 6765TIP3   OH220235   8.132   5.133   0.083
 6765TIP3    H120236   8.051   5.181   0.065
 6765TIP3    H220237   8.104   5.055   0.131
 6766TIP3   OH220238   7.741   4.184   0.593
 6766TIP3    H120239   7.769   4.219   0.677
 6766TIP3    H220240   7.750   4.089   0.602
 6767TIP3   OH220241   4.822   4.102   6.222
 6767TIP3    H120242   4.847   4.123   6.132
 6767TIP3    H220243   4.729   4.081   6.217
 6768TIP3   OH220244   4.947   2.591   0.525
 6768TIP3    H120245   5.003   2.515   0.540
 6768TIP3    H220246   4.886   2.563   0.457
 6769TIP3   OH220247   5.560   5.281   1.480
 6769TIP3    H120248   5.640   5.333   1.491
 6769TIP3    H220249   5.494   5.344   1.452
 6770TIP3   OH220250   1.079   2.855   0.198
 6770TIP3    H120251   0.994   2.886   0.167
 6770TIP3    H220252   1.065   2.763   0.221
 6771TIP3   OH220253   5.098   6.775   0.074
 6771TIP3    H120254   5.157   6.748   0.003
 6771TIP3    H220255   5.063   6.859   0.045
 6772TIP3   OH220256   3.471   3.864   3.114
 6772TIP3    H120257   3.417   3.849   3.192
 6772TIP3    H220258   3.416   3.919   3.058
 6773TIP3   OH220259   1.188   3.560   3.008
 6773TIP3    H120260   1.147   3.516   3.083
 6773TIP3    H220261   1.221   3.488   2.954
 6774TIP3   OH220262   1.133   0.600   6.114
 6774TIP3    H120263   1.185   0.601   6.034
 6774TIP3    H220264   1.044   0.582   6.084
 6775TIP3   OH220265   1.421   5.898   3.050
 6775TIP3    H120266   1.487   5.858   3.107
 6775TIP3    H220267   1.468   5.969   3.006
 6776TIP3   OH220268   1.429   2.191   4.686
 6776TIP3    H120269   1.515   2.192   4.644
 6776TIP3    H220270   1.413   2.282   4.711
 6777TIP3   OH220271   0.752   1.009   6.740
 6777TIP3    H120272   0.745   0.935   6.800
 6777TIP3    H220273   0.794   1.078   6.793
 6778TIP3   OH220274   8.179   4.618   4.155
 6778TIP3    H120275   8.158   4.694   4.209
 6778TIP3    H220276   8.185   4.652   4.066
 6779TIP3   OH220277   0.459   3.755   6.765
 6779TIP3    H120278   0.393   3.798   6.820
 6779TIP3    H220279   0.486   3.678   6.815
 6780TIP3   OH220280   2.844   0.570   4.057
 6780TIP3    H120281   2.891   0.611   3.984
 6780TIP3    H220282   2.762   0.538   4.018
 6781TIP3   OH220283   5.035   5.395   4.021
 6781TIP3    H120284   4.982   5.340   4.079
 6781TIP3    H220285   5.036   5.481   4.064
 6782TIP3   OH220286   1.364   0.260   0.863
 6782TIP3    H120287   1.400   0.188   0.811
 6782TIP3    H220288   1.436   0.322   0.871
 6783TIP3   OH220289   1.852   1.127   1.634
 6783TIP3    H120290   1.778   1.182   1.658
 6783TIP3    H220291   1.817   1.038   1.633
 6784TIP3   OH220292   4.337   3.276   5.407
 6784TIP3    H120293   4.333   3.202   5.467
 6784TIP3    H220294   4.377   3.347   5.459
 6785TIP3   OH220295   1.490   1.698   0.191
 6785TIP3    H120296   1.572   1.742   0.166
 6785TIP3    H220297   1.498   1.610   0.154
 6786TIP3   OH220298   5.394   4.505   4.177
 6786TIP3    H120299   5.373   4.559   4.253
 6786TIP3    H220300   5.447   4.561   4.121
 6787TIP3   OH220301   1.833   2.944   5.652
 6787TIP3    H120302   1.915   2.942   5.701
 6787TIP3    H220303   1.783   3.016   5.690
 6788TIP3   OH220304   2.621   2.696   1.392
 6788TIP3    H120305   2.531   2.724   1.405
 6788TIP3    H220306   2.671   2.777   1.384
 6789TIP3   OH220307   4.873   6.568   5.987
 6789TIP3    H120308   4.830   6.579   5.902
 6789TIP3    H220309   4.966   6.554   5.965
 6790TIP3   OH220310   7.501   1.721   2.160
 6790TIP3    H120311   7.538   1.808   2.146
 6790TIP3    H220312   7.574   1.661   2.148
 6791TIP3   OH220313   8.029   6.667   1.646
 6791TIP3    H120314   7.969   6.602   1.609
 6791TIP3    H220315   8.073   6.705   1.570
 6792TIP3   OH220316   1.206   3.743   5.806
 6792TIP3    H120317   1.142   3.724   5.739
 6792TIP3    H220318   1.258   3.662   5.814
 6793TIP3   OH220319   5.023   4.254   5.944
 6793TIP3    H120320   5.034   4.163   5.971
 6793TIP3    H220321   5.043   4.305   6.023
 6794TIP3   OH220322   0.750   2.220   1.461
 6794TIP3    H120323   0.699   2.300   1.446
 6794TIP3    H220324   0.828   2.231   1.406
 6795TIP3   OH220325   6.520   1.105   5.807
 6795TIP3    H120326   6.493   1.196   5.821
 6795TIP3    H220327   6.492   1.085   5.718
 6796TIP3   OH220328   6.241   1.223   6.411
 6796TIP3    H120329   6.231   1.221   6.506
 6796TIP3    H220330   6.309   1.157   6.393
 6797TIP3   OH220331   4.701   4.947   3.957
 6797TIP3    H120332   4.778   4.965   3.902
 6797TIP3    H220333   4.729   4.877   4.016
 6798TIP3   OH220334   4.331   7.475   3.272
 6798TIP3    H120335   4.331   7.571   3.271
 6798TIP3    H220336   4.416   7.451   3.309
 6799TIP3   OH220337   2.794   1.360   2.340
 6799TIP3    H120338   2.776   1.268   2.358
 6799TIP3    H220339   2.871   1.358   2.282
 6800TIP3   OH220340   1.429   1.956   4.796
 6800TIP3    H120341   1.479   1.893   4.743
 6800TIP3    H220342   1.455   2.041   4.761
 6801TIP3   OH220343   6.455   1.195   4.122
 6801TIP3    H120344   6.391   1.250   4.167
 6801TIP3    H220345   6.408   1.115   4.101
 6802TIP3   OH220346   1.839   5.371   5.277
 6802TIP3    H120347   1.872   5.455   5.243
 6802TIP3    H220348   1.836   5.314   5.200
 6803TIP3   OH220349   7.357   7.602   0.527
 6803TIP3    H120350   7.426   7.611   0.593
 6803TIP3    H220351   7.376   7.671   0.463
 6804TIP3   OH220352   8.267   1.376   6.173
 6804TIP3    H120353   8.251   1.290   6.133
 6804TIP3    H220354   8.229   1.369   6.260
 6805TIP3   OH220355   6.398   6.196   0.465
 6805TIP3    H120356   6.476   6.248   0.443
 6805TIP3    H220357   6.362   6.239   0.542
 6806TIP3   OH220358   6.793   1.999   5.708
 6806TIP3    H120359   6.783   2.081   5.756
 6806TIP3    H220360   6.834   2.024   5.625
 6807TIP3   OH220361   3.783   6.660   5.935
 6807TIP3    H120362   3.802   6.597   5.865
 6807TIP3    H220363   3.790   6.609   6.016
 6808TIP3   OH220364   0.245   2.844   5.762
 6808TIP3    H120365   0.230   2.899   5.685
 6808TIP3    H220366   0.172   2.782   5.762
 6809TIP3   OH220367   1.706   0.380   4.604
 6809TIP3    H120368   1.627   0.327   4.614
 6809TIP3    H220369   1.732   0.403   4.693
 6810TIP3   OH220370   0.302   4.091   5.398
 6810TIP3    H120371   0.251   4.083   5.479
 6810TIP3    H220372   0.249   4.147   5.342
 6811TIP3   OH220373   6.689   3.607   2.426
 6811TIP3    H120374   6.716   3.622   2.516
 6811TIP3    H220375   6.599   3.639   2.422
 6812TIP3   OH220376   6.023   7.288   0.193
 6812TIP3    H120377   6.008   7.375   0.230
 6812TIP3    H220378   5.958   7.280   0.123
 6813TIP3   OH220379   6.012   6.511   6.853
 6813TIP3    H120380   5.975   6.536   6.768
 6813TIP3    H220381   6.019   6.594   6.900
 6814TIP3   OH220382   7.990   3.514   6.169
 6814TIP3    H120383   7.974   3.608   6.161
 6814TIP3    H220384   8.075   3.508   6.213
 6815TIP3   OH220385   6.451   4.125   1.718
 6815TIP3    H120386   6.363   4.121   1.681
 6815TIP3    H220387   6.461   4.216   1.746
 6816TIP3   OH220388   7.390   4.285   2.434
 6816TIP3    H120389   7.432   4.285   2.520
 6816TIP3    H220390   7.325   4.214   2.439
 6817TIP3   OH220391   6.475   1.281   3.871
 6817TIP3    H120392   6.435   1.368   3.877
 6817TIP3    H220393   6.494   1.257   3.962
 6818TIP3   OH220394   4.010   6.016   5.416
 6818TIP3    H120395   3.933   6.041   5.366
 6818TIP3    H220396   4.045   5.939   5.371
 6819TIP3   OH220397   3.568   0.359   4.728
 6819TIP3    H120398   3.522   0.289   4.682
 6819TIP3    H220399   3.626   0.397   4.662
 6820TIP3   OH220400   4.778   4.283   4.644
 6820TIP3    H120401   4.855   4.283   4.586
 6820TIP3    H220402   4.813   4.260   4.730
 6821TIP3   OH220403   4.291   6.113   0.333
 6821TIP3    H120404   4.363   6.136   0.393
 6821TIP3    H220405   4.239   6.049   0.382
 6822TIP3   OH220406   2.427   5.876   6.711
 6822TIP3    H120407   2.505   5.923   6.741
 6822TIP3    H220408   2.361   5.893   6.778
 6823TIP3   OH220409   6.152   5.144   0.138
 6823TIP3    H120410   6.226   5.122   0.195
 6823TIP3    H220411   6.105   5.213   0.185
 6824TIP3   OH220412   0.898   3.995   0.468
 6824TIP3    H120413   0.955   4.039   0.405
 6824TIP3    H220414   0.914   3.902   0.455
 6825TIP3   OH220415   1.455   7.803   1.969
 6825TIP3    H120416   1.526   7.800   1.905
 6825TIP3    H220417   1.384   7.849   1.924
 6826TIP3   OH220418   0.132   4.849   4.291
 6826TIP3    H120419   0.108   4.932   4.251
 6826TIP3    H220420   0.100   4.782   4.230
 6827TIP3   OH220421   5.236   3.525   5.660
 6827TIP3    H120422   5.306   3.578   5.623
 6827TIP3    H220423   5.259   3.435   5.637
 6828TIP3   OH220424   2.386   7.338   4.252
 6828TIP3    H120425   2.313   7.326   4.313
 6828TIP3    H220426   2.461   7.360   4.308
 6829TIP3   OH220427   3.246   5.198   3.672
 6829TIP3    H120428   3.334   5.182   3.638
 6829TIP3    H220429   3.258   5.262   3.742
 6830TIP3   OH220430   1.478   2.731   4.979
 6830TIP3    H120431   1.516   2.646   4.998
 6830TIP3    H220432   1.384   2.720   4.997
 6831TIP3   OH220433   5.904   5.127   3.295
 6831TIP3    H120434   5.985   5.142   3.247
 6831TIP3    H220435   5.929   5.138   3.387
 6832TIP3   OH220436   6.221   7.427   1.301
 6832TIP3    H120437   6.232   7.363   1.231
 6832TIP3    H220438   6.136   7.468   1.283
 6833TIP3   OH220439   7.778   0.719   4.140
 6833TIP3    H120440   7.702   0.720   4.083
 6833TIP3    H220441   7.746   0.752   4.224
 6834TIP3   OH220442   7.390   0.551   4.774
 6834TIP3    H120443   7.342   0.623   4.816
 6834TIP3    H220444   7.388   0.572   4.681
 6835TIP3   OH220445   2.836   7.301   3.879
 6835TIP3    H120446   2.760   7.257   3.842
 6835TIP3    H220447   2.898   7.306   3.806
 6836TIP3   OH220448   0.213   5.150   5.917
 6836TIP3    H120449   0.229   5.070   5.867
 6836TIP3    H220450   0.205   5.219   5.852
 6837TIP3   OH220451   8.301   3.365   1.706
 6837TIP3    H120452   8.368   3.301   1.681
 6837TIP3    H220453   8.223   3.340   1.657
 6838TIP3   OH220454   4.208   0.423   1.738
 6838TIP3    H120455   4.132   0.413   1.681
 6838TIP3    H220456   4.211   0.517   1.757
 6839TIP3   OH220457   1.305   7.018   3.074
 6839TIP3    H120458   1.337   7.028   2.985
 6839TIP3    H220459   1.217   6.981   3.065
 6840TIP3   OH220460   0.618   4.742   2.551
 6840TIP3    H120461   0.562   4.781   2.617
 6840TIP3    H220462   0.559   4.685   2.500
 6841TIP3   OH220463   8.323   4.028   1.143
 6841TIP3    H120464   8.262   4.010   1.071
 6841TIP3    H220465   8.358   4.115   1.124
 6842TIP3   OH220466   0.215   7.237   3.371
 6842TIP3    H120467   0.181   7.326   3.386
 6842TIP3    H220468   0.282   7.226   3.438
 6843TIP3   OH220469   2.597   0.623   6.157
 6843TIP3    H120470   2.664   0.585   6.214
 6843TIP3    H220471   2.594   0.715   6.182
 6844TIP3   OH220472   7.408   6.212   0.387
 6844TIP3    H120473   7.428   6.122   0.361
 6844TIP3    H220474   7.333   6.237   0.334
 6845TIP3   OH220475   3.362   2.029   1.950
 6845TIP3    H120476   3.402   2.101   1.902
 6845TIP3    H220477   3.392   1.950   1.903
 6846TIP3   OH220478   6.287   7.076   5.429
 6846TIP3    H120479   6.195   7.081   5.404
 6846TIP3    H220480   6.330   7.143   5.376
 6847TIP3   OH220481   6.240   1.480   3.968
 6847TIP3    H120482   6.173   1.520   3.912
 6847TIP3    H220483   6.216   1.387   3.971
 6848TIP3   OH220484   6.548   6.150   1.944
 6848TIP3    H120485   6.457   6.138   1.918
 6848TIP3    H220486   6.576   6.231   1.902
 6849TIP3   OH220487   2.931   6.690   2.665
 6849TIP3    H120488   2.882   6.763   2.628
 6849TIP3    H220489   2.910   6.692   2.758
 6850TIP3   OH220490   1.915   0.953   0.208
 6850TIP3    H120491   1.990   0.955   0.268
 6850TIP3    H220492   1.879   1.042   0.212
 6851TIP3   OH220493   7.746   2.087   5.740
 6851TIP3    H120494   7.726   2.139   5.817
 6851TIP3    H220495   7.665   2.040   5.720
 6852TIP3   OH220496   6.906   4.145   6.488
 6852TIP3    H120497   6.875   4.226   6.447
 6852TIP3    H220498   6.836   4.082   6.472
 6853TIP3   OH220499   6.298   5.798   4.758
 6853TIP3    H120500   6.321   5.720   4.807
 6853TIP3    H220501   6.232   5.768   4.694
 6854TIP3   OH220502   8.016   5.000   3.135
 6854TIP3    H120503   8.037   4.969   3.223
 6854TIP3    H220504   8.031   5.094   3.138
 6855TIP3   OH220505   2.457   4.158   3.136
 6855TIP3    H120506   2.449   4.064   3.150
 6855TIP3    H220507   2.382   4.182   3.082
 6856TIP3   OH220508   1.469   4.892   6.421
 6856TIP3    H120509   1.386   4.853   6.391
 6856TIP3    H220510   1.452   4.986   6.420
 6857TIP3   OH220511   5.938   5.781   1.974
 6857TIP3    H120512   5.999   5.732   1.919
 6857TIP3    H220513   5.987   5.801   2.054
 6858TIP3   OH220514   6.199   0.161   0.810
 6858TIP3    H120515   6.256   0.084   0.805
 6858TIP3    H220516   6.191   0.190   0.719
 6859TIP3   OH220517   4.861   6.850   2.460
 6859TIP3    H120518   4.790   6.883   2.405
 6859TIP3    H220519   4.915   6.927   2.478
 6860TIP3   OH220520   4.096   7.562   1.419
 6860TIP3    H120521   4.071   7.527   1.504
 6860TIP3    H220522   4.139   7.646   1.439
 6861TIP3   OH220523   3.362   5.168   6.659
 6861TIP3    H120524   3.422   5.095   6.671
 6861TIP3    H220525   3.412   5.245   6.686
 6862TIP3   OH220526   3.467   7.758   3.560
 6862TIP3    H120527   3.413   7.748   3.482
 6862TIP3    H220528   3.521   7.834   3.543
 6863TIP3   OH220529   6.771   4.188   3.245
 6863TIP3    H120530   6.746   4.105   3.206
 6863TIP3    H220531   6.694   4.215   3.296
 6864TIP3   OH220532   0.266   2.656   5.304
 6864TIP3    H120533   0.182   2.631   5.342
 6864TIP3    H220534   0.278   2.747   5.331
 6865TIP3   OH220535   7.675   3.156   3.418
 6865TIP3    H120536   7.713   3.194   3.339
 6865TIP3    H220537   7.632   3.076   3.387
 6866TIP3   OH220538   5.463   3.723   0.567
 6866TIP3    H120539   5.384   3.718   0.514
 6866TIP3    H220540   5.498   3.811   0.550
 6867TIP3   OH220541   3.371   5.425   1.980
 6867TIP3    H120542   3.311   5.449   2.051
 6867TIP3    H220543   3.455   5.410   2.023
 6868TIP3   OH220544   1.234   5.533   5.902
 6868TIP3    H120545   1.144   5.535   5.871
 6868TIP3    H220546   1.237   5.459   5.963
 6869TIP3   OH220547   4.293   3.544   3.553
 6869TIP3    H120548   4.375   3.544   3.602
 6869TIP3    H220549   4.297   3.624   3.500
 6870TIP3   OH220550   7.333   2.285   1.941
 6870TIP3    H120551   7.339   2.303   1.847
 6870TIP3    H220552   7.338   2.190   1.947
 6871TIP3   OH220553   7.082   7.692   4.291
 6871TIP3    H120554   7.003   7.738   4.320
 6871TIP3    H220555   7.104   7.633   4.363
 6872TIP3   OH220556   4.779   7.648   6.597
 6872TIP3    H120557   4.811   7.620   6.683
 6872TIP3    H220558   4.684   7.646   6.605
 6873TIP3   OH220559   7.758   3.455   4.802
 6873TIP3    H120560   7.797   3.504   4.874
 6873TIP3    H220561   7.665   3.477   4.804
 6874TIP3   OH220562   3.945   7.366   6.835
 6874TIP3    H120563   3.957   7.277   6.869
 6874TIP3    H220564   3.852   7.372   6.813
 6875TIP3   OH220565   1.859   4.106   4.085
 6875TIP3    H120566   1.902   4.188   4.064
 6875TIP3    H220567   1.876   4.049   4.010
 6876TIP3   OH220568   2.298   0.844   3.428
 6876TIP3    H120569   2.342   0.922   3.461
 6876TIP3    H220570   2.315   0.846   3.333
 6877TIP3   OH220571   2.989   2.929   6.722
 6877TIP3    H120572   2.919   2.865   6.715
 6877TIP3    H220573   2.946   3.014   6.715
 6878TIP3   OH220574   6.253   2.312   5.239
 6878TIP3    H120575   6.278   2.303   5.147
 6878TIP3    H220576   6.335   2.299   5.287
 6879TIP3   OH220577   1.936   0.898   2.024
 6879TIP3    H120578   1.977   0.909   2.110
 6879TIP3    H220579   2.005   0.921   1.962
 6880TIP3   OH220580   7.927   0.896   4.624
 6880TIP3    H120581   7.876   0.815   4.625
 6880TIP3    H220582   7.964   0.900   4.535
 6881TIP3   OH220583   1.415   4.270   3.036
 6881TIP3    H120584   1.339   4.220   3.007
 6881TIP3    H220585   1.481   4.255   2.968
 6882TIP3   OH220586   7.387   4.780   3.055
 6882TIP3    H120587   7.458   4.748   2.999
 6882TIP3    H220588   7.406   4.744   3.141
 6883TIP3   OH220589   4.828   7.256   3.457
 6883TIP3    H120590   4.739   7.288   3.447
 6883TIP3    H220591   4.824   7.164   3.429
 6884TIP3   OH220592   8.088   6.831   6.726
 6884TIP3    H120593   8.034   6.765   6.771
 6884TIP3    H220594   8.169   6.784   6.704
 6885TIP3   OH220595   4.735   7.434   3.714
 6885TIP3    H120596   4.690   7.506   3.759
 6885TIP3    H220597   4.782   7.476   3.643
 6886TIP3   OH220598   3.694   5.870   6.471
 6886TIP3    H120599   3.649   5.953   6.463
 6886TIP3    H220600   3.771   5.878   6.414
 6887TIP3   OH220601   0.866   6.053   1.281
 6887TIP3    H120602   0.907   6.116   1.340
 6887TIP3    H220603   0.843   5.979   1.338
 6888TIP3   OH220604   6.434   6.347   5.125
 6888TIP3    H120605   6.489   6.358   5.048
 6888TIP3    H220606   6.351   6.387   5.102
 6889TIP3   OH220607   4.941   4.504   5.222
 6889TIP3    H120608   4.883   4.548   5.284
 6889TIP3    H220609   4.955   4.417   5.259
 6890TIP3   OH220610   0.806   5.290   1.293
 6890TIP3    H120611   0.730   5.342   1.319
 6890TIP3    H220612   0.874   5.312   1.357
 6891TIP3   OH220613   7.271   1.900   6.565
 6891TIP3    H120614   7.265   1.946   6.482
 6891TIP3    H220615   7.323   1.823   6.546
 6892TIP3   OH220616   5.680   0.808   2.886
 6892TIP3    H120617   5.638   0.742   2.830
 6892TIP3    H220618   5.735   0.757   2.946
 6893TIP3   OH220619   3.038   7.063   2.963
 6893TIP3    H120620   3.109   7.125   2.981
 6893TIP3    H220621   2.965   7.117   2.935
 6894TIP3   OH220622   1.264   5.345   3.675
 6894TIP3    H120623   1.265   5.261   3.721
 6894TIP3    H220624   1.191   5.339   3.614
 6895TIP3   OH220625   7.456   1.664   6.587
 6895TIP3    H120626   7.440   1.570   6.576
 6895TIP3    H220627   7.432   1.681   6.678
 6896TIP3   OH220628   5.505   3.725   4.779
 6896TIP3    H120629   5.556   3.723   4.698
 6896TIP3    H220630   5.414   3.727   4.750
 6897TIP3   OH220631   4.177   7.831   5.010
 6897TIP3    H120632   4.256   7.797   4.968
 6897TIP3    H220633   4.105   7.782   4.970
 6898TIP3   OH220634   2.198   7.529   6.593
 6898TIP3    H120635   2.172   7.535   6.685
 6898TIP3    H220636   2.146   7.456   6.559
 6899TIP3   OH220637   7.360   3.882   4.206
 6899TIP3    H120638   7.317   3.896   4.121
 6899TIP3    H220639   7.441   3.837   4.184
 6900TIP3   OH220640   4.918   5.558   3.335
 6900TIP3    H120641   4.914   5.465   3.358
 6900TIP3    H220642   4.829   5.590   3.347
 6901TIP3   OH220643   6.010   4.790   4.169
 6901TIP3    H120644   6.002   4.883   4.191
 6901TIP3    H220645   5.923   4.765   4.139
 6902TIP3   OH220646   7.016   4.435   1.080
 6902TIP3    H120647   7.085   4.392   1.029
 6902TIP3    H220648   7.053   4.446   1.167
 6903TIP3   OH220649   6.491   5.211   1.661
 6903TIP3    H120650   6.468   5.119   1.648
 6903TIP3    H220651   6.479   5.251   1.574
 6904TIP3   OH220652   4.780   1.100   0.553
 6904TIP3    H120653   4.713   1.144   0.605
 6904TIP3    H220654   4.732   1.062   0.479
 6905TIP3   OH220655   1.248   5.038   3.407
 6905TIP3    H120656   1.158   5.011   3.387
 6905TIP3    H220657   1.248   5.132   3.392
 6906TIP3   OH220658   7.234   5.135   6.354
 6906TIP3    H120659   7.178   5.201   6.395
 6906TIP3    H220660   7.323   5.157   6.382
 6907TIP3   OH220661   7.198   6.539   5.292
 6907TIP3    H120662   7.119   6.574   5.332
 6907TIP3    H220663   7.265   6.605   5.309
 6908TIP3   OH220664   7.566   7.159   5.185
 6908TIP3    H120665   7.484   7.208   5.180
 6908TIP3    H220666   7.601   7.159   5.096
 6909TIP3   OH220667   2.278   5.541   3.689
 6909TIP3    H120668   2.364   5.570   3.718
 6909TIP3    H220669   2.270   5.452   3.722
 6910TIP3   OH220670   7.418   3.772   1.333
 6910TIP3    H120671   7.335   3.739   1.367
 6910TIP3    H220672   7.415   3.752   1.240
 6911TIP3   OH220673   3.388   5.112   2.581
 6911TIP3    H120674   3.421   5.192   2.622
 6911TIP3    H220675   3.458   5.085   2.522
 6912TIP3   OH220676   5.835   6.676   2.047
 6912TIP3    H120677   5.760   6.616   2.039
 6912TIP3    H220678   5.823   6.738   1.975
 6913TIP3   OH220679   1.091   6.865   3.286
 6913TIP3    H120680   1.085   6.905   3.200
 6913TIP3    H220681   1.000   6.840   3.307
 6914TIP3   OH220682   1.264   1.164   6.631
 6914TIP3    H120683   1.288   1.235   6.572
 6914TIP3    H220684   1.213   1.206   6.700
 6915TIP3   OH220685   6.413   4.890   3.456
 6915TIP3    H120686   6.401   4.985   3.455
 6915TIP3    H220687   6.408   4.867   3.549
 6916TIP3   OH220688   7.683   6.396   3.321
 6916TIP3    H120689   7.683   6.440   3.406
 6916TIP3    H220690   7.593   6.406   3.289
 6917TIP3   OH220691   6.357   5.966   3.958
 6917TIP3    H120692   6.337   5.886   3.909
 6917TIP3    H220693   6.303   5.959   4.037
 6918TIP3   OH220694   3.051   4.643   5.902
 6918TIP3    H120695   3.127   4.588   5.880
 6918TIP3    H220696   3.065   4.724   5.852
 6919TIP3   OH220697   1.496   1.163   4.218
 6919TIP3    H120698   1.497   1.125   4.306
 6919TIP3    H220699   1.577   1.213   4.212
 6920TIP3   OH220700   7.773   2.454   0.078
 6920TIP3    H120701   7.802   2.397   0.006
 6920TIP3    H220702   7.796   2.542   0.048
 6921TIP3   OH220703   5.988   3.056   0.734
 6921TIP3    H120704   6.040   3.031   0.658
 6921TIP3    H220705   5.921   3.115   0.700
 6922TIP3   OH220706   7.047   6.085   6.849
 6922TIP3    H120707   7.004   6.078   6.763
 6922TIP3    H220708   7.137   6.107   6.828
 6923TIP3   OH220709   0.996   5.522   2.394
 6923TIP3    H120710   0.993   5.520   2.299
 6923TIP3    H220711   0.971   5.433   2.420
 6924TIP3   OH220712   0.073   3.925   6.474
 6924TIP3    H120713   0.035   4.008   6.446
 6924TIP3    H220714   0.127   3.897   6.400
 6925TIP3   OH220715   1.622   0.774   0.241
 6925TIP3    H120716   1.715   0.753   0.239
 6925TIP3    H220717   1.607   0.824   0.161
 6926TIP3   OH220718   2.308   0.362   6.596
 6926TIP3    H120719   2.228   0.415   6.600
 6926TIP3    H220720   2.314   0.320   6.682
 6927TIP3   OH220721   7.838   4.630   5.731
 6927TIP3    H120722   7.866   4.722   5.733
 6927TIP3    H220723   7.859   4.600   5.643
 6928TIP3   OH220724   2.680   7.249   2.607
 6928TIP3    H120725   2.624   7.221   2.535
 6928TIP3    H220726   2.766   7.211   2.586
 6929TIP3   OH220727   6.274   4.442   3.904
 6929TIP3    H120728   6.359   4.444   3.948
 6929TIP3    H220729   6.286   4.494   3.825
 6930TIP3   OH220730   0.103   4.927   1.150
 6930TIP3    H120731   0.073   4.837   1.134
 6930TIP3    H220732   0.024   4.973   1.179
 6931TIP3   OH220733   4.059   7.800   5.741
 6931TIP3    H120734   4.078   7.889   5.770
 6931TIP3    H220735   4.007   7.762   5.813
 6932TIP3   OH220736   1.477   1.811   6.248
 6932TIP3    H120737   1.560   1.853   6.224
 6932TIP3    H220738   1.471   1.824   6.343
 6933TIP3   OH220739   4.847   3.466   1.240
 6933TIP3    H120740   4.918   3.473   1.303
 6933TIP3    H220741   4.779   3.417   1.286
 6934TIP3   OH220742   7.544   6.100   3.672
 6934TIP3    H120743   7.511   6.013   3.693
 6934TIP3    H220744   7.614   6.115   3.735
 6935TIP3   OH220745   7.232   6.515   0.628
 6935TIP3    H120746   7.225   6.445   0.694
 6935TIP3    H220747   7.199   6.474   0.548
 6936TIP3   OH220748   0.857   6.803   0.741
 6936TIP3    H120749   0.951   6.786   0.738
 6936TIP3    H220750   0.850   6.895   0.766
 6937TIP3   OH220751   0.407   2.558   3.215
 6937TIP3    H120752   0.380   2.585   3.302
 6937TIP3    H220753   0.403   2.462   3.217
 6938TIP3   OH220754   3.398   7.810   4.723
 6938TIP3    H120755   3.359   7.898   4.718
 6938TIP3    H220756   3.484   7.824   4.763
 6939TIP3   OH220757   4.563   2.843   4.849
 6939TIP3    H120758   4.569   2.773   4.783
 6939TIP3    H220759   4.620   2.912   4.814
 6940TIP3   OH220760   7.978   1.693   4.916
 6940TIP3    H120761   7.986   1.695   5.012
 6940TIP3    H220762   7.917   1.621   4.898
 6941TIP3   OH220763   3.427   1.207   4.389
 6941TIP3    H120764   3.482   1.283   4.407
 6941TIP3    H220765   3.408   1.170   4.475
 6942TIP3   OH220766   6.450   2.934   5.666
 6942TIP3    H120767   6.506   2.869   5.709
 6942TIP3    H220768   6.415   2.888   5.589
 6943TIP3   OH220769   2.244   4.533   2.067
 6943TIP3    H120770   2.270   4.599   2.002
 6943TIP3    H220771   2.280   4.566   2.150
 6944TIP3   OH220772   5.069   6.401   1.440
 6944TIP3    H120773   5.024   6.329   1.484
 6944TIP3    H220774   5.031   6.480   1.477
 6945TIP3   OH220775   6.107   7.129   0.984
 6945TIP3    H120776   6.051   7.205   0.973
 6945TIP3    H220777   6.052   7.064   1.028
 6946TIP3   OH220778   2.969   4.097   1.288
 6946TIP3    H120779   2.911   4.165   1.256
 6946TIP3    H220780   2.912   4.022   1.306
 6947TIP3   OH220781   4.208   1.343   3.520
 6947TIP3    H120782   4.180   1.357   3.430
 6947TIP3    H220783   4.173   1.418   3.568
 6948TIP3   OH220784   6.939   1.633   1.850
 6948TIP3    H120785   7.032   1.626   1.871
 6948TIP3    H220786   6.926   1.574   1.775
 6949TIP3   OH220787   4.739   0.211   6.637
 6949TIP3    H120788   4.809   0.151   6.663
 6949TIP3    H220789   4.778   0.267   6.570
 6950TIP3   OH220790   2.419   1.113   5.663
 6950TIP3    H120791   2.326   1.128   5.642
 6950TIP3    H220792   2.418   1.034   5.717
 6951TIP3   OH220793   8.329   0.187   4.928
 6951TIP3    H120794   8.349   0.167   5.019
 6951TIP3    H220795   8.264   0.258   4.933
 6952TIP3   OH220796   3.359   2.251   1.756
 6952TIP3    H120797   3.336   2.339   1.784
 6952TIP3    H220798   3.437   2.263   1.701
 6953TIP3   OH220799   3.074   4.494   1.619
 6953TIP3    H120800   3.066   4.411   1.573
 6953TIP3    H220801   3.162   4.526   1.597
 6954TIP3   OH220802   3.808   4.185   6.875
 6954TIP3    H120803   3.900   4.160   6.876
 6954TIP3    H220804   3.763   4.107   6.842
 6955TIP3   OH220805   1.859   7.073   1.204
 6955TIP3    H120806   1.793   7.132   1.169
 6955TIP3    H220807   1.943   7.117   1.188
 6956TIP3   OH220808   7.834   5.069   5.525
 6956TIP3    H120809   7.858   5.008   5.595
 6956TIP3    H220810   7.889   5.146   5.541
 6957TIP3   OH220811   2.640   5.996   4.375
 6957TIP3    H120812   2.595   5.967   4.455
 6957TIP3    H220813   2.696   6.067   4.404
 6958TIP3   OH220814   5.395   7.254   3.019
 6958TIP3    H120815   5.432   7.239   2.932
 6958TIP3    H220816   5.364   7.345   3.017
 6959TIP3   OH220817   4.956   1.581   1.587
 6959TIP3    H120818   4.987   1.641   1.656
 6959TIP3    H220819   5.036   1.547   1.548
 6960TIP3   OH220820   1.594   2.825   2.945
 6960TIP3    H120821   1.517   2.838   3.000
 6960TIP3    H220822   1.564   2.849   2.857
 6961TIP3   OH220823   7.055   3.699   5.379
 6961TIP3    H120824   6.979   3.688   5.321
 6961TIP3    H220825   7.087   3.787   5.359
 6962TIP3   OH220826   1.178   1.379  -0.035
 6962TIP3    H120827   1.139   1.415   0.045
 6962TIP3    H220828   1.268   1.358  -0.010
 6963TIP3   OH220829   7.268   1.945   5.377
 6963TIP3    H120830   7.244   2.028   5.336
 6963TIP3    H220831   7.324   1.970   5.450
 6964TIP3   OH220832   3.633   0.472   3.321
 6964TIP3    H120833   3.582   0.413   3.375
 6964TIP3    H220834   3.592   0.558   3.333
 6965TIP3   OH220835   4.657   4.262   0.902
 6965TIP3    H120836   4.670   4.175   0.939
 6965TIP3    H220837   4.650   4.247   0.808
 6966TIP3   OH220838   0.521   1.379   2.855
 6966TIP3    H120839   0.503   1.404   2.945
 6966TIP3    H220840   0.603   1.330   2.859
 6967TIP3   OH220841   7.348   4.820   4.980
 6967TIP3    H120842   7.384   4.868   5.055
 6967TIP3    H220843   7.329   4.733   5.015
 6968TIP3   OH220844   4.918   6.005   2.067
 6968TIP3    H120845   4.906   5.911   2.056
 6968TIP3    H220846   4.995   6.014   2.123
 6969TIP3   OH220847   3.883   1.935   4.653
 6969TIP3    H120848   3.944   1.894   4.592
 6969TIP3    H220849   3.911   2.027   4.657
 6970TIP3   OH220850   5.996   3.991   5.696
 6970TIP3    H120851   6.038   4.039   5.625
 6970TIP3    H220852   5.906   4.023   5.697
 6971TIP3   OH220853   5.238   4.075   4.586
 6971TIP3    H120854   5.320   4.033   4.560
 6971TIP3    H220855   5.175   4.048   4.520
 6972TIP3   OH220856   3.122   5.835   4.903
 6972TIP3    H120857   3.119   5.855   4.996
 6972TIP3    H220858   3.041   5.873   4.868
 6973TIP3   OH220859   1.469   3.238   0.709
 6973TIP3    H120860   1.472   3.147   0.739
 6973TIP3    H220861   1.546   3.279   0.750
 6974TIP3   OH220862   5.885   2.717   0.013
 6974TIP3    H120863   5.860   2.641   0.066
 6974TIP3    H220864   5.803   2.762  -0.005
 6975TIP3   OH220865   3.402   3.069   3.878
 6975TIP3    H120866   3.375   3.046   3.967
 6975TIP3    H220867   3.494   3.097   3.887
 6976TIP3   OH220868   4.348   2.256   1.071
 6976TIP3    H120869   4.421   2.251   1.133
 6976TIP3    H220870   4.270   2.241   1.125
 6977TIP3   OH220871   5.003   7.253   5.114
 6977TIP3    H120872   5.046   7.172   5.086
 6977TIP3    H220873   5.016   7.255   5.209
 6978TIP3   OH220874   7.718   7.647   5.433
 6978TIP3    H120875   7.708   7.636   5.339
 6978TIP3    H220876   7.696   7.562   5.470
 6979TIP3   OH220877   4.934   5.815   5.082
 6979TIP3    H120878   4.955   5.869   5.158
 6979TIP3    H220879   4.839   5.823   5.073
 6980TIP3   OH220880   1.100   0.649   2.932
 6980TIP3    H120881   1.006   0.635   2.945
 6980TIP3    H220882   1.135   0.662   3.020
 6981TIP3   OH220883   4.621   7.318   5.315
 6981TIP3    H120884   4.652   7.400   5.275
 6981TIP3    H220885   4.625   7.254   5.244
 6982TIP3   OH220886   0.635   7.099   1.091
 6982TIP3    H120887   0.573   7.088   1.163
 6982TIP3    H220888   0.704   7.036   1.110
 6983TIP3   OH220889   4.696   5.274   0.987
 6983TIP3    H120890   4.757   5.201   0.995
 6983TIP3    H220891   4.662   5.287   1.075
 6984TIP3   OH220892   1.368   6.789   4.594
 6984TIP3    H120893   1.364   6.832   4.679
 6984TIP3    H220894   1.322   6.848   4.534
 6985TIP3   OH220895   4.644   6.186   4.594
 6985TIP3    H120896   4.584   6.157   4.525
 6985TIP3    H220897   4.717   6.123   4.590
 6986TIP3   OH220898   6.694   0.121   1.400
 6986TIP3    H120899   6.771   0.154   1.354
 6986TIP3    H220900   6.704   0.026   1.398
 6987TIP3   OH220901   1.959   5.577   2.846
 6987TIP3    H120902   1.865   5.590   2.836
 6987TIP3    H220903   1.967   5.490   2.886
 6988TIP3   OH220904   3.588   7.728   2.433
 6988TIP3    H120905   3.520   7.662   2.449
 6988TIP3    H220906   3.648   7.718   2.507
 6989TIP3   OH220907   2.153   1.538   5.606
 6989TIP3    H120908   2.213   1.465   5.594
 6989TIP3    H220909   2.161   1.590   5.526
 6990TIP3   OH220910   1.865   1.562   4.526
 6990TIP3    H120911   1.865   1.585   4.619
 6990TIP3    H220912   1.772   1.550   4.504
 6991TIP3   OH220913   3.197   4.430   0.018
 6991TIP3    H120914   3.242   4.491   0.076
 6991TIP3    H220915   3.178   4.354   0.073
 6992TIP3   OH220916   1.118   2.813   2.422
 6992TIP3    H120917   1.078   2.735   2.384
 6992TIP3    H220918   1.211   2.791   2.430
 6993TIP3   OH220919   5.165   7.149   2.096
 6993TIP3    H120920   5.223   7.170   2.023
 6993TIP3    H220921   5.209   7.188   2.172
 6994TIP3   OH220922   1.381   5.650   2.397
 6994TIP3    H120923   1.349   5.602   2.321
 6994TIP3    H220924   1.471   5.673   2.374
 6995TIP3   OH220925   1.868   6.893   6.867
 6995TIP3    H120926   1.936   6.848   6.817
 6995TIP3    H220927   1.894   6.882   6.959
 6996TIP3   OH220928   7.559   2.989   5.871
 6996TIP3    H120929   7.623   2.934   5.827
 6996TIP3    H220930   7.606   3.027   5.945
 6997TIP3   OH220931   0.443   1.707   2.381
 6997TIP3    H120932   0.386   1.630   2.393
 6997TIP3    H220933   0.384   1.782   2.391
 6998TIP3   OH220934   5.521   5.340   0.846
 6998TIP3    H120935   5.518   5.434   0.829
 6998TIP3    H220936   5.584   5.307   0.782
 6999TIP3   OH220937   7.919   3.445   0.028
 6999TIP3    H120938   7.977   3.521   0.025
 6999TIP3    H220939   7.831   3.481   0.017
 7000TIP3   OH220940   6.252   4.901   3.219
 7000TIP3    H120941   6.332   4.921   3.170
 7000TIP3    H220942   6.283   4.867   3.303
 7001TIP3   OH220943   5.188   0.358   2.079
 7001TIP3    H120944   5.279   0.380   2.059
 7001TIP3    H220945   5.137   0.429   2.040
 7002TIP3   OH220946   2.466   0.185   0.390
 7002TIP3    H120947   2.443   0.101   0.429
 7002TIP3    H220948   2.468   0.167   0.296
 7003TIP3   OH220949   2.168   7.830   2.446
 7003TIP3    H120950   2.109   7.757   2.462
 7003TIP3    H220951   2.110   7.906   2.436
 7004TIP3   OH220952   1.257   0.308   4.743
 7004TIP3    H120953   1.181   0.367   4.745
 7004TIP3    H220954   1.328   0.360   4.780
 7005TIP3   OH220955   2.311   7.027   1.778
 7005TIP3    H120956   2.384   7.080   1.810
 7005TIP3    H220957   2.337   7.001   1.689
 7006TIP3   OH220958   6.044   3.245   5.846
 7006TIP3    H120959   6.133   3.278   5.843
 7006TIP3    H220960   6.014   3.262   5.935
 7007TIP3   OH220961   8.317   2.722  -0.017
 7007TIP3    H120962   8.331   2.736   0.077
 7007TIP3    H220963   8.222   2.727  -0.028
 7008TIP3   OH220964   6.928   2.063   3.819
 7008TIP3    H120965   7.017   2.055   3.785
 7008TIP3    H220966   6.928   2.013   3.900
 7009TIP3   OH220967   3.075   4.553   6.363
 7009TIP3    H120968   3.097   4.550   6.456
 7009TIP3    H220969   2.981   4.567   6.361
 7010TIP3   OH220970   2.249   0.163   5.450
 7010TIP3    H120971   2.190   0.129   5.384
 7010TIP3    H220972   2.305   0.088   5.472
 7011TIP3   OH220973   4.940   1.208   1.576
 7011TIP3    H120974   5.012   1.264   1.606
 7011TIP3    H220975   4.868   1.228   1.636
 7012TIP3   OH220976   2.028   7.461   0.360
 7012TIP3    H120977   1.970   7.523   0.315
 7012TIP3    H220978   2.042   7.391   0.297
 7013TIP3   OH220979   2.244   1.909   6.228
 7013TIP3    H120980   2.277   1.998   6.246
 7013TIP3    H220981   2.283   1.886   6.143
 7014TIP3   OH220982   2.891   5.525   1.388
 7014TIP3    H120983   2.886   5.601   1.331
 7014TIP3    H220984   2.873   5.451   1.330
 7015TIP3   OH220985   1.715   0.526   3.679
 7015TIP3    H120986   1.683   0.582   3.608
 7015TIP3    H220987   1.805   0.555   3.694
 7016TIP3   OH220988   0.387   2.772   2.212
 7016TIP3    H120989   0.394   2.852   2.159
 7016TIP3    H220990   0.349   2.801   2.295
 7017TIP3   OH220991   5.689   5.202   2.488
 7017TIP3    H120992   5.687   5.297   2.496
 7017TIP3    H220993   5.722   5.171   2.572
 7018TIP3   OH220994   1.975   4.000   4.304
 7018TIP3    H120995   1.923   4.050   4.241
 7018TIP3    H220996   2.057   3.981   4.258
 7019TIP3   OH220997   7.618   7.404   5.570
 7019TIP3    H120998   7.601   7.383   5.662
 7019TIP3    H220999   7.535   7.438   5.537
 7020TIP3   OH221000   2.117   4.780   0.313
 7020TIP3    H121001   2.206   4.777   0.348
 7020TIP3    H221002   2.062   4.807   0.387
 7021TIP3   OH221003   3.282   1.840   2.274
 7021TIP3    H121004   3.309   1.762   2.321
 7021TIP3    H221005   3.359   1.898   2.277
 7022TIP3   OH221006   3.542   0.811   5.462
 7022TIP3    H121007   3.499   0.761   5.393
 7022TIP3    H221008   3.634   0.784   5.457
 7023TIP3   OH221009   5.126   3.504   0.731
 7023TIP3    H121010   5.035   3.523   0.709
 7023TIP3    H221011   5.122   3.421   0.779
 7024TIP3   OH221012   3.974   3.022   2.859
 7024TIP3    H121013   4.057   3.003   2.902
 7024TIP3    H221014   3.911   3.024   2.931
 7025TIP3   OH221015   6.812   0.595   0.865
 7025TIP3    H121016   6.845   0.588   0.776
 7025TIP3    H221017   6.717   0.588   0.855
 7026TIP3   OH221018   3.110   4.942   1.638
 7026TIP3    H121019   3.199   4.970   1.617
 7026TIP3    H221020   3.114   4.915   1.730
 7027TIP3   OH221021   3.963   3.457   0.191
 7027TIP3    H121022   4.011   3.509   0.255
 7027TIP3    H221023   3.875   3.449   0.228
 7028TIP3   OH221024   5.600   6.267   0.208
 7028TIP3    H121025   5.505   6.275   0.214
 7028TIP3    H221026   5.630   6.355   0.186
 7029TIP3   OH221027   4.306   7.566   4.880
 7029TIP3    H121028   4.257   7.484   4.871
 7029TIP3    H221029   4.308   7.603   4.792
 7030TIP3   OH221030   4.221   4.235   3.043
 7030TIP3    H121031   4.149   4.255   3.103
 7030TIP3    H221032   4.257   4.153   3.075
 7031TIP3   OH221033   6.693   0.283   2.978
 7031TIP3    H121034   6.756   0.280   2.905
 7031TIP3    H221035   6.608   0.273   2.936
 7032TIP3   OH221036   6.902   7.328   3.244
 7032TIP3    H121037   6.874   7.394   3.180
 7032TIP3    H221038   6.984   7.293   3.208
 7033TIP3   OH221039   6.707   5.794   6.381
 7033TIP3    H121040   6.630   5.844   6.408
 7033TIP3    H221041   6.780   5.855   6.391
 7034TIP3   OH221042   8.180   6.862   4.717
 7034TIP3    H121043   8.174   6.780   4.668
 7034TIP3    H221044   8.267   6.897   4.696
 7035TIP3   OH221045   6.188   1.227   3.875
 7035TIP3    H121046   6.218   1.256   3.789
 7035TIP3    H221047   6.269   1.208   3.923
 7036TIP3   OH221048   3.845   4.992   0.252
 7036TIP3    H121049   3.814   4.957   0.335
 7036TIP3    H221050   3.840   5.087   0.263
 7037TIP3   OH221051   6.728   6.822   4.836
 7037TIP3    H121052   6.636   6.803   4.854
 7037TIP3    H221053   6.776   6.753   4.883
 7038TIP3   OH221054   7.885   2.741   0.354
 7038TIP3    H121055   7.863   2.753   0.447
 7038TIP3    H221056   7.828   2.671   0.324
 7039TIP3   OH221057   3.485   0.401   3.894
 7039TIP3    H121058   3.498   0.467   3.962
 7039TIP3    H221059   3.392   0.408   3.871
 7040TIP3   OH221060   2.499   6.326   6.652
 7040TIP3    H121061   2.584   6.371   6.653
 7040TIP3    H221062   2.451   6.367   6.580
 7041TIP3   OH221063   3.569   2.563   2.668
 7041TIP3    H121064   3.570   2.639   2.610
 7041TIP3    H221065   3.540   2.491   2.612
 7042TIP3   OH221066   8.341   1.407   2.895
 7042TIP3    H121067   8.291   1.399   2.977
 7042TIP3    H221068   8.416   1.461   2.918
 7043TIP3   OH221069   1.449   4.655   1.482
 7043TIP3    H121070   1.471   4.619   1.396
 7043TIP3    H221071   1.363   4.695   1.469
 7044TIP3   OH221072   6.348   0.344   2.556
 7044TIP3    H121073   6.308   0.421   2.517
 7044TIP3    H221074   6.441   0.353   2.536
 7045TIP3   OH221075   1.793   6.626   3.076
 7045TIP3    H121076   1.784   6.601   2.984
 7045TIP3    H221077   1.715   6.591   3.119
 7046TIP3   OH221078   6.410   2.515   5.871
 7046TIP3    H121079   6.341   2.573   5.839
 7046TIP3    H221080   6.364   2.452   5.927
 7047TIP3   OH221081   8.074   7.241   1.975
 7047TIP3    H121082   8.109   7.221   2.061
 7047TIP3    H221083   8.070   7.156   1.930
 7048TIP3   OH221084   7.670   4.506   6.149
 7048TIP3    H121085   7.622   4.443   6.097
 7048TIP3    H221086   7.747   4.527   6.095
 7049TIP3   OH221087   1.063   1.751   6.369
 7049TIP3    H121088   1.002   1.776   6.438
 7049TIP3    H221089   1.149   1.774   6.403
 7050TIP3   OH221090   7.643   7.955   5.027
 7050TIP3    H121091   7.638   7.860   5.038
 7050TIP3    H221092   7.615   7.970   4.936
 7051TIP3   OH221093   2.936   4.506   2.448
 7051TIP3    H121094   2.972   4.458   2.523
 7051TIP3    H221095   2.920   4.595   2.482
 7052TIP3   OH221096   2.550   0.234   1.746
 7052TIP3    H121097   2.579   0.157   1.696
 7052TIP3    H221098   2.595   0.308   1.704
 7053TIP3   OH221099   5.045   4.969   4.104
 7053TIP3    H121100   5.040   4.873   4.099
 7053TIP3    H221101   5.092   4.986   4.185
 7054TIP3   OH221102   5.192   5.710   5.465
 7054TIP3    H121103   5.175   5.652   5.539
 7054TIP3    H221104   5.198   5.652   5.389
 7055TIP3   OH221105   7.945   7.291   2.918
 7055TIP3    H121106   7.896   7.226   2.869
 7055TIP3    H221107   8.036   7.280   2.889
 7056TIP3   OH221108   3.231   6.636   4.417
 7056TIP3    H121109   3.306   6.626   4.475
 7056TIP3    H221110   3.251   6.580   4.342
 7057TIP3   OH221111   1.954   5.695   6.645
 7057TIP3    H121112   1.869   5.730   6.619
 7057TIP3    H221113   2.018   5.754   6.604
 7058TIP3   OH221114   6.455   1.995   1.985
 7058TIP3    H121115   6.386   2.017   2.049
 7058TIP3    H221116   6.474   1.903   2.001
 7059TIP3   OH221117   3.240   1.894   1.552
 7059TIP3    H121118   3.231   1.820   1.493
 7059TIP3    H221119   3.328   1.927   1.537
 7060TIP3   OH221120   1.081   2.523   6.411
 7060TIP3    H121121   0.985   2.514   6.406
 7060TIP3    H221122   1.111   2.436   6.436
 7061TIP3   OH221123   7.617   5.247   4.259
 7061TIP3    H121124   7.697   5.216   4.301
 7061TIP3    H221125   7.614   5.340   4.280
 7062TIP3   OH221126   5.819   1.328   6.298
 7062TIP3    H121127   5.758   1.373   6.240
 7062TIP3    H221128   5.901   1.322   6.248
 7063TIP3   OH221129   0.291   0.663   6.738
 7063TIP3    H121130   0.362   0.678   6.676
 7063TIP3    H221131   0.310   0.578   6.777
 7064TIP3   OH221132   1.160   0.911   3.167
 7064TIP3    H121133   1.203   0.828   3.188
 7064TIP3    H221134   1.194   0.934   3.081
 7065TIP3   OH221135   4.202   6.008   4.145
 7065TIP3    H121136   4.226   6.017   4.053
 7065TIP3    H221137   4.207   6.097   4.180
 7066TIP3   OH221138   7.472   7.463   3.967
 7066TIP3    H121139   7.452   7.405   3.894
 7066TIP3    H221140   7.484   7.549   3.927
 7067TIP3   OH221141   0.759   2.706   3.347
 7067TIP3    H121142   0.816   2.639   3.310
 7067TIP3    H221143   0.770   2.781   3.290
 7068TIP3   OH221144   0.122   6.996   1.104
 7068TIP3    H121145   0.163   7.076   1.072
 7068TIP3    H221146   0.162   6.926   1.053
 7069TIP3   OH221147   1.996   3.241   3.333
 7069TIP3    H121148   2.012   3.152   3.365
 7069TIP3    H221149   2.063   3.254   3.266
 7070TIP3   OH221150   1.222   3.159   1.469
 7070TIP3    H121151   1.231   3.250   1.439
 7070TIP3    H221152   1.129   3.140   1.458
 7071TIP3   OH221153   4.889   5.343   6.732
 7071TIP3    H121154   4.866   5.252   6.713
 7071TIP3    H221155   4.807   5.383   6.760
 7072TIP3   OH221156   7.355   2.461   4.851
 7072TIP3    H121157   7.450   2.458   4.860
 7072TIP3    H221158   7.340   2.492   4.762
 7073TIP3   OH221159   5.223   0.522   6.123
 7073TIP3    H121160   5.208   0.437   6.163
 7073TIP3    H221161   5.239   0.503   6.030
 7074TIP3   OH221162   5.503   2.857   4.210
 7074TIP3    H121163   5.506   2.826   4.301
 7074TIP3    H221164   5.413   2.886   4.198
 7075TIP3   OH221165   0.313   3.000   2.991
 7075TIP3    H121166   0.253   3.035   2.926
 7075TIP3    H221167   0.303   2.905   2.984
 7076TIP3   OH221168   2.166   0.643   4.447
 7076TIP3    H121169   2.118   0.622   4.527
 7076TIP3    H221170   2.102   0.631   4.377
 7077TIP3   OH221171   4.251   6.998   1.763
 7077TIP3    H121172   4.310   7.042   1.824
 7077TIP3    H221173   4.307   6.969   1.692
 7078TIP3   OH221174   4.813   2.322   4.552
 7078TIP3    H121175   4.815   2.316   4.647
 7078TIP3    H221176   4.905   2.324   4.526
 7079TIP3   OH221177   1.194   2.523   1.097
 7079TIP3    H121178   1.217   2.564   1.014
 7079TIP3    H221179   1.108   2.484   1.082
 7080TIP3   OH221180   8.062   0.320   4.878
 7080TIP3    H121181   8.050   0.414   4.868
 7080TIP3    H221182   8.042   0.284   4.791
 7081TIP3   OH221183   5.793   6.390   1.523
 7081TIP3    H121184   5.756   6.456   1.464
 7081TIP3    H221185   5.726   6.379   1.591
 7082TIP3   OH221186   4.639   4.583   6.792
 7082TIP3    H121187   4.635   4.574   6.887
 7082TIP3    H221188   4.729   4.608   6.774
 7083TIP3   OH221189   5.383   3.736   0.244
 7083TIP3    H121190   5.309   3.755   0.186
 7083TIP3    H221191   5.349   3.668   0.303
 7084TIP3   OH221192   3.978   6.206   0.828
 7084TIP3    H121193   4.051   6.211   0.766
 7084TIP3    H221194   4.014   6.159   0.903
 7085TIP3   OH221195   5.879   4.958   0.316
 7085TIP3    H121196   5.967   4.922   0.327
 7085TIP3    H221197   5.837   4.899   0.254
 7086TIP3   OH221198   8.222   4.207   5.263
 7086TIP3    H121199   8.169   4.129   5.253
 7086TIP3    H221200   8.168   4.267   5.314
 7087TIP3   OH221201   4.434   4.137   3.257
 7087TIP3    H121202   4.482   4.070   3.306
 7087TIP3    H221203   4.495   4.163   3.187
 7088TIP3   OH221204   1.022   6.940   1.719
 7088TIP3    H121205   0.943   6.891   1.741
 7088TIP3    H221206   1.094   6.885   1.748
 7089TIP3   OH221207   5.502   3.505   3.738
 7089TIP3    H121208   5.582   3.474   3.694
 7089TIP3    H221209   5.460   3.562   3.673
 7090TIP3   OH221210   5.622   1.401   3.400
 7090TIP3    H121211   5.666   1.486   3.388
 7090TIP3    H221212   5.561   1.416   3.473
 7091TIP3   OH221213   7.719   0.899   6.632
 7091TIP3    H121214   7.653   0.941   6.577
 7091TIP3    H221215   7.671   0.832   6.681
 7092TIP3   OH221216   5.180   3.131   3.747
 7092TIP3    H121217   5.206   3.214   3.706
 7092TIP3    H221218   5.092   3.114   3.713
 7093TIP3   OH221219   4.884   4.833   3.655
 7093TIP3    H121220   4.801   4.796   3.682
 7093TIP3    H221221   4.865   4.926   3.640
 7094TIP3   OH221222   0.655   0.160   2.277
 7094TIP3    H121223   0.707   0.093   2.321
 7094TIP3    H221224   0.683   0.242   2.318
 7095TIP3   OH221225   1.049   3.391   3.561
 7095TIP3    H121226   1.053   3.379   3.655
 7095TIP3    H221227   0.955   3.396   3.541
 7096TIP3   OH221228   0.459   2.824   0.536
 7096TIP3    H121229   0.447   2.835   0.631
 7096TIP3    H221230   0.551   2.843   0.522
 7097TIP3   OH221231   3.009   7.466   4.657
 7097TIP3    H121232   3.008   7.452   4.752
 7097TIP3    H221233   3.081   7.527   4.643
 7098TIP3   OH221234   7.420   0.537   1.935
 7098TIP3    H121235   7.348   0.495   1.982
 7098TIP3    H221236   7.386   0.624   1.912
 7099TIP3   OH221237   3.796   1.691   3.189
 7099TIP3    H121238   3.721   1.719   3.241
 7099TIP3    H221239   3.813   1.763   3.129
 7100TIP3   OH221240   0.551   5.705   4.899
 7100TIP3    H121241   0.492   5.676   4.968
 7100TIP3    H221242   0.634   5.720   4.944
 7101TIP3   OH221243   4.986   7.645   4.493
 7101TIP3    H121244   4.990   7.588   4.417
 7101TIP3    H221245   5.033   7.598   4.561
 7102TIP3   OH221246   0.982   0.257   2.219
 7102TIP3    H121247   0.913   0.264   2.286
 7102TIP3    H221248   1.055   0.308   2.254
 7103TIP3   OH221249   2.493   6.270   0.135
 7103TIP3    H121250   2.584   6.298   0.149
 7103TIP3    H221251   2.501   6.185   0.090
 7104TIP3   OH221252   5.023   4.694   4.247
 7104TIP3    H121253   5.025   4.598   4.242
 7104TIP3    H221254   5.113   4.719   4.270
 7105TIP3   OH221255   6.359   5.612   3.100
 7105TIP3    H121256   6.376   5.698   3.062
 7105TIP3    H221257   6.268   5.593   3.076
 7106TIP3   OH221258   5.183   4.826   6.206
 7106TIP3    H121259   5.092   4.799   6.216
 7106TIP3    H221260   5.193   4.900   6.265
 7107TIP3   OH221261   8.245   1.678   2.502
 7107TIP3    H121262   8.222   1.749   2.561
 7107TIP3    H221263   8.207   1.600   2.543
 7108TIP3   OH221264   3.037   1.375   1.200
 7108TIP3    H121265   2.989   1.404   1.123
 7108TIP3    H221266   3.094   1.449   1.223
 7109TIP3   OH221267   0.345   5.548   2.673
 7109TIP3    H121268   0.425   5.503   2.699
 7109TIP3    H221269   0.290   5.546   2.752
 7110TIP3   OH221270   2.692   5.716   3.158
 7110TIP3    H121271   2.774   5.702   3.205
 7110TIP3    H221272   2.713   5.698   3.067
 7111TIP3   OH221273   1.539   6.266   5.736
 7111TIP3    H121274   1.461   6.315   5.760
 7111TIP3    H221275   1.530   6.183   5.784
 7112TIP3   OH221276   2.826   6.985   1.283
 7112TIP3    H121277   2.771   6.936   1.222
 7112TIP3    H221278   2.793   7.075   1.278
 7113TIP3   OH221279   7.987   7.782   3.874
 7113TIP3    H121280   8.038   7.707   3.841
 7113TIP3    H221281   7.922   7.798   3.805
 7114TIP3   OH221282   1.513   7.048   2.612
 7114TIP3    H121283   1.442   7.073   2.671
 7114TIP3    H221284   1.569   6.992   2.665
 7115TIP3   OH221285   3.217   0.477   3.893
 7115TIP3    H121286   3.158   0.552   3.889
 7115TIP3    H221287   3.168   0.407   3.850
 7116TIP3   OH221288   5.722   1.820   5.980
 7116TIP3    H121289   5.650   1.844   5.922
 7116TIP3    H221290   5.778   1.898   5.983
 7117TIP3   OH221291   5.106   3.355   0.007
 7117TIP3    H121292   5.194   3.318   0.002
 7117TIP3    H221293   5.053   3.297  -0.049
 7118TIP3   OH221294   3.930   2.492   5.466
 7118TIP3    H121295   3.973   2.566   5.509
 7118TIP3    H221296   3.870   2.458   5.532
 7119TIP3   OH221297   3.991   1.136   1.210
 7119TIP3    H121298   3.920   1.082   1.245
 7119TIP3    H221299   3.998   1.109   1.118
 7120TIP3   OH221300   5.704   2.894   4.699
 7120TIP3    H121301   5.715   2.975   4.748
 7120TIP3    H221302   5.624   2.907   4.649
 7121TIP3   OH221303   0.351   6.039   2.821
 7121TIP3    H121304   0.320   6.124   2.852
 7121TIP3    H221305   0.344   6.045   2.725
 7122TIP3   OH221306   2.684   5.425   3.335
 7122TIP3    H121307   2.713   5.512   3.310
 7122TIP3    H221308   2.747   5.366   3.292
 7123TIP3   OH221309   3.592   1.096   1.360
 7123TIP3    H121310   3.630   1.166   1.306
 7123TIP3    H221311   3.557   1.141   1.437
 7124TIP3   OH221312   3.495   6.278   6.587
 7124TIP3    H121313   3.432   6.210   6.612
 7124TIP3    H221314   3.579   6.247   6.622
 7125TIP3   OH221315   7.065   5.168   5.417
 7125TIP3    H121316   7.157   5.145   5.426
 7125TIP3    H221317   7.028   5.101   5.359
 7126TIP3   OH221318   3.273   1.927   0.161
 7126TIP3    H121319   3.281   1.964   0.073
 7126TIP3    H221320   3.231   1.995   0.213
 7127TIP3   OH221321   4.384   4.208   6.042
 7127TIP3    H121322   4.378   4.293   6.086
 7127TIP3    H221323   4.334   4.219   5.961
 7128TIP3   OH221324   2.640   4.457   3.549
 7128TIP3    H121325   2.593   4.412   3.480
 7128TIP3    H221326   2.636   4.550   3.524
 7129TIP3   OH221327   4.169   7.158   5.373
 7129TIP3    H121328   4.235   7.219   5.342
 7129TIP3    H221329   4.091   7.212   5.385
 7130TIP3   OH221330   4.713   6.445   2.325
 7130TIP3    H121331   4.800   6.467   2.357
 7130TIP3    H221332   4.660   6.434   2.405
 7131TIP3   OH221333   5.892   7.545   3.312
 7131TIP3    H121334   5.911   7.514   3.223
 7131TIP3    H221335   5.829   7.482   3.346
 7132TIP3   OH221336   6.858   6.967   1.713
 7132TIP3    H121337   6.862   7.061   1.730
 7132TIP3    H221338   6.863   6.927   1.799
 7133TIP3   OH221339   1.524   5.632   0.381
 7133TIP3    H121340   1.467   5.674   0.446
 7133TIP3    H221341   1.521   5.691   0.306
 7134TIP3   OH221342   6.157   7.662   0.594
 7134TIP3    H121343   6.250   7.640   0.583
 7134TIP3    H221344   6.129   7.691   0.507
 7135TIP3   OH221345   1.810   7.129   3.253
 7135TIP3    H121346   1.814   7.191   3.326
 7135TIP3    H221347   1.717   7.106   3.247
 7136TIP3   OH221348   5.959   5.557   3.177
 7136TIP3    H121349   5.979   5.610   3.100
 7136TIP3    H221350   6.008   5.476   3.163
 7137TIP3   OH221351   1.638   3.747   1.633
 7137TIP3    H121352   1.732   3.754   1.647
 7137TIP3    H221353   1.628   3.688   1.558
 7138TIP3   OH221354   6.654   0.105   2.319
 7138TIP3    H121355   6.637   0.012   2.325
 7138TIP3    H221356   6.598   0.136   2.249
 7139TIP3   OH221357   4.854   6.228   5.436
 7139TIP3    H121358   4.801   6.175   5.377
 7139TIP3    H221359   4.875   6.307   5.386
 7140TIP3   OH221360   1.948   1.666   4.767
 7140TIP3    H121361   1.881   1.649   4.832
 7140TIP3    H221362   1.998   1.739   4.803
 7141TIP3   OH221363   6.382   1.140   0.013
 7141TIP3    H121364   6.381   1.047   0.038
 7141TIP3    H221365   6.325   1.182   0.076
 7142TIP3   OH221366   3.665   0.649   5.970
 7142TIP3    H121367   3.626   0.626   6.054
 7142TIP3    H221368   3.599   0.704   5.927
 7143TIP3   OH221369   0.120   4.974   4.538
 7143TIP3    H121370   0.120   4.923   4.458
 7143TIP3    H221371   0.132   5.065   4.509
 7144TIP3   OH221372   5.919   5.113   0.828
 7144TIP3    H121373   5.918   5.117   0.732
 7144TIP3    H221374   5.891   5.200   0.855
 7145TIP3   OH221375   4.832   5.007   6.077
 7145TIP3    H121376   4.858   5.008   5.985
 7145TIP3    H221377   4.805   5.097   6.095
 7146TIP3   OH221378   5.097   6.488   0.117
 7146TIP3    H121379   5.110   6.582   0.120
 7146TIP3    H221380   5.003   6.476   0.134
 7147TIP3   OH221381   4.848   6.608   6.591
 7147TIP3    H121382   4.882   6.681   6.540
 7147TIP3    H221383   4.868   6.630   6.682
 7148TIP3   OH221384   6.833   6.296   3.440
 7148TIP3    H121385   6.813   6.277   3.531
 7148TIP3    H221386   6.753   6.275   3.392
 7149TIP3   OH221387   2.212   7.118   5.083
 7149TIP3    H121388   2.151   7.177   5.041
 7149TIP3    H221389   2.243   7.166   5.160
 7150TIP3   OH221390   2.121   7.429   5.929
 7150TIP3    H121391   2.085   7.371   5.996
 7150TIP3    H221392   2.056   7.428   5.858
 7151TIP3   OH221393   7.679   6.538   2.208
 7151TIP3    H121394   7.630   6.492   2.140
 7151TIP3    H221395   7.667   6.484   2.286
 7152TIP3   OH221396   8.224   4.996   3.541
 7152TIP3    H121397   8.240   4.973   3.632
 7152TIP3    H221398   8.159   4.931   3.511
 7153TIP3   OH221399   5.488   3.040   5.969
 7153TIP3    H121400   5.537   3.121   5.958
 7153TIP3    H221401   5.400   3.060   5.935
 7154TIP3   OH221402   6.469   7.625   3.871
 7154TIP3    H121403   6.387   7.581   3.852
 7154TIP3    H221404   6.447   7.719   3.871
 7155TIP3   OH221405   2.441   3.377   4.417
 7155TIP3    H121406   2.379   3.375   4.490
 7155TIP3    H221407   2.526   3.356   4.457
 7156TIP3   OH221408   6.995   0.545   2.844
 7156TIP3    H121409   7.006   0.511   2.755
 7156TIP3    H221410   7.061   0.614   2.852
 7157TIP3   OH221411   0.803   4.799   3.193
 7157TIP3    H121412   0.773   4.709   3.206
 7157TIP3    H221413   0.864   4.794   3.119
 7158TIP3   OH221414   0.833   5.469   4.887
 7158TIP3    H121415   0.821   5.563   4.878
 7158TIP3    H221416   0.895   5.446   4.818
 7159TIP3   OH221417   8.006   4.961   0.790
 7159TIP3    H121418   8.063   4.988   0.718
 7159TIP3    H221419   7.932   5.021   0.785
 7160TIP3   OH221420   7.260   4.293   6.709
 7160TIP3    H121421   7.276   4.350   6.784
 7160TIP3    H221422   7.297   4.340   6.634
 7161TIP3   OH221423   0.188   4.873   2.877
 7161TIP3    H121424   0.246   4.940   2.913
 7161TIP3    H221425   0.144   4.835   2.953
 7162TIP3   OH221426   4.305   1.574   5.975
 7162TIP3    H121427   4.268   1.546   6.058
 7162TIP3    H221428   4.399   1.587   5.993
 7163TIP3   OH221429   3.596   5.435   4.602
 7163TIP3    H121430   3.564   5.525   4.600
 7163TIP3    H221431   3.582   5.407   4.692
 7164TIP3   OH221432   8.143   5.501   0.572
 7164TIP3    H121433   8.125   5.413   0.539
 7164TIP3    H221434   8.238   5.508   0.569
 7165TIP3   OH221435   1.571   5.737   1.330
 7165TIP3    H121436   1.549   5.738   1.237
 7165TIP3    H221437   1.552   5.825   1.360
 7166TIP3   OH221438   1.747   2.440   1.209
 7166TIP3    H121439   1.811   2.495   1.254
 7166TIP3    H221440   1.662   2.479   1.231
 7167TIP3   OH221441   6.353   5.236   1.978
 7167TIP3    H121442   6.258   5.227   1.990
 7167TIP3    H221443   6.362   5.286   1.897
 7168TIP3   OH221444   0.280   7.418   6.492
 7168TIP3    H121445   0.256   7.499   6.538
 7168TIP3    H221446   0.245   7.348   6.548
 7169TIP3   OH221447   0.870   2.249   6.760
 7169TIP3    H121448   0.880   2.291   6.675
 7169TIP3    H221449   0.797   2.189   6.748
 7170TIP3   OH221450   8.338   0.049   2.853
 7170TIP3    H121451   8.366   0.139   2.841
 7170TIP3    H221452   8.382   0.001   2.782
 7171TIP3   OH221453   7.201   7.365   4.196
 7171TIP3    H121454   7.153   7.390   4.117
 7171TIP3    H221455   7.277   7.423   4.197
 7172TIP3   OH221456   2.324   6.850   6.532
 7172TIP3    H121457   2.414   6.823   6.547
 7172TIP3    H221458   2.306   6.824   6.441
 7173TIP3   OH221459   7.513   4.244   1.361
 7173TIP3    H121460   7.550   4.284   1.282
 7173TIP3    H221461   7.549   4.155   1.361
 7174TIP3   OH221462   5.855   2.120   4.462
 7174TIP3    H121463   5.809   2.062   4.401
 7174TIP3    H221464   5.870   2.200   4.412
 7175TIP3   OH221465   5.211   1.813   3.949
 7175TIP3    H121466   5.208   1.736   4.006
 7175TIP3    H221467   5.126   1.813   3.905
 7176TIP3   OH221468   6.230   1.072   5.112
 7176TIP3    H121469   6.160   1.007   5.106
 7176TIP3    H221470   6.184   1.155   5.121
 7177TIP3   OH221471   7.785   4.620   2.618
 7177TIP3    H121472   7.864   4.646   2.664
 7177TIP3    H221473   7.816   4.560   2.550
 7178TIP3   OH221474   1.561   1.259   3.495
 7178TIP3    H121475   1.567   1.355   3.487
 7178TIP3    H221476   1.494   1.245   3.562
 7179TIP3   OH221477   6.943   4.446   6.254
 7179TIP3    H121478   6.971   4.533   6.226
 7179TIP3    H221479   6.854   4.459   6.287
 7180TIP3   OH221480   2.045   1.270   1.529
 7180TIP3    H121481   2.003   1.267   1.443
 7180TIP3    H221482   1.994   1.210   1.583
 7181TIP3   OH221483   5.397   5.749   4.810
 7181TIP3    H121484   5.326   5.800   4.848
 7181TIP3    H221485   5.420   5.686   4.879
 7182TIP3   OH221486   4.605   3.737   0.166
 7182TIP3    H121487   4.643   3.650   0.177
 7182TIP3    H221488   4.663   3.781   0.104
 7183TIP3   OH221489   5.002   1.955   6.745
 7183TIP3    H121490   4.950   2.029   6.713
 7183TIP3    H221491   5.089   1.968   6.705
 7184TIP3   OH221492   3.811   3.650   4.734
 7184TIP3    H121493   3.730   3.696   4.757
 7184TIP3    H221494   3.804   3.566   4.779
 7185TIP3   OH221495   6.546   1.933   2.629
 7185TIP3    H121496   6.495   1.890   2.697
 7185TIP3    H221497   6.635   1.937   2.665
 7186TIP3   OH221498   0.925   7.855   6.741
 7186TIP3    H121499   0.953   7.947   6.739
 7186TIP3    H221500   0.856   7.850   6.675
 7187TIP3   OH221501   0.746   5.479   1.059
 7187TIP3    H121502   0.785   5.409   1.112
 7187TIP3    H221503   0.699   5.433   0.989
 7188TIP3   OH221504   6.128   1.252   2.317
 7188TIP3    H121505   6.202   1.265   2.258
 7188TIP3    H221506   6.128   1.158   2.336
 7189TIP3   OH221507   4.423   2.173   6.606
 7189TIP3    H121508   4.413   2.182   6.700
 7189TIP3    H221509   4.362   2.238   6.569
 7190TIP3   OH221510   1.856   2.355   2.340
 7190TIP3    H121511   1.869   2.434   2.289
 7190TIP3    H221512   1.767   2.363   2.375
 7191TIP3   OH221513   2.403   1.241   4.657
 7191TIP3    H121514   2.385   1.242   4.563
 7191TIP3    H221515   2.437   1.329   4.676
 7192TIP3   OH221516   2.244   6.170   4.196
 7192TIP3    H121517   2.317   6.227   4.170
 7192TIP3    H221518   2.167   6.227   4.194
 7193TIP3   OH221519   7.518   1.868   3.822
 7193TIP3    H121520   7.479   1.904   3.901
 7193TIP3    H221521   7.610   1.892   3.827
 7194TIP3   OH221522   6.119   3.008   3.474
 7194TIP3    H121523   6.188   2.957   3.432
 7194TIP3    H221524   6.100   2.961   3.556
 7195TIP3   OH221525   1.059   4.516   2.572
 7195TIP3    H121526   1.118   4.557   2.509
 7195TIP3    H221527   0.973   4.518   2.530
 7196TIP3   OH221528   0.571   3.282   3.084
 7196TIP3    H121529   0.500   3.324   3.036
 7196TIP3    H221530   0.527   3.235   3.155
 7197TIP3   OH221531   6.210   1.836   2.328
 7197TIP3    H121532   6.147   1.769   2.355
 7197TIP3    H221533   6.289   1.786   2.304
 7198TIP3   OH221534   6.942   2.558   5.441
 7198TIP3    H121535   6.910   2.588   5.526
 7198TIP3    H221536   6.907   2.621   5.378
 7199TIP3   OH221537   5.327   0.457   2.378
 7199TIP3    H121538   5.320   0.466   2.473
 7199TIP3    H221539   5.331   0.363   2.363
 7200TIP3   OH221540   6.983   4.286   4.373
 7200TIP3    H121541   6.984   4.205   4.323
 7200TIP3    H221542   7.071   4.294   4.409
 7201TIP3   OH221543   7.133   7.432   3.679
 7201TIP3    H121544   7.177   7.415   3.596
 7201TIP3    H221545   7.066   7.498   3.658
 7202TIP3   OH221546   1.440   3.391   1.118
 7202TIP3    H121547   1.406   3.416   1.031
 7202TIP3    H221548   1.531   3.421   1.116
 7203TIP3   OH221549   4.640   3.658   1.825
 7203TIP3    H121550   4.591   3.654   1.742
 7203TIP3    H221551   4.614   3.741   1.864
 7204TIP3   OH221552   0.696   6.528   3.939
 7204TIP3    H121553   0.721   6.457   3.998
 7204TIP3    H221554   0.777   6.548   3.891
 7205TIP3   OH221555   1.558   6.220   5.312
 7205TIP3    H121556   1.486   6.275   5.281
 7205TIP3    H221557   1.632   6.244   5.256
 7206TIP3   OH221558   3.904   4.678   1.522
 7206TIP3    H121559   3.815   4.650   1.502
 7206TIP3    H221560   3.894   4.759   1.572
 7207TIP3   OH221561   1.159   1.272   5.438
 7207TIP3    H121562   1.221   1.246   5.369
 7207TIP3    H221563   1.146   1.365   5.424
 7208TIP3   OH221564   2.988   0.384   4.705
 7208TIP3    H121565   3.061   0.420   4.654
 7208TIP3    H221566   2.911   0.433   4.675
 7209TIP3   OH221567   3.702   2.801   3.538
 7209TIP3    H121568   3.713   2.778   3.445
 7209TIP3    H221569   3.788   2.788   3.576
 7210TIP3   OH221570   4.198   5.624   6.671
 7210TIP3    H121571   4.138   5.649   6.741
 7210TIP3    H221572   4.141   5.582   6.606
 7211TIP3   OH221573   1.333   1.477   0.986
 7211TIP3    H121574   1.321   1.495   1.079
 7211TIP3    H221575   1.297   1.389   0.973
 7212TIP3   OH221576   2.361   1.834   0.077
 7212TIP3    H121577   2.341   1.897   0.008
 7212TIP3    H221578   2.371   1.751   0.031
 7213TIP3   OH221579   5.211   2.119   2.593
 7213TIP3    H121580   5.178   2.053   2.532
 7213TIP3    H221581   5.194   2.202   2.549
 7214TIP3   OH221582   8.279   4.748   4.749
 7214TIP3    H121583   8.189   4.729   4.724
 7214TIP3    H221584   8.308   4.669   4.795
 7215TIP3   OH221585   8.098   1.777   3.849
 7215TIP3    H121586   8.068   1.695   3.889
 7215TIP3    H221587   8.092   1.842   3.919
 7216TIP3   OH221588   3.811   6.034   0.532
 7216TIP3    H121589   3.862   5.962   0.495
 7216TIP3    H221590   3.856   6.113   0.501
 7217TIP3   OH221591   3.995   4.882   2.630
 7217TIP3    H121592   4.085   4.914   2.634
 7217TIP3    H221593   4.003   4.790   2.606
 7218TIP3   OH221594   3.912   5.878   6.316
 7218TIP3    H121595   3.939   5.951   6.260
 7218TIP3    H221596   3.994   5.835   6.340
 7219TIP3   OH221597   0.332   3.871   5.610
 7219TIP3    H121598   0.274   3.818   5.555
 7219TIP3    H221599   0.388   3.807   5.655
 7220TIP3   OH221600   4.534   3.327   0.754
 7220TIP3    H121601   4.518   3.421   0.743
 7220TIP3    H221602   4.454   3.286   0.722
 7221TIP3   OH221603   5.288   7.831   2.264
 7221TIP3    H121604   5.205   7.877   2.258
 7221TIP3    H221605   5.302   7.818   2.358
 7222TIP3   OH221606   0.039   7.550   3.959
 7222TIP3    H121607   0.095   7.485   3.999
 7222TIP3    H221608  -0.042   7.503   3.938
 7223TIP3   OH221609   0.929   4.493   0.545
 7223TIP3    H121610   0.877   4.488   0.465
 7223TIP3    H221611   0.965   4.405   0.556
 7224TIP3   OH221612   5.521   3.261   2.043
 7224TIP3    H121613   5.503   3.171   2.071
 7224TIP3    H221614   5.599   3.286   2.092
 7225TIP3   OH221615   5.985   4.517   4.714
 7225TIP3    H121616   6.010   4.451   4.780
 7225TIP3    H221617   6.006   4.475   4.630
 7226TIP3   OH221618   0.143   7.008   3.105
 7226TIP3    H121619   0.194   6.928   3.088
 7226TIP3    H221620   0.055   6.987   3.074
 7227TIP3   OH221621   4.287   1.785   3.106
 7227TIP3    H121622   4.297   1.726   3.031
 7227TIP3    H221623   4.300   1.728   3.183
 7228TIP3   OH221624   4.311   2.749   1.077
 7228TIP3    H121625   4.390   2.761   1.024
 7228TIP3    H221626   4.285   2.658   1.062
 7229TIP3   OH221627   5.155   4.075   5.459
 7229TIP3    H121628   5.122   3.986   5.471
 7229TIP3    H221629   5.173   4.082   5.365
 7230TIP3   OH221630   7.621   5.264   3.713
 7230TIP3    H121631   7.593   5.355   3.707
 7230TIP3    H221632   7.620   5.245   3.806
 7231TIP3   OH221633   5.023   0.931   1.561
 7231TIP3    H121634   4.992   1.016   1.593
 7231TIP3    H221635   5.063   0.951   1.477
 7232TIP3   OH221636   7.369   2.300   3.498
 7232TIP3    H121637   7.421   2.232   3.540
 7232TIP3    H221638   7.336   2.259   3.418
 7233TIP3   OH221639   7.148   0.377   5.825
 7233TIP3    H121640   7.200   0.418   5.894
 7233TIP3    H221641   7.165   0.283   5.836
 7234TIP3   OH221642   3.845   0.594   6.659
 7234TIP3    H121643   3.841   0.690   6.653
 7234TIP3    H221644   3.770   0.563   6.608
 7235TIP3   OH221645   4.997   3.839   2.021
 7235TIP3    H121646   4.997   3.768   1.956
 7235TIP3    H221647   5.011   3.795   2.104
 7236TIP3   OH221648   0.546   3.081   6.191
 7236TIP3    H121649   0.544   2.995   6.149
 7236TIP3    H221650   0.583   3.139   6.125
 7237TIP3   OH221651   5.665   3.475   1.302
 7237TIP3    H121652   5.659   3.484   1.207
 7237TIP3    H221653   5.717   3.396   1.315
 7238TIP3   OH221654   7.551   6.098  -0.007
 7238TIP3    H121655   7.614   6.121   0.061
 7238TIP3    H221656   7.604   6.087  -0.086
 7239TIP3   OH221657   2.659   4.143   1.183
 7239TIP3    H121658   2.683   4.082   1.253
 7239TIP3    H221659   2.739   4.153   1.132
 7240TIP3   OH221660   0.128   5.973   3.433
 7240TIP3    H121661   0.142   6.057   3.389
 7240TIP3    H221662   0.185   5.977   3.510
 7241TIP3   OH221663   1.911   7.504   5.708
 7241TIP3    H121664   1.888   7.412   5.723
 7241TIP3    H221665   1.926   7.510   5.614
 7242TIP3   OH221666   8.167   5.697   0.900
 7242TIP3    H121667   8.094   5.648   0.863
 7242TIP3    H221668   8.185   5.765   0.835
 7243TIP3   OH221669   1.984   4.302   0.971
 7243TIP3    H121670   2.038   4.234   1.010
 7243TIP3    H221671   2.016   4.383   1.010
 7244TIP3   OH221672   7.503   7.446   6.091
 7244TIP3    H121673   7.545   7.518   6.137
 7244TIP3    H221674   7.413   7.476   6.076
 7245TIP3   OH221675   3.413   3.377   5.670
 7245TIP3    H121676   3.473   3.321   5.719
 7245TIP3    H221677   3.434   3.466   5.699
 7246TIP3   OH221678   4.504   7.197   2.376
 7246TIP3    H121679   4.415   7.162   2.371
 7246TIP3    H221680   4.510   7.233   2.464
 7247TIP3   OH221681   7.424   0.680   1.625
 7247TIP3    H121682   7.365   0.605   1.632
 7247TIP3    H221683   7.500   0.646   1.577
 7248TIP3   OH221684   6.668   2.147   0.498
 7248TIP3    H121685   6.620   2.206   0.555
 7248TIP3    H221686   6.616   2.067   0.495
 7249TIP3   OH221687   7.863   3.907   5.845
 7249TIP3    H121688   7.928   3.922   5.775
 7249TIP3    H221689   7.780   3.931   5.805
 7250TIP3   OH221690   7.454   3.385   0.023
 7250TIP3    H121691   7.361   3.367   0.033
 7250TIP3    H221692   7.496   3.333   0.092
 7251TIP3   OH221693   0.659   3.746   1.201
 7251TIP3    H121694   0.578   3.794   1.182
 7251TIP3    H221695   0.652   3.665   1.151
 7252TIP3   OH221696   4.174   5.210   2.750
 7252TIP3    H121697   4.212   5.130   2.714
 7252TIP3    H221698   4.183   5.201   2.845
 7253TIP3   OH221699   2.774   5.066   4.425
 7253TIP3    H121700   2.833   5.132   4.459
 7253TIP3    H221701   2.720   5.041   4.500
 7254TIP3   OH221702   6.778   3.167   0.465
 7254TIP3    H121703   6.785   3.195   0.556
 7254TIP3    H221704   6.706   3.104   0.464
 7255TIP3   OH221705   4.775   0.722   6.419
 7255TIP3    H121706   4.703   0.782   6.438
 7255TIP3    H221707   4.800   0.687   6.504
 7256TIP3   OH221708   2.707   7.155   3.321
 7256TIP3    H121709   2.627   7.146   3.268
 7256TIP3    H221710   2.775   7.115   3.267
 7257TIP3   OH221711   4.713   2.590   2.134
 7257TIP3    H121712   4.687   2.675   2.099
 7257TIP3    H221713   4.801   2.575   2.099
 7258TIP3   OH221714   6.860   1.896   2.420
 7258TIP3    H121715   6.943   1.942   2.433
 7258TIP3    H221716   6.826   1.930   2.338
 7259TIP3   OH221717   0.677   0.438   2.653
 7259TIP3    H121718   0.768   0.432   2.622
 7259TIP3    H221719   0.676   0.516   2.708
 7260TIP3   OH221720   5.586   3.288   0.954
 7260TIP3    H121721   5.513   3.329   1.001
 7260TIP3    H221722   5.656   3.353   0.959
 7261TIP3   OH221723   7.040   6.147   3.528
 7261TIP3    H121724   7.026   6.187   3.442
 7261TIP3    H221725   7.023   6.054   3.515
 7262TIP3   OH221726   1.072   4.153   4.754
 7262TIP3    H121727   1.098   4.150   4.846
 7262TIP3    H221728   1.118   4.229   4.719
 7263TIP3   OH221729   1.311   0.473   0.587
 7263TIP3    H121730   1.276   0.492   0.674
 7263TIP3    H221731   1.271   0.390   0.562
 7264TIP3   OH221732   1.796   0.532   0.669
 7264TIP3    H121733   1.751   0.604   0.713
 7264TIP3    H221734   1.726   0.487   0.620
 7265TIP3   OH221735   2.686   2.756   0.176
 7265TIP3    H121736   2.739   2.677   0.186
 7265TIP3    H221737   2.642   2.766   0.260
 7266TIP3   OH221738   3.759   1.201   0.734
 7266TIP3    H121739   3.806   1.178   0.815
 7266TIP3    H221740   3.686   1.256   0.764
 7267TIP3   OH221741   2.136   0.443   3.067
 7267TIP3    H121742   2.164   0.432   3.158
 7267TIP3    H221743   2.193   0.512   3.033
 7268TIP3   OH221744   5.925   6.261   2.651
 7268TIP3    H121745   6.017   6.283   2.640
 7268TIP3    H221746   5.879   6.324   2.597
 7269TIP3   OH221747   5.764   7.077   1.439
 7269TIP3    H121748   5.676   7.108   1.416
 7269TIP3    H221749   5.749   7.015   1.510
 7270TIP3   OH221750   4.460   3.555   5.345
 7270TIP3    H121751   4.524   3.549   5.416
 7270TIP3    H221752   4.496   3.500   5.275
 7271TIP3   OH221753   4.208   1.745   5.535
 7271TIP3    H121754   4.166   1.829   5.517
 7271TIP3    H221755   4.149   1.701   5.596
 7272TIP3   OH221756   3.907   5.658   2.750
 7272TIP3    H121757   3.884   5.566   2.734
 7272TIP3    H221758   3.860   5.681   2.830
 7273TIP3   OH221759   2.369   0.343   5.630
 7273TIP3    H121760   2.425   0.268   5.648
 7273TIP3    H221761   2.290   0.305   5.592
 7274TIP3   OH221762   8.371   0.538   0.328
 7274TIP3    H121763   8.396   0.630   0.316
 7274TIP3    H221764   8.299   0.541   0.392
 7275TIP3   OH221765   7.102   6.695   4.257
 7275TIP3    H121766   7.131   6.768   4.202
 7275TIP3    H221767   7.031   6.732   4.310
 7276TIP3   OH221768   0.937   5.954   3.470
 7276TIP3    H121769   0.997   5.989   3.536
 7276TIP3    H221770   0.993   5.925   3.399
 7277TIP3   OH221771   3.830   2.081   0.085
 7277TIP3    H121772   3.903   2.140   0.105
 7277TIP3    H221773   3.793   2.059   0.170
 7278TIP3   OH221774   2.858   5.366   6.381
 7278TIP3    H121775   2.872   5.460   6.367
 7278TIP3    H221776   2.763   5.357   6.385
 7279TIP3   OH221777   2.107   5.169   3.074
 7279TIP3    H121778   2.043   5.223   3.028
 7279TIP3    H221779   2.059   5.130   3.146
 7280TIP3   OH221780   2.528   5.675   6.278
 7280TIP3    H121781   2.523   5.579   6.270
 7280TIP3    H221782   2.544   5.690   6.371
 7281TIP3   OH221783   7.574   1.048   2.294
 7281TIP3    H121784   7.554   1.092   2.211
 7281TIP3    H221785   7.506   0.981   2.302
 7282TIP3   OH221786   5.822   3.956   5.980
 7282TIP3    H121787   5.897   3.897   5.977
 7282TIP3    H221788   5.788   3.957   5.891
 7283TIP3   OH221789   2.647   7.204   5.817
 7283TIP3    H121790   2.691   7.209   5.903
 7283TIP3    H221791   2.643   7.110   5.798
 7284TIP3   OH221792   7.273   5.453   1.508
 7284TIP3    H121793   7.257   5.450   1.603
 7284TIP3    H221794   7.357   5.497   1.500
 7285TIP3   OH221795   2.863   5.626   0.386
 7285TIP3    H121796   2.888   5.565   0.317
 7285TIP3    H221797   2.927   5.697   0.380
 7286TIP3   OH221798   7.484   4.758   2.267
 7286TIP3    H121799   7.536   4.722   2.195
 7286TIP3    H221800   7.493   4.694   2.338
 7287TIP3   OH221801   3.702   3.880   5.584
 7287TIP3    H121802   3.726   3.817   5.651
 7287TIP3    H221803   3.676   3.827   5.509
 7288TIP3   OH221804   4.598   5.803   6.482
 7288TIP3    H121805   4.614   5.860   6.406
 7288TIP3    H221806   4.642   5.847   6.554
 7289TIP3   OH221807   4.106   6.469   3.936
 7289TIP3    H121808   4.101   6.468   4.032
 7289TIP3    H221809   4.083   6.379   3.910
 7290TIP3   OH221810   4.005   6.409   4.198
 7290TIP3    H121811   3.993   6.479   4.262
 7290TIP3    H221812   3.917   6.390   4.165
 7291TIP3   OH221813   7.929   6.603   0.666
 7291TIP3    H121814   7.945   6.575   0.756
 7291TIP3    H221815   8.016   6.614   0.628
 7292TIP3   OH221816   2.289   1.659   2.677
 7292TIP3    H121817   2.252   1.746   2.689
 7292TIP3    H221818   2.364   1.673   2.619
 7293TIP3   OH221819   4.075   0.693   4.116
 7293TIP3    H121820   4.114   0.735   4.040
 7293TIP3    H221821   4.008   0.635   4.080
 7294TIP3   OH221822   8.072   5.009   4.255
 7294TIP3    H121823   8.047   4.922   4.286
 7294TIP3    H221824   8.004   5.033   4.192
 7295TIP3   OH221825   7.059   4.936   5.689
 7295TIP3    H121826   7.038   4.856   5.737
 7295TIP3    H221827   7.116   4.985   5.749
 7296TIP3   OH221828   4.868   3.066   5.141
 7296TIP3    H121829   4.777   3.041   5.125
 7296TIP3    H221830   4.887   3.132   5.074
 7297TIP3   OH221831   0.380   3.318   3.683
 7297TIP3    H121832   0.321   3.371   3.628
 7297TIP3    H221833   0.466   3.329   3.643
 7298TIP3   OH221834   7.259   2.580   3.534
 7298TIP3    H121835   7.328   2.631   3.492
 7298TIP3    H221836   7.282   2.489   3.515
 7299TIP3   OH221837   3.690   5.415   6.573
 7299TIP3    H121838   3.725   5.357   6.505
 7299TIP3    H221839   3.700   5.365   6.654
 7300TIP3   OH221840   3.836   4.027   0.169
 7300TIP3    H121841   3.882   4.090   0.113
 7300TIP3    H221842   3.846   3.943   0.123
 7301TIP3   OH221843   5.648   2.880   5.192
 7301TIP3    H121844   5.672   2.934   5.267
 7301TIP3    H221845   5.556   2.858   5.207
 7302TIP3   OH221846   1.611   5.160   5.805
 7302TIP3    H121847   1.572   5.234   5.851
 7302TIP3    H221848   1.564   5.157   5.721
 7303TIP3   OH221849   6.905   7.737   2.877
 7303TIP3    H121850   6.937   7.716   2.789
 7303TIP3    H221851   6.971   7.795   2.914
 7304TIP3   OH221852   3.476   2.196   3.167
 7304TIP3    H121853   3.425   2.117   3.148
 7304TIP3    H221854   3.432   2.235   3.242
 7305TIP3   OH221855   5.409   2.761   4.470
 7305TIP3    H121856   5.407   2.686   4.530
 7305TIP3    H221857   5.325   2.757   4.424
 7306TIP3   OH221858   5.201   5.969   4.360
 7306TIP3    H121859   5.176   5.955   4.268
 7306TIP3    H221860   5.208   6.064   4.370
 7307TIP3   OH221861   7.633   3.400   3.785
 7307TIP3    H121862   7.555   3.409   3.839
 7307TIP3    H221863   7.690   3.472   3.813
 7308TIP3   OH221864   0.565   4.536   5.909
 7308TIP3    H121865   0.617   4.519   5.988
 7308TIP3    H221866   0.501   4.464   5.907
 7309TIP3   OH221867   1.402   5.513   3.885
 7309TIP3    H121868   1.362   5.583   3.833
 7309TIP3    H221869   1.396   5.436   3.829
 7310TIP3   OH221870   5.132   2.332   5.084
 7310TIP3    H121871   5.078   2.253   5.088
 7310TIP3    H221872   5.069   2.403   5.068
 7311TIP3   OH221873   4.038   4.840   6.136
 7311TIP3    H121874   4.051   4.831   6.231
 7311TIP3    H221875   4.064   4.755   6.100
 7312TIP3   OH221876   1.268   2.701   3.599
 7312TIP3    H121877   1.224   2.762   3.658
 7312TIP3    H221878   1.360   2.704   3.626
 7313TIP3   OH221879   2.003   2.511   4.778
 7313TIP3    H121880   2.031   2.429   4.818
 7313TIP3    H221881   1.911   2.496   4.756
 7314TIP3   OH221882   5.509   0.347   0.412
 7314TIP3    H121883   5.528   0.293   0.335
 7314TIP3    H221884   5.591   0.350   0.461
 7315TIP3   OH221885   3.445   0.980   2.808
 7315TIP3    H121886   3.529   0.973   2.854
 7315TIP3    H221887   3.462   1.043   2.738
 7316TIP3   OH221888   2.392   2.095   0.869
 7316TIP3    H121889   2.412   2.098   0.775
 7316TIP3    H221890   2.296   2.094   0.874
 7317TIP3   OH221891   7.884   4.505   3.537
 7317TIP3    H121892   7.823   4.556   3.591
 7317TIP3    H221893   7.832   4.479   3.461
 7318TIP3   OH221894   0.674   3.567   4.319
 7318TIP3    H121895   0.735   3.635   4.345
 7318TIP3    H221896   0.622   3.549   4.398
 7319TIP3   OH221897   0.982   3.232   5.140
 7319TIP3    H121898   0.890   3.256   5.139
 7319TIP3    H221899   1.002   3.206   5.050
 7320TIP3   OH221900   0.197   1.559   6.460
 7320TIP3    H121901   0.238   1.520   6.383
 7320TIP3    H221902   0.214   1.496   6.531
 7321TIP3   OH221903   0.686   1.744   2.513
 7321TIP3    H121904   0.627   1.743   2.438
 7321TIP3    H221905   0.635   1.705   2.584
 7322TIP3   OH221906   0.609   3.649   3.724
 7322TIP3    H121907   0.637   3.561   3.745
 7322TIP3    H221908   0.592   3.691   3.808
 7323TIP3   OH221909   7.537   3.579   0.601
 7323TIP3    H121910   7.531   3.542   0.513
 7323TIP3    H221911   7.469   3.646   0.604
 7324TIP3   OH221912   7.612   2.378   3.826
 7324TIP3    H121913   7.520   2.357   3.810
 7324TIP3    H221914   7.617   2.389   3.921
 7325TIP3   OH221915   4.329   0.460   2.211
 7325TIP3    H121916   4.257   0.405   2.179
 7325TIP3    H221917   4.321   0.541   2.161
 7326TIP3   OH221918   3.296   3.891   0.166
 7326TIP3    H121919   3.331   3.980   0.168
 7326TIP3    H221920   3.335   3.851   0.089
 7327TIP3   OH221921   6.620   6.446   0.780
 7327TIP3    H121922   6.572   6.363   0.774
 7327TIP3    H221923   6.583   6.501   0.712
 7328TIP3   OH221924   4.574   2.514   1.786
 7328TIP3    H121925   4.495   2.544   1.742
 7328TIP3    H221926   4.552   2.426   1.817
 7329TIP3   OH221927   5.746   1.302   0.268
 7329TIP3    H121928   5.707   1.378   0.311
 7329TIP3    H221929   5.719   1.309   0.177
 7330TIP3   OH221930   3.042   7.245   5.960
 7330TIP3    H121931   3.114   7.306   5.972
 7330TIP3    H221932   3.079   7.160   5.983
 7331TIP3   OH221933   6.492   6.612   1.256
 7331TIP3    H121934   6.493   6.552   1.181
 7331TIP3    H221935   6.402   6.608   1.289
 7332TIP3   OH221936   6.648   2.716   0.710
 7332TIP3    H121937   6.707   2.717   0.635
 7332TIP3    H221938   6.670   2.794   0.760
 7333TIP3   OH221939   1.517   4.316   2.268
 7333TIP3    H121940   1.472   4.278   2.344
 7333TIP3    H221941   1.562   4.242   2.228
 7334TIP3   OH221942   0.200   3.219   6.558
 7334TIP3    H121943   0.173   3.300   6.515
 7334TIP3    H221944   0.121   3.187   6.601
 7335TIP3   OH221945   2.085   4.947   2.908
 7335TIP3    H121946   2.102   5.030   2.954
 7335TIP3    H221947   2.076   4.883   2.979
 7336TIP3   OH221948   1.099   4.694   1.891
 7336TIP3    H121949   1.095   4.775   1.840
 7336TIP3    H221950   1.125   4.627   1.827
 7337TIP3   OH221951   0.163   5.442   4.265
 7337TIP3    H121952   0.100   5.496   4.217
 7337TIP3    H221953   0.162   5.478   4.354
 7338TIP3   OH221954   4.332   0.991   5.610
 7338TIP3    H121955   4.411   0.939   5.621
 7338TIP3    H221956   4.362   1.070   5.564
 7339TIP3   OH221957   0.167   2.600   0.063
 7339TIP3    H121958   0.086   2.648   0.079
 7339TIP3    H221959   0.142   2.507   0.068
 7340TIP3   OH221960   6.856   0.700   3.812
 7340TIP3    H121961   6.936   0.705   3.865
 7340TIP3    H221962   6.808   0.626   3.849
 7341TIP3   OH221963   7.524   7.633   4.671
 7341TIP3    H121964   7.468   7.557   4.656
 7341TIP3    H221965   7.592   7.626   4.603
 7342TIP3   OH221966   4.131   7.733   4.181
 7342TIP3    H121967   4.095   7.669   4.119
 7342TIP3    H221968   4.184   7.681   4.241
 7343TIP3   OH221969   2.473   2.377   2.986
 7343TIP3    H121970   2.552   2.390   2.934
 7343TIP3    H221971   2.470   2.452   3.045
 7344TIP3   OH221972   1.677   0.018   5.359
 7344TIP3    H121973   1.672   0.070   5.279
 7344TIP3    H221974   1.757  -0.034   5.349
 7345TIP3   OH221975   0.044   3.081   5.305
 7345TIP3    H121976   0.035   3.086   5.210
 7345TIP3    H221977  -0.001   3.159   5.338
 7346TIP3   OH221978   4.071   4.754   2.229
 7346TIP3    H121979   4.152   4.719   2.193
 7346TIP3    H221980   4.030   4.680   2.273
 7347TIP3   OH221981   4.751   2.273   5.035
 7347TIP3    H121982   4.783   2.185   5.053
 7347TIP3    H221983   4.675   2.282   5.092
 7348TIP3   OH221984   7.451   6.894   1.922
 7348TIP3    H121985   7.395   6.884   1.844
 7348TIP3    H221986   7.491   6.981   1.911
 7349TIP3   OH221987   6.633   7.755   2.561
 7349TIP3    H121988   6.699   7.688   2.544
 7349TIP3    H221989   6.623   7.801   2.478
 7350TIP3   OH221990   3.701   5.174   0.017
 7350TIP3    H121991   3.689   5.198   0.109
 7350TIP3    H221992   3.790   5.201  -0.004
 7351TIP3   OH221993   7.680   3.005   2.863
 7351TIP3    H121994   7.676   2.918   2.823
 7351TIP3    H221995   7.663   3.065   2.791
 7352TIP3   OH221996   6.637   5.953   2.288
 7352TIP3    H121997   6.544   5.931   2.302
 7352TIP3    H221998   6.639   5.997   2.204
 7353TIP3   OH221999   5.980   7.779   5.380
 7353TIP3    H122000   5.889   7.759   5.402
 7353TIP3    H222001   6.028   7.700   5.403
 7354TIP3   OH222002   4.525   4.207   2.059
 7354TIP3    H122003   4.612   4.174   2.082
 7354TIP3    H222004   4.464   4.143   2.097
 7355TIP3   OH222005   5.801   3.909   3.050
 7355TIP3    H122006   5.740   3.903   2.977
 7355TIP3    H222007   5.753   3.874   3.125
 7356TIP3   OH222008   2.102   7.871   3.988
 7356TIP3    H122009   2.172   7.930   4.016
 7356TIP3    H222010   2.031   7.885   4.052
 7357TIP3   OH222011   3.979   4.043   3.172
 7357TIP3    H122012   4.050   4.026   3.110
 7357TIP3    H222013   3.949   3.956   3.199
 7358TIP3   OH222014   2.811   1.535   6.921
 7358TIP3    H122015   2.825   1.629   6.931
 7358TIP3    H222016   2.851   1.513   6.836
 7359TIP3   OH222017   2.271   0.431   0.042
 7359TIP3    H122018   2.357   0.393   0.027
 7359TIP3    H222019   2.212   0.356   0.046
 7360TIP3   OH222020   5.029   4.011   6.061
 7360TIP3    H122021   5.044   4.032   6.153
 7360TIP3    H222022   4.985   3.926   6.062
 7361TIP3   OH222023   1.467   2.955   4.373
 7361TIP3    H122024   1.545   3.001   4.342
 7361TIP3    H222025   1.485   2.863   4.357
 7362TIP3   OH222026   5.673   0.705   1.949
 7362TIP3    H122027   5.675   0.775   2.015
 7362TIP3    H222028   5.682   0.751   1.866
 7363TIP3   OH222029   8.165   5.816   5.334
 7363TIP3    H122030   8.219   5.847   5.261
 7363TIP3    H222031   8.090   5.875   5.337
 7364TIP3   OH222032  -0.030   1.449   0.018
 7364TIP3    H122033  -0.043   1.356   0.033
 7364TIP3    H222034  -0.037   1.489   0.104
 7365TIP3   OH222035   2.840   2.103   1.254
 7365TIP3    H122036   2.906   2.101   1.185
 7365TIP3    H222037   2.759   2.078   1.211
 7366TIP3   OH222038   1.350   3.266   5.825
 7366TIP3    H122039   1.306   3.186   5.796
 7366TIP3    H222040   1.443   3.245   5.816
 7367TIP3   OH222041   1.622   1.411   3.195
 7367TIP3    H122042   1.623   1.360   3.276
 7367TIP3    H222043   1.626   1.346   3.125
 7368TIP3   OH222044   4.273   2.364   4.671
 7368TIP3    H122045   4.341   2.409   4.620
 7368TIP3    H222046   4.317   2.286   4.705
 7369TIP3   OH222047   2.393   6.280   1.725
 7369TIP3    H122048   2.429   6.361   1.762
 7369TIP3    H222049   2.360   6.231   1.800
 7370TIP3   OH222050   6.392   0.201   5.909
 7370TIP3    H122051   6.456   0.271   5.920
 7370TIP3    H222052   6.354   0.216   5.822
 7371TIP3   OH222053   7.872   4.230   3.779
 7371TIP3    H122054   7.805   4.238   3.846
 7371TIP3    H222055   7.824   4.215   3.698
 7372TIP3   OH222056   3.636   5.585   2.546
 7372TIP3    H122057   3.580   5.661   2.560
 7372TIP3    H222058   3.688   5.608   2.468
 7373TIP3   OH222059   1.332   2.312   0.901
 7373TIP3    H122060   1.239   2.333   0.908
 7373TIP3    H222061   1.338   2.252   0.827
 7374TIP3   OH222062   6.413   7.470   2.405
 7374TIP3    H122063   6.492   7.502   2.361
 7374TIP3    H222064   6.348   7.539   2.391
 7375TIP3   OH222065   6.703   1.470   5.315
 7375TIP3    H122066   6.653   1.457   5.396
 7375TIP3    H222067   6.659   1.542   5.271
 7376TIP3   OH222068   1.875   7.089   6.625
 7376TIP3    H122069   1.855   7.174   6.663
 7376TIP3    H222070   1.883   7.030   6.700
 7377TIP3   OH222071   7.578   7.216   2.755
 7377TIP3    H122072   7.673   7.230   2.757
 7377TIP3    H222073   7.566   7.144   2.693
 7378TIP3   OH222074   7.479   0.441   1.474
 7378TIP3    H122075   7.445   0.504   1.411
 7378TIP3    H222076   7.530   0.379   1.421
 7379TIP3   OH222077   8.366   6.134   6.612
 7379TIP3    H122078   8.430   6.151   6.543
 7379TIP3    H222079   8.295   6.088   6.568
 7380TIP3   OH222080   2.687   4.485   2.006
 7380TIP3    H122081   2.626   4.420   1.971
 7380TIP3    H222082   2.740   4.511   1.931
 7381TIP3   OH222083   0.848   3.287   3.134
 7381TIP3    H122084   0.877   3.377   3.151
 7381TIP3    H222085   0.757   3.296   3.107
 7382TIP3   OH222086   7.501   6.695   3.751
 7382TIP3    H122087   7.406   6.709   3.752
 7382TIP3    H222088   7.530   6.721   3.838
 7383TIP3   OH222089   8.173   5.113   6.033
 7383TIP3    H122090   8.119   5.191   6.023
 7383TIP3    H222091   8.134   5.066   6.107
 7384TIP3   OH222092   4.449   4.785   5.064
 7384TIP3    H122093   4.361   4.751   5.079
 7384TIP3    H222094   4.492   4.717   5.013
 7385TIP3   OH222095   5.511   3.975   0.264
 7385TIP3    H122096   5.523   4.004   0.355
 7385TIP3    H222097   5.487   3.882   0.272
 7386TIP3   OH222098   6.238   3.277   1.443
 7386TIP3    H122099   6.162   3.238   1.401
 7386TIP3    H222100   6.232   3.370   1.423
 7387TIP3   OH222101   1.492   2.189   2.638
 7387TIP3    H122102   1.513   2.270   2.686
 7387TIP3    H222103   1.407   2.162   2.673
 7388TIP3   OH222104   5.030   4.567   0.444
 7388TIP3    H122105   5.065   4.481   0.422
 7388TIP3    H222106   4.991   4.556   0.531
 7389TIP3   OH222107   3.271   1.422   2.122
 7389TIP3    H122108   3.316   1.349   2.080
 7389TIP3    H222109   3.235   1.385   2.202
 7390TIP3   OH222110   2.093   6.223   1.579
 7390TIP3    H122111   2.161   6.289   1.569
 7390TIP3    H222112   2.014   6.274   1.601
 7391TIP3   OH222113   8.329   0.290   2.700
 7391TIP3    H122114   8.402   0.332   2.745
 7391TIP3    H222115   8.262   0.358   2.694
 7392TIP3   OH222116   7.186   4.930   2.974
 7392TIP3    H122117   7.223   5.015   2.995
 7392TIP3    H222118   7.241   4.867   3.022
 7393TIP3   OH222119   0.356   4.894   6.130
 7393TIP3    H122120   0.267   4.869   6.154
 7393TIP3    H222121   0.363   4.871   6.037
 7394TIP3   OH222122   1.593   2.167   3.674
 7394TIP3    H122123   1.503   2.199   3.664
 7394TIP3    H222124   1.630   2.172   3.585
 7395TIP3   OH222125   1.939   4.559   6.452
 7395TIP3    H122126   2.033   4.550   6.470
 7395TIP3    H222127   1.935   4.603   6.367
 7396TIP3   OH222128   0.942   6.978   5.136
 7396TIP3    H122129   1.031   6.990   5.167
 7396TIP3    H222130   0.914   7.065   5.109
 7397TIP3   OH222131   0.247   0.228   3.076
 7397TIP3    H122132   0.266   0.245   3.169
 7397TIP3    H222133   0.333   0.213   3.036
 7398TIP3   OH222134   1.484   3.128   6.151
 7398TIP3    H122135   1.427   3.090   6.218
 7398TIP3    H222136   1.431   3.128   6.071
 7399TIP3   OH222137   0.125   1.502   4.395
 7399TIP3    H122138   0.036   1.467   4.396
 7399TIP3    H222139   0.174   1.443   4.338
 7400TIP3   OH222140   7.631   5.418   5.383
 7400TIP3    H122141   7.686   5.418   5.305
 7400TIP3    H222142   7.592   5.506   5.385
 7401TIP3   OH222143   2.931   1.537   2.725
 7401TIP3    H122144   2.840   1.511   2.737
 7401TIP3    H222145   2.927   1.631   2.708
 7402TIP3   OH222146   6.029   2.905   1.369
 7402TIP3    H122147   6.096   2.875   1.430
 7402TIP3    H222148   6.056   2.870   1.284
 7403TIP3   OH222149   4.335   2.042   5.323
 7403TIP3    H122150   4.245   2.015   5.341
 7403TIP3    H222151   4.385   1.960   5.323
 7404TIP3   OH222152   7.844   5.120   5.984
 7404TIP3    H122153   7.775   5.183   5.964
 7404TIP3    H222154   7.865   5.136   6.076
 7405TIP3   OH222155   4.721   5.527   0.115
 7405TIP3    H122156   4.684   5.478   0.189
 7405TIP3    H222157   4.700   5.473   0.039
 7406TIP3   OH222158   1.018   1.428   2.325
 7406TIP3    H122159   1.027   1.460   2.235
 7406TIP3    H222160   1.006   1.334   2.316
 7407TIP3   OH222161   7.061   0.149   3.686
 7407TIP3    H122162   6.988   0.172   3.628
 7407TIP3    H222163   7.139   0.179   3.639
 7408TIP3   OH222164   5.645   5.690   3.408
 7408TIP3    H122165   5.688   5.722   3.329
 7408TIP3    H222166   5.572   5.637   3.376
 7409TIP3   OH222167   3.067   3.971   2.647
 7409TIP3    H122168   3.036   3.896   2.596
 7409TIP3    H222169   2.989   4.006   2.689
 7410TIP3   OH222170   2.669   5.384   2.500
 7410TIP3    H122171   2.613   5.454   2.535
 7410TIP3    H222172   2.750   5.392   2.550
 7411TIP3   OH222173   1.375   2.653   2.347
 7411TIP3    H122174   1.447   2.715   2.356
 7411TIP3    H222175   1.354   2.627   2.437
 7412TIP3   OH222176   3.289   0.439   5.895
 7412TIP3    H122177   3.289   0.467   5.987
 7412TIP3    H222178   3.357   0.492   5.854
 7413TIP3   OH222179   1.319   6.387   5.833
 7413TIP3    H122180   1.287   6.451   5.768
 7413TIP3    H222181   1.253   6.388   5.902
 7414TIP3   OH222182   3.681   4.117   2.361
 7414TIP3    H122183   3.596   4.074   2.350
 7414TIP3    H222184   3.704   4.101   2.452
 7415TIP3   OH222185   3.111   7.233   0.998
 7415TIP3    H122186   3.188   7.178   1.017
 7415TIP3    H222187   3.062   7.182   0.933
 7416TIP3   OH222188   1.130   7.395   0.833
 7416TIP3    H122189   1.136   7.306   0.801
 7416TIP3    H222190   1.191   7.445   0.780
 7417TIP3   OH222191   5.511   6.667   1.555
 7417TIP3    H122192   5.540   6.620   1.477
 7417TIP3    H222193   5.450   6.606   1.598
 7418TIP3   OH222194   3.260   3.252   3.750
 7418TIP3    H122195   3.313   3.179   3.783
 7418TIP3    H222196   3.236   3.301   3.828
 7419TIP3   OH222197   1.400   4.188   1.614
 7419TIP3    H122198   1.476   4.175   1.672
 7419TIP3    H222199   1.334   4.228   1.670
 7420TIP3   OH222200   6.113   4.749   4.786
 7420TIP3    H122201   6.088   4.659   4.766
 7420TIP3    H222202   6.209   4.747   4.794
 7421TIP3   OH222203   5.489   5.391   3.689
 7421TIP3    H122204   5.540   5.449   3.746
 7421TIP3    H222205   5.403   5.387   3.732
 7422TIP3   OH222206   6.776   2.292   3.817
 7422TIP3    H122207   6.713   2.311   3.747
 7422TIP3    H222208   6.824   2.215   3.786
 7423TIP3   OH222209   4.677   0.752   0.317
 7423TIP3    H122210   4.720   0.677   0.277
 7423TIP3    H222211   4.586   0.745   0.288
 7424TIP3   OH222212   0.078   1.902   1.490
 7424TIP3    H122213  -0.013   1.923   1.468
 7424TIP3    H222214   0.075   1.813   1.523
 7425TIP3   OH222215   8.277   7.216   1.134
 7425TIP3    H122216   8.215   7.285   1.113
 7425TIP3    H222217   8.251   7.186   1.221
 7426TIP3   OH222218   4.645   0.023   1.379
 7426TIP3    H122219   4.562   0.069   1.367
 7426TIP3    H222220   4.708   0.092   1.401
 7427TIP3   OH222221   2.144   1.280   4.518
 7427TIP3    H122222   2.199   1.325   4.583
 7427TIP3    H222223   2.064   1.258   4.566
 7428TIP3   OH222224   2.767   1.028   4.629
 7428TIP3    H122225   2.693   1.002   4.574
 7428TIP3    H222226   2.842   1.023   4.571
 7429TIP3   OH222227   7.032   7.445   1.499
 7429TIP3    H122228   7.038   7.411   1.589
 7429TIP3    H222229   7.053   7.370   1.444
 7430TIP3   OH222230   7.469   1.613   4.471
 7430TIP3    H122231   7.564   1.622   4.475
 7430TIP3    H222232   7.455   1.528   4.429
 7431TIP3   OH222233   1.034   1.462   3.983
 7431TIP3    H122234   1.011   1.373   3.957
 7431TIP3    H222235   1.128   1.469   3.964
 7432TIP3   OH222236   6.390   5.995   6.788
 7432TIP3    H122237   6.470   5.995   6.842
 7432TIP3    H222238   6.418   6.030   6.703
 7433TIP3   OH222239   3.441   3.384   0.861
 7433TIP3    H122240   3.476   3.473   0.858
 7433TIP3    H222241   3.422   3.362   0.770
 7434TIP3   OH222242   4.998   7.437   0.962
 7434TIP3    H122243   5.063   7.504   0.937
 7434TIP3    H222244   5.051   7.363   0.991
 7435TIP3   OH222245   1.654   7.604   4.327
 7435TIP3    H122246   1.639   7.539   4.258
 7435TIP3    H222247   1.602   7.573   4.401
 7436TIP3   OH222248   3.433   4.019   2.390
 7436TIP3    H122249   3.390   4.038   2.307
 7436TIP3    H222250   3.372   4.050   2.457
 7437TIP3   OH222251   3.085   6.542   5.729
 7437TIP3    H122252   3.077   6.593   5.649
 7437TIP3    H222253   3.178   6.546   5.750
 7438TIP3   OH222254   3.834   5.039   1.752
 7438TIP3    H122255   3.881   5.042   1.835
 7438TIP3    H222256   3.885   4.979   1.697
 7439TIP3   OH222257   4.890   5.561   4.639
 7439TIP3    H122258   4.893   5.494   4.707
 7439TIP3    H222259   4.818   5.618   4.665
 7440TIP3   OH222260   7.777   1.644   6.765
 7440TIP3    H122261   7.784   1.632   6.670
 7440TIP3    H222262   7.686   1.621   6.786
 7441TIP3   OH222263   1.179   4.486   0.215
 7441TIP3    H122264   1.189   4.551   0.285
 7441TIP3    H222265   1.227   4.523   0.141
 7442TIP3   OH222266   2.112   6.049   0.698
 7442TIP3    H122267   2.179   6.073   0.763
 7442TIP3    H222268   2.157   6.056   0.614
 7443TIP3   OH222269   3.490   0.554   3.620
 7443TIP3    H122270   3.523   0.505   3.696
 7443TIP3    H222271   3.473   0.486   3.554
 7444TIP3   OH222272   7.181   5.913   0.199
 7444TIP3    H122273   7.196   5.939   0.290
 7444TIP3    H222274   7.100   5.863   0.201
 7445TIP3   OH222275   0.629   7.528   5.465
 7445TIP3    H122276   0.573   7.605   5.455
 7445TIP3    H222277   0.617   7.479   5.384
 7446TIP3   OH222278   0.263   2.069   1.261
 7446TIP3    H122279   0.281   1.999   1.199
 7446TIP3    H222280   0.293   2.036   1.345
 7447TIP3   OH222281   0.692   1.204   4.670
 7447TIP3    H122282   0.724   1.202   4.760
 7447TIP3    H222283   0.730   1.285   4.634
 7448TIP3   OH222284   7.577   3.699   5.945
 7448TIP3    H122285   7.642   3.644   5.988
 7448TIP3    H222286   7.505   3.705   6.008
 7449TIP3   OH222287   3.354   5.804   0.748
 7449TIP3    H122288   3.396   5.874   0.798
 7449TIP3    H222289   3.373   5.724   0.797
 7450TIP3   OH222290   0.940   1.671   2.105
 7450TIP3    H122291   0.884   1.719   2.167
 7450TIP3    H222292   1.013   1.730   2.088
 7451TIP3   OH222293   8.044   0.935   5.212
 7451TIP3    H122294   7.971   0.937   5.150
 7451TIP3    H222295   8.064   0.843   5.224
 7452TIP3   OH222296   0.966   0.044   3.345
 7452TIP3    H122297   0.917  -0.039   3.348
 7452TIP3    H222298   1.013   0.040   3.262
 7453TIP3   OH222299   3.023   0.493   6.693
 7453TIP3    H122300   2.961   0.565   6.697
 7453TIP3    H222301   3.074   0.501   6.774
 7454TIP3   OH222302   1.686   2.019   6.641
 7454TIP3    H122303   1.670   2.107   6.675
 7454TIP3    H222304   1.659   2.023   6.549
 7455TIP3   OH222305   5.344   2.580   3.694
 7455TIP3    H122306   5.434   2.592   3.724
 7455TIP3    H222307   5.351   2.525   3.616
 7456TIP3   OH222308   1.986   6.740   4.677
 7456TIP3    H122309   1.947   6.823   4.704
 7456TIP3    H222310   2.061   6.765   4.623
 7457TIP3   OH222311   1.147   3.959   3.607
 7457TIP3    H122312   1.226   4.010   3.591
 7457TIP3    H222313   1.075   4.019   3.586
 7458TIP3   OH222314   7.103   7.967   2.725
 7458TIP3    H122315   7.166   7.898   2.746
 7458TIP3    H222316   7.069   7.943   2.639
 7459TIP3   OH222317   5.556   3.853   5.318
 7459TIP3    H122318   5.487   3.805   5.272
 7459TIP3    H222319   5.568   3.933   5.266
 7460TIP3   OH222320   1.447   5.742   4.825
 7460TIP3    H122321   1.431   5.670   4.763
 7460TIP3    H222322   1.365   5.791   4.827
 7461TIP3   OH222323   1.648   2.081   6.368
 7461TIP3    H122324   1.559   2.108   6.344
 7461TIP3    H222325   1.684   2.043   6.287
 7462TIP3   OH222326   4.355   5.768   4.069
 7462TIP3    H122327   4.442   5.807   4.074
 7462TIP3    H222328   4.296   5.835   4.103
 7463TIP3   OH222329   2.906   5.713   1.197
 7463TIP3    H122330   2.938   5.803   1.194
 7463TIP3    H222331   2.811   5.722   1.203
 7464TIP3   OH222332   0.267   6.497   3.362
 7464TIP3    H122333   0.285   6.540   3.445
 7464TIP3    H222334   0.190   6.541   3.327
 7465TIP3   OH222335   7.171   7.007   6.290
 7465TIP3    H122336   7.123   6.952   6.228
 7465TIP3    H222337   7.260   7.013   6.255
 7466TIP3   OH222338   6.125   5.983   2.621
 7466TIP3    H122339   6.127   6.020   2.533
 7466TIP3    H222340   6.034   5.993   2.650
 7467TIP3   OH222341   0.520   5.355   0.021
 7467TIP3    H122342   0.606   5.394   0.005
 7467TIP3    H222343   0.476   5.416   0.079
 7468TIP3   OH222344   5.870   7.567   1.720
 7468TIP3    H122345   5.929   7.520   1.779
 7468TIP3    H222346   5.823   7.628   1.777
 7469TIP3   OH222347   2.515   0.464   4.050
 7469TIP3    H122348   2.538   0.412   4.127
 7469TIP3    H222349   2.471   0.403   3.992
 7470TIP3   OH222350   6.391   0.140   1.485
 7470TIP3    H122351   6.390   0.224   1.440
 7470TIP3    H222352   6.483   0.126   1.507
 7471TIP3   OH222353   7.781   1.915   2.282
 7471TIP3    H122354   7.842   1.975   2.241
 7471TIP3    H222355   7.772   1.843   2.220
 7472TIP3   OH222356   6.319   3.691   3.413
 7472TIP3    H122357   6.322   3.787   3.410
 7472TIP3    H222358   6.357   3.662   3.330
 7473TIP3   OH222359   2.036   4.584   0.146
 7473TIP3    H122360   2.049   4.652   0.211
 7473TIP3    H222361   1.973   4.523   0.186
 7474TIP3   OH222362   6.347   6.440   3.437
 7474TIP3    H122363   6.343   6.462   3.344
 7474TIP3    H222364   6.284   6.499   3.478
 7475TIP3   OH222365   0.770   5.427   5.914
 7475TIP3    H122366   0.738   5.343   5.882
 7475TIP3    H222367   0.709   5.452   5.983
 7476TIP3   OH222368   6.685   5.899   0.362
 7476TIP3    H122369   6.614   5.898   0.427
 7476TIP3    H222370   6.731   5.817   0.376
 7477TIP3   OH222371   2.717   4.988   3.239
 7477TIP3    H122372   2.795   4.940   3.211
 7477TIP3    H222373   2.750   5.073   3.267
 7478TIP3   OH222374   7.631   6.913   0.784
 7478TIP3    H122375   7.588   6.879   0.862
 7478TIP3    H222376   7.584   6.872   0.711
 7479TIP3   OH222377   7.423   0.204   6.165
 7479TIP3    H122378   7.393   0.253   6.242
 7479TIP3    H222379   7.481   0.265   6.119
 7480TIP3   OH222380   7.321   4.803   1.165
 7480TIP3    H122381   7.278   4.863   1.225
 7480TIP3    H222382   7.360   4.860   1.098
 7481TIP3   OH222383   8.229   2.935   1.379
 7481TIP3    H122384   8.213   2.894   1.465
 7481TIP3    H222385   8.323   2.920   1.363
 7482TIP3   OH222386   2.850   4.082   2.727
 7482TIP3    H122387   2.822   4.168   2.696
 7482TIP3    H222388   2.780   4.054   2.786
 7483TIP3   OH222389   7.654   6.354   2.409
 7483TIP3    H122390   7.705   6.273   2.418
 7483TIP3    H222391   7.563   6.326   2.410
 7484TIP3   OH222392   6.694   4.746   1.970
 7484TIP3    H122393   6.664   4.669   1.920
 7484TIP3    H222394   6.677   4.820   1.911
 7485TIP3   OH222395   2.888   3.979   6.091
 7485TIP3    H122396   2.939   3.998   6.170
 7485TIP3    H222397   2.844   3.897   6.111
 7486TIP3   OH222398   5.935   5.118   0.569
 7486TIP3    H122399   5.973   5.177   0.503
 7486TIP3    H222400   5.876   5.062   0.519
 7487TIP3   OH222401   6.183   4.707   4.380
 7487TIP3    H122402   6.177   4.779   4.442
 7487TIP3    H222403   6.113   4.723   4.318
 7488TIP3   OH222404   3.952   3.161   1.188
 7488TIP3    H122405   4.029   3.113   1.219
 7488TIP3    H222406   3.972   3.181   1.096
 7489TIP3   OH222407   0.883   1.328   2.973
 7489TIP3    H122408   0.860   1.235   2.962
 7489TIP3    H222409   0.855   1.349   3.062
 7490TIP3   OH222410   6.521   2.368   3.656
 7490TIP3    H122411   6.527   2.451   3.703
 7490TIP3    H222412   6.432   2.366   3.621
 7491TIP3   OH222413   6.361   1.431   0.341
 7491TIP3    H122414   6.321   1.497   0.285
 7491TIP3    H222415   6.300   1.418   0.413
 7492TIP3   OH222416   4.350   3.770   5.484
 7492TIP3    H122417   4.380   3.746   5.572
 7492TIP3    H222418   4.377   3.698   5.428
 7493TIP3   OH222419   2.552   6.469   1.285
 7493TIP3    H122420   2.606   6.544   1.259
 7493TIP3    H222421   2.614   6.408   1.326
 7494TIP3   OH222422   8.093   3.536   3.802
 7494TIP3    H122423   8.049   3.513   3.885
 7494TIP3    H222424   8.058   3.622   3.779
 7495TIP3   OH222425   0.730   0.089   6.278
 7495TIP3    H122426   0.727   0.184   6.291
 7495TIP3    H222427   0.819   0.064   6.304
 7496TIP3   OH222428   1.173   7.111   4.230
 7496TIP3    H122429   1.155   7.036   4.172
 7496TIP3    H222430   1.091   7.160   4.231
 7497TIP3   OH222431   1.741   1.780   3.945
 7497TIP3    H122432   1.749   1.736   4.030
 7497TIP3    H222433   1.761   1.871   3.962
 7498TIP3   OH222434   5.826   6.046   0.647
 7498TIP3    H122435   5.820   5.981   0.717
 7498TIP3    H222436   5.745   6.035   0.597
 7499TIP3   OH222437   1.639   1.393   2.055
 7499TIP3    H122438   1.667   1.444   2.131
 7499TIP3    H222439   1.716   1.389   1.999
 7500TIP3   OH222440   1.945   2.993   6.688
 7500TIP3    H122441   2.011   3.025   6.750
 7500TIP3    H222442   1.974   2.905   6.665
 7501TIP3   OH222443   2.116   1.822   4.887
 7501TIP3    H122444   2.115   1.839   4.981
 7501TIP3    H222445   2.189   1.873   4.854
 7502TIP3   OH222446   7.348   5.121   5.486
 7502TIP3    H122447   7.411   5.109   5.414
 7502TIP3    H222448   7.402   5.149   5.560
 7503TIP3   OH222449   8.053   5.306   4.141
 7503TIP3    H122450   7.999   5.377   4.108
 7503TIP3    H222451   8.125   5.299   4.078
 7504TIP3   OH222452   0.030   3.280   0.967
 7504TIP3    H122453  -0.043   3.223   0.990
 7504TIP3    H222454   0.108   3.233   0.995
 7505TIP3   OH222455   6.128   4.669   0.898
 7505TIP3    H122456   6.219   4.642   0.903
 7505TIP3    H222457   6.106   4.663   0.805
 7506TIP3   OH222458   0.538   5.042   5.133
 7506TIP3    H122459   0.618   5.089   5.113
 7506TIP3    H222460   0.500   5.089   5.207
 7507TIP3   OH222461   3.293   3.451   4.726
 7507TIP3    H122462   3.275   3.416   4.639
 7507TIP3    H222463   3.226   3.518   4.740
 7508TIP3   OH222464   6.731   5.580   4.185
 7508TIP3    H122465   6.638   5.574   4.161
 7508TIP3    H222466   6.772   5.506   4.141
 7509TIP3   OH222467   0.484   4.625   0.843
 7509TIP3    H122468   0.562   4.579   0.812
 7509TIP3    H222469   0.515   4.683   0.912
 7510TIP3   OH222470   2.453   2.773   0.810
 7510TIP3    H122471   2.424   2.700   0.865
 7510TIP3    H222472   2.375   2.798   0.760
 7511TIP3   OH222473   0.861   5.834   4.542
 7511TIP3    H122474   0.768   5.817   4.531
 7511TIP3    H222475   0.901   5.802   4.461
 7512TIP3   OH222476   2.430   4.898   5.423
 7512TIP3    H122477   2.445   4.938   5.337
 7512TIP3    H222478   2.385   4.966   5.473
 7513TIP3   OH222479   1.040   3.953   4.561
 7513TIP3    H122480   1.050   4.025   4.624
 7513TIP3    H222481   1.101   3.975   4.490
 7514TIP3   OH222482   3.028   1.933   4.972
 7514TIP3    H122483   2.985   1.985   5.040
 7514TIP3    H222484   3.005   1.843   4.993
 7515TIP3   OH222485   1.021   6.725   4.299
 7515TIP3    H122486   1.015   6.638   4.337
 7515TIP3    H222487   1.114   6.735   4.276
 7516TIP3   OH222488   7.003   2.717   4.877
 7516TIP3    H122489   6.920   2.741   4.834
 7516TIP3    H222490   7.058   2.685   4.806
 7517TIP3   OH222491   0.599   4.946   5.939
 7517TIP3    H122492   0.559   4.862   5.917
 7517TIP3    H222493   0.631   4.935   6.028
 7518TIP3   OH222494   3.982   5.727   2.287
 7518TIP3    H122495   3.902   5.681   2.263
 7518TIP3    H222496   3.999   5.785   2.213
 7519TIP3   OH222497   6.567   5.087   2.026
 7519TIP3    H122498   6.551   5.030   2.101
 7519TIP3    H222499   6.485   5.136   2.015
 7520TIP3   OH222500   2.110   7.133   0.362
 7520TIP3    H122501   2.199   7.135   0.326
 7520TIP3    H222502   2.057   7.180   0.297
 7521TIP3   OH222503   2.499   7.760   4.080
 7521TIP3    H122504   2.561   7.696   4.114
 7521TIP3    H222505   2.421   7.750   4.135
 7522TIP3   OH222506   6.444   7.631   6.523
 7522TIP3    H122507   6.520   7.631   6.465
 7522TIP3    H222508   6.432   7.723   6.547
 7523TIP3   OH222509   8.268   6.924   1.029
 7523TIP3    H122510   8.278   6.865   0.955
 7523TIP3    H222511   8.352   6.969   1.036
 7524TIP3   OH222512   8.209   7.096  -0.021
 7524TIP3    H122513   8.234   7.010   0.013
 7524TIP3    H222514   8.244   7.158   0.042
 7525TIP3   OH222515   6.633   1.737   3.335
 7525TIP3    H122516   6.709   1.790   3.358
 7525TIP3    H222517   6.670   1.655   3.302
 7526TIP3   OH222518   2.638   3.070   4.654
 7526TIP3    H122519   2.548   3.074   4.621
 7526TIP3    H222520   2.630   3.032   4.741
 7527TIP3   OH222521   3.308   6.916   4.933
 7527TIP3    H122522   3.222   6.946   4.964
 7527TIP3    H222523   3.298   6.822   4.924
 7528TIP3   OH222524   1.833   1.195   2.576
 7528TIP3    H122525   1.856   1.235   2.492
 7528TIP3    H222526   1.900   1.227   2.637
 7529TIP3   OH222527   1.174   5.911   6.123
 7529TIP3    H122528   1.184   5.824   6.162
 7529TIP3    H222529   1.120   5.959   6.186
 7530TIP3   OH222530   0.429   2.950   0.147
 7530TIP3    H122531   0.479   2.969   0.227
 7530TIP3    H222532   0.413   2.856   0.150
 7531TIP3   OH222533   0.991   2.150   3.860
 7531TIP3    H122534   1.033   2.083   3.913
 7531TIP3    H222535   1.003   2.121   3.770
 7532TIP3   OH222536   7.260   6.440   3.695
 7532TIP3    H122537   7.177   6.484   3.715
 7532TIP3    H222538   7.318   6.466   3.766
 7533TIP3   OH222539   3.524   1.160   0.509
 7533TIP3    H122540   3.548   1.105   0.435
 7533TIP3    H222541   3.544   1.106   0.586
 7534TIP3   OH222542   6.125   7.767   5.890
 7534TIP3    H122543   6.086   7.731   5.970
 7534TIP3    H222544   6.138   7.860   5.910
 7535TIP3   OH222545   7.866   5.754   6.135
 7535TIP3    H122546   7.868   5.827   6.197
 7535TIP3    H222547   7.888   5.677   6.186
 7536TIP3   OH222548   6.170   0.693   1.799
 7536TIP3    H122549   6.184   0.711   1.706
 7536TIP3    H222550   6.156   0.779   1.838
 7537TIP3   OH222551   4.940   3.322   6.121
 7537TIP3    H122552   4.932   3.264   6.045
 7537TIP3    H222553   4.849   3.347   6.141
 7538TIP3   OH222554   7.010   6.838   0.893
 7538TIP3    H122555   6.997   6.746   0.913
 7538TIP3    H222556   7.007   6.843   0.797
 7539TIP3   OH222557   8.279   1.085   0.628
 7539TIP3    H122558   8.238   1.000   0.612
 7539TIP3    H222559   8.226   1.147   0.579
 7540TIP3   OH222560   7.547   5.868   6.219
 7540TIP3    H122561   7.582   5.956   6.233
 7540TIP3    H222562   7.624   5.811   6.218
 7541TIP3   OH222563   4.767   3.371   3.192
 7541TIP3    H122564   4.801   3.344   3.107
 7541TIP3    H222565   4.811   3.455   3.209
 7542TIP3   OH222566   4.571   7.423   3.408
 7542TIP3    H122567   4.553   7.493   3.471
 7542TIP3    H222568   4.560   7.342   3.458
 7543TIP3   OH222569   1.968   0.085   4.771
 7543TIP3    H122570   1.925   0.045   4.696
 7543TIP3    H222571   2.046   0.127   4.735
 7544TIP3   OH222572   7.682   7.621   3.419
 7544TIP3    H122573   7.700   7.550   3.479
 7544TIP3    H222574   7.716   7.591   3.335
 7545TIP3   OH222575   6.546   4.849   1.120
 7545TIP3    H122576   6.595   4.791   1.062
 7545TIP3    H222577   6.613   4.888   1.177
 7546TIP3   OH222578   4.722   5.903   1.809
 7546TIP3    H122579   4.809   5.862   1.804
 7546TIP3    H222580   4.678   5.875   1.729
 7547TIP3   OH222581   5.122   5.353   0.195
 7547TIP3    H122582   5.079   5.438   0.204
 7547TIP3    H222583   5.209   5.374   0.161
 7548TIP3   OH222584   5.527   5.272   5.482
 7548TIP3    H122585   5.510   5.352   5.532
 7548TIP3    H222586   5.440   5.238   5.461
 7549TIP3   OH222587   0.672   2.738   5.683
 7549TIP3    H122588   0.765   2.722   5.702
 7549TIP3    H222589   0.669   2.757   5.590
 7550TIP3   OH222590   3.051   1.944   4.509
 7550TIP3    H122591   3.047   2.009   4.578
 7550TIP3    H222592   2.981   1.882   4.529
 7551TIP3   OH222593   2.941   4.735   1.630
 7551TIP3    H122594   2.990   4.658   1.601
 7551TIP3    H222595   3.008   4.802   1.645
 7552TIP3   OH222596   2.108   6.133   2.983
 7552TIP3    H122597   2.029   6.187   2.988
 7552TIP3    H222598   2.115   6.094   3.071
 7553TIP3   OH222599   3.544   4.086   3.319
 7553TIP3    H122600   3.559   4.072   3.226
 7553TIP3    H222601   3.513   4.001   3.351
 7554TIP3   OH222602   0.274  -0.038   1.756
 7554TIP3    H122603   0.334  -0.004   1.689
 7554TIP3    H222604   0.267   0.033   1.820
 7555TIP3   OH222605   3.384   4.592   5.830
 7555TIP3    H122606   3.403   4.673   5.878
 7555TIP3    H222607   3.332   4.620   5.755
 7556TIP3   OH222608   0.345   1.671   5.613
 7556TIP3    H122609   0.407   1.737   5.582
 7556TIP3    H222610   0.268   1.682   5.556
 7557TIP3   OH222611   4.394   0.700   0.321
 7557TIP3    H122612   4.347   0.720   0.401
 7557TIP3    H222613   4.425   0.610   0.333
 7558TIP3   OH222614   0.435   3.967   4.129
 7558TIP3    H122615   0.462   4.032   4.194
 7558TIP3    H222616   0.355   3.929   4.165
 7559TIP3   OH222617   4.235   5.599   2.235
 7559TIP3    H122618   4.298   5.642   2.293
 7559TIP3    H222619   4.150   5.635   2.260
 7560TIP3   OH222620   8.242   5.041   4.018
 7560TIP3    H122621   8.174   4.974   4.030
 7560TIP3    H222622   8.276   5.056   4.106
 7561TIP3   OH222623   4.724   0.309   3.867
 7561TIP3    H122624   4.659   0.271   3.926
 7561TIP3    H222625   4.753   0.236   3.812
 7562TIP3   OH222626   4.649   7.658   6.098
 7562TIP3    H122627   4.732   7.616   6.122
 7562TIP3    H222628   4.631   7.718   6.171
 7563TIP3   OH222629   3.887   1.244   2.209
 7563TIP3    H122630   3.939   1.229   2.288
 7563TIP3    H222631   3.815   1.182   2.216
 7564TIP3   OH222632   4.674   1.290   2.538
 7564TIP3    H122633   4.588   1.321   2.510
 7564TIP3    H222634   4.665   1.276   2.632
 7565TIP3   OH222635   1.703   4.572   3.318
 7565TIP3    H122636   1.614   4.599   3.341
 7565TIP3    H222637   1.699   4.550   3.225
 7566TIP3   OH222638   0.154   0.443   3.245
 7566TIP3    H122639   0.244   0.415   3.260
 7566TIP3    H222640   0.162   0.534   3.215
 7567TIP3   OH222641   1.083   5.389   0.986
 7567TIP3    H122642   1.006   5.346   1.024
 7567TIP3    H222643   1.117   5.327   0.923
 7568TIP3   OH222644   1.819   0.265   5.213
 7568TIP3    H122645   1.745   0.242   5.157
 7568TIP3    H222646   1.880   0.309   5.154
 7569TIP3   OH222647   1.718   6.962   3.498
 7569TIP3    H122648   1.712   6.986   3.405
 7569TIP3    H222649   1.770   7.032   3.537
 7570TIP3   OH222650   5.886   6.986   1.016
 7570TIP3    H122651   5.894   7.026   0.930
 7570TIP3    H222652   5.794   6.995   1.039
 7571TIP3   OH222653   3.451   4.152   4.086
 7571TIP3    H122654   3.429   4.168   4.178
 7571TIP3    H222655   3.418   4.064   4.069
 7572TIP3   OH222656   6.254   6.063   0.693
 7572TIP3    H122657   6.348   6.065   0.710
 7572TIP3    H222658   6.214   6.059   0.780
 7573TIP3   OH222659   0.544   0.652   6.069
 7573TIP3    H122660   0.577   0.716   6.133
 7573TIP3    H222661   0.450   0.645   6.088
 7574TIP3   OH222662   7.682   5.384   1.615
 7574TIP3    H122663   7.697   5.479   1.613
 7574TIP3    H222664   7.665   5.365   1.707
 7575TIP3   OH222665   5.986   5.474   2.677
 7575TIP3    H122666   6.018   5.391   2.713
 7575TIP3    H222667   6.050   5.496   2.610
 7576TIP3   OH222668   6.037   0.154   5.453
 7576TIP3    H122669   5.964   0.105   5.417
 7576TIP3    H222670   6.016   0.246   5.435
 7577TIP3   OH222671   0.625   0.370   0.463
 7577TIP3    H122672   0.707   0.401   0.424
 7577TIP3    H222673   0.644   0.281   0.491
 7578TIP3   OH222674   0.870   4.992   4.775
 7578TIP3    H122675   0.905   4.972   4.861
 7578TIP3    H222676   0.779   4.961   4.778
 7579TIP3   OH222677   3.066   7.647   5.432
 7579TIP3    H122678   3.031   7.723   5.386
 7579TIP3    H222679   3.059   7.669   5.524
 7580TIP3   OH222680   2.514   6.534   0.363
 7580TIP3    H122681   2.457   6.542   0.287
 7580TIP3    H222682   2.518   6.439   0.380
 7581TIP3   OH222683   5.892   5.249   1.490
 7581TIP3    H122684   5.878   5.228   1.397
 7581TIP3    H222685   5.964   5.192   1.517
 7582TIP3   OH222686   5.663   3.165   3.986
 7582TIP3    H122687   5.580   3.208   3.964
 7582TIP3    H222688   5.695   3.131   3.903
 7583TIP3   OH222689   7.333   7.798   5.907
 7583TIP3    H122690   7.291   7.880   5.879
 7583TIP3    H222691   7.327   7.742   5.830
 7584TIP3   OH222692   4.645   7.338   6.695
 7584TIP3    H122693   4.610   7.347   6.783
 7584TIP3    H222694   4.611   7.414   6.648
 7585TIP3   OH222695   8.085   3.644   2.124
 7585TIP3    H122696   8.153   3.706   2.097
 7585TIP3    H222697   8.062   3.671   2.213
 7586TIP3   OH222698   2.657   1.267   6.205
 7586TIP3    H122699   2.621   1.324   6.137
 7586TIP3    H222700   2.582   1.220   6.240
 7587TIP3   OH222701   3.710   1.331   1.241
 7587TIP3    H122702   3.789   1.303   1.193
 7587TIP3    H222703   3.699   1.423   1.218
 7588TIP3   OH222704   5.280   5.796   1.884
 7588TIP3    H122705   5.234   5.787   1.967
 7588TIP3    H222706   5.353   5.856   1.903
 7589TIP3   OH222707   3.854   1.048   5.558
 7589TIP3    H122708   3.872   0.966   5.512
 7589TIP3    H222709   3.759   1.057   5.553
 7590TIP3   OH222710   8.062   2.476   6.704
 7590TIP3    H122711   8.097   2.389   6.683
 7590TIP3    H222712   7.969   2.471   6.680
 7591TIP3   OH222713   6.611   4.614   2.752
 7591TIP3    H122714   6.550   4.655   2.813
 7591TIP3    H222715   6.578   4.526   2.739
 7592TIP3   OH222716   2.535   5.617   3.495
 7592TIP3    H122717   2.506   5.644   3.583
 7592TIP3    H222718   2.515   5.693   3.440
 7593TIP3   OH222719   2.441   7.721   0.430
 7593TIP3    H122720   2.479   7.759   0.510
 7593TIP3    H222721   2.496   7.753   0.360
 7594TIP3   OH222722   3.133   3.836   6.837
 7594TIP3    H122723   3.211   3.819   6.784
 7594TIP3    H222724   3.092   3.750   6.846
 7595TIP3   OH222725   7.847   5.827   4.545
 7595TIP3    H122726   7.928   5.818   4.494
 7595TIP3    H222727   7.868   5.892   4.612
 7596TIP3   OH222728   2.697   1.534   4.339
 7596TIP3    H122729   2.706   1.598   4.409
 7596TIP3    H222730   2.686   1.450   4.384
 7597TIP3   OH222731   3.334   4.454   1.534
 7597TIP3    H122732   3.392   4.416   1.468
 7597TIP3    H222733   3.379   4.533   1.563
 7598TIP3   OH222734   4.317   3.794   3.402
 7598TIP3    H122735   4.235   3.806   3.354
 7598TIP3    H222736   4.306   3.846   3.482
 7599TIP3   OH222737   1.618   1.535   5.553
 7599TIP3    H122738   1.676   1.575   5.489
 7599TIP3    H222739   1.675   1.486   5.612
 7600TIP3   OH222740   2.907   0.682   5.544
 7600TIP3    H122741   2.909   0.710   5.453
 7600TIP3    H222742   2.917   0.762   5.595
 7601TIP3   OH222743   3.225   4.962   6.521
 7601TIP3    H122744   3.169   5.014   6.464
 7601TIP3    H222745   3.269   5.025   6.578
 7602TIP3   OH222746   6.818   6.738   3.068
 7602TIP3    H122747   6.793   6.779   3.151
 7602TIP3    H222748   6.896   6.687   3.090
 7603TIP3   OH222749   6.132   1.143   5.588
 7603TIP3    H122750   6.221   1.111   5.605
 7603TIP3    H222751   6.122   1.217   5.648
 7604TIP3   OH222752   2.683   5.953   1.090
 7604TIP3    H122753   2.774   5.975   1.108
 7604TIP3    H222754   2.682   5.857   1.085
 7605TIP3   OH222755   6.380   4.525   5.145
 7605TIP3    H122756   6.285   4.509   5.139
 7605TIP3    H222757   6.412   4.455   5.202
 7606TIP3   OH222758   4.665   7.097   1.550
 7606TIP3    H122759   4.581   7.059   1.528
 7606TIP3    H222760   4.679   7.073   1.642
 7607TIP3   OH222761   0.426   7.426   0.485
 7607TIP3    H122762   0.424   7.489   0.414
 7607TIP3    H222763   0.335   7.417   0.512
 7608TIP3   OH222764   0.534   3.727   1.730
 7608TIP3    H122765   0.517   3.633   1.739
 7608TIP3    H222766   0.613   3.742   1.782
 7609TIP3   OH222767   6.996   5.083   2.357
 7609TIP3    H122768   7.008   4.990   2.378
 7609TIP3    H222769   6.976   5.083   2.264
 7610TIP3   OH222770   7.523   7.163   1.919
 7610TIP3    H122771   7.617   7.182   1.912
 7610TIP3    H222772   7.484   7.244   1.950
 7611TIP3   OH222773   1.684   4.812   6.199
 7611TIP3    H122774   1.618   4.831   6.266
 7611TIP3    H222775   1.664   4.872   6.128
 7612TIP3   OH222776   1.317   3.934   2.203
 7612TIP3    H122777   1.270   3.893   2.130
 7612TIP3    H222778   1.256   3.998   2.238
 7613TIP3   OH222779   5.467   2.981   3.022
 7613TIP3    H122780   5.546   2.981   2.967
 7613TIP3    H222781   5.497   3.016   3.106
 7614TIP3   OH222782   6.158   0.745   0.474
 7614TIP3    H122783   6.156   0.835   0.507
 7614TIP3    H222784   6.112   0.694   0.541
 7615TIP3   OH222785   5.273   0.406   1.301
 7615TIP3    H122786   5.226   0.381   1.381
 7615TIP3    H222787   5.363   0.422   1.330
 7616TIP3   OH222788   1.651   7.479   1.658
 7616TIP3    H122789   1.569   7.455   1.615
 7616TIP3    H222790   1.696   7.396   1.671
 7617TIP3   OH222791   5.013   7.063   0.689
 7617TIP3    H122792   5.103   7.059   0.659
 7617TIP3    H222793   4.963   7.016   0.622
 7618TIP3   OH222794   3.548   7.199   1.625
 7618TIP3    H122795   3.605   7.152   1.685
 7618TIP3    H222796   3.464   7.154   1.632
 7619TIP3   OH222797   0.540   0.795   1.903
 7619TIP3    H122798   0.618   0.740   1.902
 7619TIP3    H222799   0.484   0.756   1.970
 7620TIP3   OH222800   7.082   3.343   2.630
 7620TIP3    H122801   7.090   3.388   2.714
 7620TIP3    H222802   6.995   3.305   2.631
 7621TIP3   OH222803   1.899   6.983   0.473
 7621TIP3    H122804   1.889   6.888   0.469
 7621TIP3    H222805   1.980   7.001   0.427
 7622TIP3   OH222806   0.892   7.463   5.973
 7622TIP3    H122807   0.873   7.474   5.879
 7622TIP3    H222808   0.808   7.480   6.016
 7623TIP3   OH222809   0.421   5.298   4.406
 7623TIP3    H122810   0.376   5.281   4.323
 7623TIP3    H222811   0.425   5.393   4.413
 7624TIP3   OH222812   1.979   1.083   3.276
 7624TIP3    H122813   2.017   0.996   3.277
 7624TIP3    H222814   1.905   1.078   3.337
 7625TIP3   OH222815   7.590   3.118   3.912
 7625TIP3    H122816   7.635   3.174   3.850
 7625TIP3    H222817   7.597   3.165   3.996
 7626TIP3   OH222818   7.716   0.625   3.701
 7626TIP3    H122819   7.742   0.534   3.709
 7626TIP3    H222820   7.793   0.670   3.667
 7627TIP3   OH222821   0.893   4.550   6.452
 7627TIP3    H122822   0.956   4.621   6.465
 7627TIP3    H222823   0.906   4.492   6.527
 7628TIP3   OH222824   5.692   7.157   4.768
 7628TIP3    H122825   5.677   7.063   4.780
 7628TIP3    H222826   5.713   7.167   4.675
 7629TIP3   OH222827   1.604   0.113   5.872
 7629TIP3    H122828   1.535   0.179   5.883
 7629TIP3    H222829   1.671   0.157   5.821
 7630TIP3   OH222830   5.206   2.905   5.614
 7630TIP3    H122831   5.159   2.869   5.538
 7630TIP3    H222832   5.138   2.941   5.670
 7631TIP3   OH222833   4.092   1.399   4.819
 7631TIP3    H122834   4.144   1.400   4.738
 7631TIP3    H222835   4.093   1.490   4.849
 7632TIP3   OH222836   6.159   1.108   0.897
 7632TIP3    H122837   6.221   1.124   0.825
 7632TIP3    H222838   6.087   1.168   0.879
 7633TIP3   OH222839   5.909   0.847   0.245
 7633TIP3    H122840   5.824   0.871   0.207
 7633TIP3    H222841   5.890   0.770   0.299
 7634TIP3   OH222842   3.673   3.767   2.974
 7634TIP3    H122843   3.602   3.814   3.018
 7634TIP3    H222844   3.639   3.749   2.886
 7635TIP3   OH222845   1.939   1.832   1.618
 7635TIP3    H122846   2.004   1.829   1.689
 7635TIP3    H222847   1.938   1.743   1.584
 7636TIP3   OH222848   3.788   7.763   2.242
 7636TIP3    H122849   3.712   7.764   2.300
 7636TIP3    H222850   3.791   7.675   2.206
 7637TIP3   OH222851   1.523   0.977   4.430
 7637TIP3    H122852   1.514   0.985   4.525
 7637TIP3    H222853   1.612   0.946   4.417
 7638TIP3   OH222854   6.431   2.156   5.771
 7638TIP3    H122855   6.469   2.069   5.770
 7638TIP3    H222856   6.366   2.155   5.701
 7639TIP3   OH222857   5.891   5.378   1.107
 7639TIP3    H122858   5.982   5.359   1.087
 7639TIP3    H222859   5.860   5.301   1.155
 7640TIP3   OH222860   7.354   7.086   4.010
 7640TIP3    H122861   7.316   7.119   3.929
 7640TIP3    H222862   7.445   7.116   4.009
 7641TIP3   OH222863   4.509   6.233   5.452
 7641TIP3    H122864   4.414   6.226   5.450
 7641TIP3    H222865   4.530   6.302   5.389
 7642TIP3   OH222866   4.693   4.044   3.734
 7642TIP3    H122867   4.733   4.085   3.811
 7642TIP3    H222868   4.626   4.107   3.706
 7643TIP3   OH222869   7.913   3.409   5.221
 7643TIP3    H122870   7.935   3.316   5.217
 7643TIP3    H222871   7.817   3.412   5.211
 7644TIP3   OH222872   7.043   6.375   0.447
 7644TIP3    H122873   6.986   6.299   0.445
 7644TIP3    H222874   7.081   6.380   0.359
 7645TIP3   OH222875   2.838   4.868   3.594
 7645TIP3    H122876   2.826   4.857   3.689
 7645TIP3    H222877   2.922   4.913   3.585
 7646TIP3   OH222878   0.701   6.672   0.561
 7646TIP3    H122879   0.751   6.693   0.482
 7646TIP3    H222880   0.755   6.703   0.633
 7647TIP3   OH222881   0.594   0.990   4.515
 7647TIP3    H122882   0.616   1.070   4.563
 7647TIP3    H222883   0.534   0.943   4.572
 7648TIP3   OH222884   3.014   1.043   6.634
 7648TIP3    H122885   2.989   0.960   6.674
 7648TIP3    H222886   3.040   1.019   6.544
 7649TIP3   OH222887   4.230   0.754   0.585
 7649TIP3    H122888   4.290   0.764   0.658
 7649TIP3    H222889   4.203   0.662   0.588
 7650TIP3   OH222890   8.038   6.185   0.525
 7650TIP3    H122891   7.995   6.107   0.490
 7650TIP3    H222892   8.056   6.164   0.616
 7651TIP3   OH222893   8.196   2.083   1.734
 7651TIP3    H122894   8.220   2.175   1.744
 7651TIP3    H222895   8.269   2.035   1.774
 7652TIP3   OH222896   6.156   2.935   5.063
 7652TIP3    H122897   6.148   3.014   5.116
 7652TIP3    H222898   6.069   2.895   5.066
 7653TIP3   OH222899   7.901   4.571   3.930
 7653TIP3    H122900   7.929   4.492   3.884
 7653TIP3    H222901   7.817   4.547   3.970
 7654TIP3   OH222902   3.070   1.120   4.552
 7654TIP3    H122903   3.033   1.186   4.493
 7654TIP3    H222904   3.135   1.074   4.498
 7655TIP3   OH222905   0.195   1.613   2.131
 7655TIP3    H122906   0.130   1.564   2.081
 7655TIP3    H222907   0.150   1.638   2.212
 7656TIP3   OH222908   5.544   2.101   2.502
 7656TIP3    H122909   5.571   2.117   2.411
 7656TIP3    H222910   5.513   2.186   2.533
 7657TIP3   OH222911   6.064   3.768   3.090
 7657TIP3    H122912   6.078   3.728   3.176
 7657TIP3    H222913   5.976   3.804   3.094
 7658TIP3   OH222914   7.737   6.577   4.658
 7658TIP3    H122915   7.795   6.543   4.590
 7658TIP3    H222916   7.774   6.543   4.740
 7659TIP3   OH222917   2.062   4.747   3.136
 7659TIP3    H122918   2.045   4.668   3.086
 7659TIP3    H222919   2.155   4.744   3.156
 7660TIP3   OH222920   2.552   7.518   0.268
 7660TIP3    H122921   2.525   7.547   0.355
 7660TIP3    H222922   2.638   7.557   0.255
 7661TIP3   OH222923   0.244   6.706   4.466
 7661TIP3    H122924   0.246   6.695   4.371
 7661TIP3    H222925   0.173   6.769   4.482
 7662TIP3   OH222926   3.551   4.335   4.453
 7662TIP3    H122927   3.541   4.398   4.382
 7662TIP3    H222928   3.625   4.280   4.426
 7663TIP3   OH222929   4.020   5.341   1.679
 7663TIP3    H122930   4.058   5.417   1.724
 7663TIP3    H222931   3.977   5.291   1.749
 7664TIP3   OH222932   0.361   2.306   2.941
 7664TIP3    H122933   0.380   2.389   2.896
 7664TIP3    H222934   0.266   2.306   2.952
 7665TIP3   OH222935   7.643   5.379   6.853
 7665TIP3    H122936   7.559   5.400   6.813
 7665TIP3    H222937   7.635   5.410   6.943
 7666TIP3   OH222938   2.765   2.936   5.413
 7666TIP3    H122939   2.794   2.851   5.381
 7666TIP3    H222940   2.845   2.989   5.415
 7667TIP3   OH222941   4.251   1.156   0.534
 7667TIP3    H122942   4.165   1.197   0.541
 7667TIP3    H222943   4.293   1.200   0.460
 7668TIP3   OH222944   2.015   6.873   2.922
 7668TIP3    H122945   2.076   6.802   2.942
 7668TIP3    H222946   1.982   6.853   2.834
 7669TIP3   OH222947   3.088   0.153   2.058
 7669TIP3    H122948   3.012   0.193   2.016
 7669TIP3    H222949   3.065   0.060   2.064
 7670TIP3   OH222950   6.115   3.111   0.071
 7670TIP3    H122951   6.092   3.069   0.155
 7670TIP3    H222952   6.069   3.194   0.073
 7671TIP3   OH222953   4.151   0.554   3.109
 7671TIP3    H122954   4.177   0.488   3.046
 7671TIP3    H222955   4.075   0.597   3.070
 7672TIP3   OH222956   5.027   5.890   5.331
 7672TIP3    H122957   5.086   5.965   5.325
 7672TIP3    H222958   5.079   5.821   5.371
 7673TIP3   OH222959   4.568   6.106   3.193
 7673TIP3    H122960   4.660   6.089   3.213
 7673TIP3    H222961   4.569   6.185   3.139
 7674TIP3   OH222962   3.212   1.091   3.044
 7674TIP3    H122963   3.262   1.143   2.981
 7674TIP3    H222964   3.253   1.110   3.128
 7675TIP3   OH222965   1.527   3.892   5.983
 7675TIP3    H122966   1.468   3.835   6.032
 7675TIP3    H222967   1.544   3.845   5.901
 7676TIP3   OH222968   0.121   4.561   5.623
 7676TIP3    H122969   0.115   4.656   5.625
 7676TIP3    H222970   0.111   4.534   5.715
 7677TIP3   OH222971   3.155   1.041   1.420
 7677TIP3    H122972   3.157   1.026   1.514
 7677TIP3    H222973   3.115   1.127   1.410
 7678TIP3   OH222974   6.916   2.060   1.022
 7678TIP3    H122975   6.941   1.975   0.988
 7678TIP3    H222976   6.972   2.122   0.976
 7679TIP3   OH222977   4.110   1.356   6.791
 7679TIP3    H122978   4.034   1.407   6.762
 7679TIP3    H222979   4.156   1.332   6.710
 7680TIP3   OH222980   7.439   1.995   6.106
 7680TIP3    H122981   7.518   1.964   6.061
 7680TIP3    H222982   7.391   1.915   6.129
 7681TIP3   OH222983   2.775   2.633   5.985
 7681TIP3    H122984   2.841   2.695   5.953
 7681TIP3    H222985   2.705   2.689   6.020
 7682TIP3   OH222986   3.776   4.775   2.288
 7682TIP3    H122987   3.689   4.742   2.267
 7682TIP3    H222988   3.836   4.712   2.248
 7683TIP3   OH222989   6.640   4.964   1.770
 7683TIP3    H122990   6.618   5.034   1.832
 7683TIP3    H222991   6.557   4.945   1.726
 7684TIP3   OH222992   4.155   7.963   2.201
 7684TIP3    H122993   4.203   7.888   2.165
 7684TIP3    H222994   4.100   7.925   2.269
 7685TIP3   OH222995   6.195   0.963   6.838
 7685TIP3    H122996   6.251   0.890   6.812
 7685TIP3    H222997   6.156   0.935   6.921
 7686TIP3   OH222998   5.326   0.103   5.052
 7686TIP3    H122999   5.280   0.170   5.002
 7686TIP3    H223000   5.414   0.101   5.014
 7687TIP3   OH223001   6.325   1.865   3.643
 7687TIP3    H123002   6.400   1.910   3.683
 7687TIP3    H223003   6.352   1.847   3.553
 7688TIP3   OH223004   5.665   2.025   3.735
 7688TIP3    H123005   5.730   1.988   3.795
 7688TIP3    H223006   5.716   2.064   3.665
 7689TIP3   OH223007   1.135   0.063   1.786
 7689TIP3    H123008   1.090   0.048   1.702
 7689TIP3    H223009   1.065   0.061   1.851
 7690TIP3   OH223010   0.293   2.314   1.358
 7690TIP3    H123011   0.272   2.242   1.299
 7690TIP3    H223012   0.282   2.278   1.446
 7691TIP3   OH223013   6.037   2.597   6.413
 7691TIP3    H123014   5.971   2.651   6.369
 7691TIP3    H223015   6.104   2.584   6.347
 7692TIP3   OH223016   1.452   2.640   0.630
 7692TIP3    H123017   1.496   2.615   0.711
 7692TIP3    H223018   1.518   2.630   0.562
 7693TIP3   OH223019   6.832   4.424   2.550
 7693TIP3    H123020   6.824   4.328   2.553
 7693TIP3    H223021   6.914   4.443   2.594
 7694TIP3   OH223022   7.717   4.074   4.418
 7694TIP3    H123023   7.803   4.115   4.409
 7694TIP3    H223024   7.723   4.022   4.498
 7695TIP3   OH223025   3.789   7.512   1.845
 7695TIP3    H123026   3.709   7.554   1.814
 7695TIP3    H223027   3.765   7.420   1.857
 7696TIP3   OH223028   6.776   3.501   4.331
 7696TIP3    H123029   6.746   3.417   4.366
 7696TIP3    H223030   6.827   3.540   4.402
 7697TIP3   OH223031   3.018   2.882   0.277
 7697TIP3    H123032   2.954   2.846   0.339
 7697TIP3    H223033   3.103   2.861   0.316
 7698TIP3   OH223034   3.307   1.119   0.044
 7698TIP3    H123035   3.279   1.028   0.054
 7698TIP3    H223036   3.230   1.171   0.069
 7699TIP3   OH223037   4.247   0.781   6.662
 7699TIP3    H123038   4.197   0.703   6.638
 7699TIP3    H223039   4.194   0.854   6.631
 7700TIP3   OH223040   5.475   3.713   4.365
 7700TIP3    H123041   5.448   3.701   4.274
 7700TIP3    H223042   5.470   3.807   4.379
 7701TIP3   OH223043   3.925   5.894   4.575
 7701TIP3    H123044   3.946   5.975   4.529
 7701TIP3    H223045   4.010   5.857   4.599
 7702TIP3   OH223046   3.058   0.743   2.232
 7702TIP3    H123047   3.040   0.837   2.230
 7702TIP3    H223048   3.120   0.729   2.160
 7703TIP3   OH223049   7.081   3.370   1.952
 7703TIP3    H123050   7.176   3.363   1.963
 7703TIP3    H223051   7.047   3.289   1.990
 7704TIP3   OH223052   7.875   2.016   0.066
 7704TIP3    H123053   7.800   1.957   0.071
 7704TIP3    H223054   7.895   2.037   0.158
 7705TIP3   OH223055   4.905   6.996   3.688
 7705TIP3    H123056   4.918   7.086   3.718
 7705TIP3    H223057   4.837   7.002   3.621
 7706TIP3   OH223058   5.331   7.041   3.842
 7706TIP3    H123059   5.279   7.014   3.917
 7706TIP3    H223060   5.298   6.988   3.769
 7707TIP3   OH223061   3.805   5.487   1.014
 7707TIP3    H123062   3.718   5.452   1.032
 7707TIP3    H223063   3.789   5.561   0.955
 7708TIP3   OH223064   6.930   0.310   2.149
 7708TIP3    H123065   6.871   0.322   2.223
 7708TIP3    H223066   6.946   0.215   2.147
 7709TIP3   OH223067   6.407   3.157   4.725
 7709TIP3    H123068   6.472   3.101   4.683
 7709TIP3    H223069   6.335   3.097   4.747
 7710TIP3   OH223070   2.351   7.782   4.898
 7710TIP3    H123071   2.346   7.874   4.873
 7710TIP3    H223072   2.389   7.782   4.985
 7711TIP3   OH223073   8.303   4.950   4.955
 7711TIP3    H123074   8.321   4.881   4.891
 7711TIP3    H223075   8.336   5.030   4.915
 7712TIP3   OH223076   2.290   5.645   0.133
 7712TIP3    H123077   2.268   5.637   0.041
 7712TIP3    H223078   2.207   5.636   0.179
 7713TIP3   OH223079   7.045   0.783   2.408
 7713TIP3    H123080   7.089   0.759   2.490
 7713TIP3    H223081   7.047   0.878   2.407
 7714TIP3   OH223082   6.987   6.095   1.363
 7714TIP3    H123083   6.934   6.133   1.434
 7714TIP3    H223084   7.003   6.169   1.303
 7715TIP3   OH223085   3.118   6.956   3.624
 7715TIP3    H123086   3.209   6.955   3.656
 7715TIP3    H223087   3.084   7.041   3.653
 7716TIP3   OH223088   1.745   5.825   0.792
 7716TIP3    H123089   1.839   5.807   0.802
 7716TIP3    H223090   1.736   5.918   0.813
 7717TIP3   OH223091   6.607   6.006   5.509
 7717TIP3    H123092   6.645   6.093   5.503
 7717TIP3    H223093   6.612   5.971   5.420
 7718TIP3   OH223094   0.619   7.363   6.670
 7718TIP3    H123095   0.641   7.422   6.597
 7718TIP3    H223096   0.534   7.393   6.700
 7719TIP3   OH223097   0.091   2.841   6.366
 7719TIP3    H123098   0.174   2.821   6.409
 7719TIP3    H223099   0.027   2.841   6.438
 7720TIP3   OH223100   2.357   1.546   1.332
 7720TIP3    H123101   2.440   1.507   1.358
 7720TIP3    H223102   2.368   1.568   1.239
 7721TIP3   OH223103   4.515   5.072   4.344
 7721TIP3    H123104   4.536   5.156   4.384
 7721TIP3    H223105   4.515   5.089   4.250
 7722TIP3   OH223106   6.451   3.640   3.955
 7722TIP3    H123107   6.458   3.681   3.869
 7722TIP3    H223108   6.358   3.623   3.966
 7723TIP3   OH223109   4.844   5.831   4.738
 7723TIP3    H123110   4.753   5.839   4.764
 7723TIP3    H223111   4.892   5.823   4.820
 7724TIP3   OH223112   5.238   7.138   3.414
 7724TIP3    H123113   5.194   7.220   3.392
 7724TIP3    H223114   5.326   7.163   3.439
 7725TIP3   OH223115   3.199   0.714   2.005
 7725TIP3    H123116   3.140   0.679   1.938
 7725TIP3    H223117   3.284   0.675   1.985
 7726TIP3   OH223118   5.663   0.576   0.177
 7726TIP3    H123119   5.687   0.605   0.089
 7726TIP3    H223120   5.597   0.639   0.205
 7727TIP3   OH223121   6.078   1.590   2.188
 7727TIP3    H123122   6.029   1.557   2.263
 7727TIP3    H223123   6.165   1.550   2.197
 7728TIP3   OH223124   6.704   5.564   5.334
 7728TIP3    H123125   6.793   5.592   5.356
 7728TIP3    H223126   6.657   5.563   5.417
 7729TIP3   OH223127   5.429   5.406   0.249
 7729TIP3    H123128   5.503   5.415   0.189
 7729TIP3    H223129   5.415   5.311   0.255
 7730TIP3   OH223130   5.990   2.533   5.932
 7730TIP3    H123131   6.062   2.555   5.873
 7730TIP3    H223132   5.951   2.617   5.956
 7731TIP3   OH223133   7.450   0.340   0.839
 7731TIP3    H123134   7.443   0.310   0.929
 7731TIP3    H223135   7.371   0.393   0.825
 7732TIP3   OH223136   2.616   5.662   1.101
 7732TIP3    H123137   2.674   5.609   1.046
 7732TIP3    H223138   2.529   5.625   1.087
 7733TIP3   OH223139   4.542   4.460   3.213
 7733TIP3    H123140   4.478   4.503   3.269
 7733TIP3    H223141   4.625   4.505   3.232
 7734TIP3   OH223142   6.034   3.636   2.253
 7734TIP3    H123143   6.112   3.680   2.219
 7734TIP3    H223144   6.009   3.687   2.330
 7735TIP3   OH223145   7.819   0.477   0.211
 7735TIP3    H123146   7.831   0.403   0.270
 7735TIP3    H223147   7.763   0.537   0.259
 7736TIP3   OH223148   2.271   3.207   2.772
 7736TIP3    H123149   2.350   3.209   2.718
 7736TIP3    H223150   2.289   3.270   2.843
 7737TIP3   OH223151   0.723   3.071   3.287
 7737TIP3    H123152   0.722   3.036   3.198
 7737TIP3    H223153   0.774   3.152   3.280
 7738TIP3   OH223154   2.644   6.130   6.786
 7738TIP3    H123155   2.630   6.173   6.870
 7738TIP3    H223156   2.601   6.188   6.722
 7739TIP3   OH223157   3.531   2.412   6.484
 7739TIP3    H123158   3.440   2.438   6.491
 7739TIP3    H223159   3.528   2.320   6.459
 7740TIP3   OH223160   4.424   2.574   2.124
 7740TIP3    H123161   4.385   2.511   2.064
 7740TIP3    H223162   4.517   2.550   2.127
 7741TIP3   OH223163   4.860   5.421   5.786
 7741TIP3    H123164   4.857   5.505   5.832
 7741TIP3    H223165   4.776   5.380   5.806
 7742TIP3   OH223166   2.449   5.977   0.622
 7742TIP3    H123167   2.537   5.954   0.654
 7742TIP3    H223168   2.428   5.908   0.559
 7743TIP3   OH223169   0.375   3.245   5.484
 7743TIP3    H123170   0.373   3.340   5.476
 7743TIP3    H223171   0.400   3.213   5.397
 7744TIP3   OH223172   1.320   6.964   3.389
 7744TIP3    H123173   1.384   6.974   3.319
 7744TIP3    H223174   1.248   6.915   3.350
 7745TIP3   OH223175   1.677   2.738   4.606
 7745TIP3    H123176   1.604   2.695   4.651
 7745TIP3    H223177   1.743   2.670   4.597
 7746TIP3   OH223178   1.842   0.094   6.198
 7746TIP3    H123179   1.778   0.023   6.204
 7746TIP3    H223180   1.833   0.127   6.108
 7747TIP3   OH223181   7.463   4.986   2.751
 7747TIP3    H123182   7.368   4.989   2.766
 7747TIP3    H223183   7.482   4.893   2.736
 7748TIP3   OH223184   3.079   1.804   3.975
 7748TIP3    H123185   3.020   1.854   4.032
 7748TIP3    H223186   3.023   1.738   3.935
 7749TIP3   OH223187   2.428   4.543   4.116
 7749TIP3    H123188   2.400   4.634   4.119
 7749TIP3    H223189   2.422   4.513   4.207
 7750TIP3   OH223190   4.319   2.602   3.556
 7750TIP3    H123191   4.275   2.579   3.474
 7750TIP3    H223192   4.327   2.697   3.554
 7751TIP3   OH223193   1.481   1.986   5.080
 7751TIP3    H123194   1.451   1.999   4.989
 7751TIP3    H223195   1.413   1.931   5.119
 7752TIP3   OH223196   7.595   4.466   3.096
 7752TIP3    H123197   7.647   4.390   3.067
 7752TIP3    H223198   7.617   4.535   3.034
 7753TIP3   OH223199   0.198   5.042   0.456
 7753TIP3    H123200   0.203   5.065   0.363
 7753TIP3    H223201   0.105   5.046   0.476
 7754TIP3   OH223202   0.159   3.767   5.969
 7754TIP3    H123203   0.067   3.750   5.951
 7754TIP3    H223204   0.202   3.682   5.956
 7755TIP3   OH223205   4.581   2.580   3.691
 7755TIP3    H123206   4.524   2.607   3.619
 7755TIP3    H223207   4.621   2.498   3.662
 7756TIP3   OH223208   6.214   3.645   2.603
 7756TIP3    H123209   6.213   3.577   2.536
 7756TIP3    H223210   6.175   3.603   2.680
 7757TIP3   OH223211   3.091   2.690   2.348
 7757TIP3    H123212   3.046   2.767   2.314
 7757TIP3    H223213   3.023   2.639   2.392
 7758TIP3   OH223214   7.637   0.511   4.417
 7758TIP3    H123215   7.692   0.447   4.462
 7758TIP3    H223216   7.593   0.461   4.348
 7759TIP3   OH223217   1.166   7.502   0.490
 7759TIP3    H123218   1.127   7.586   0.514
 7759TIP3    H223219   1.249   7.525   0.449
 7760TIP3   OH223220   4.474   5.241   5.573
 7760TIP3    H123221   4.502   5.331   5.556
 7760TIP3    H223222   4.437   5.243   5.661
 7761TIP3   OH223223   6.399   3.037   0.696
 7761TIP3    H123224   6.418   3.103   0.629
 7761TIP3    H223225   6.361   3.086   0.769
 7762TIP3   OH223226   8.028   0.842   0.335
 7762TIP3    H123227   8.017   0.931   0.304
 7762TIP3    H223228   7.983   0.841   0.420
 7763TIP3   OH223229   7.211   6.251   0.188
 7763TIP3    H123230   7.234   6.302   0.111
 7763TIP3    H223231   7.139   6.195   0.160
 7764TIP3   OH223232   2.385   6.904   3.273
 7764TIP3    H123233   2.370   6.984   3.324
 7764TIP3    H223234   2.481   6.896   3.271
 7765TIP3   OH223235   3.384   5.130   0.587
 7765TIP3    H123236   3.355   5.045   0.553
 7765TIP3    H223237   3.310   5.162   0.638
 7766TIP3   OH223238   0.259   2.624   0.586
 7766TIP3    H123239   0.340   2.658   0.549
 7766TIP3    H223240   0.261   2.530   0.565
 7767TIP3   OH223241   1.963   7.442   0.991
 7767TIP3    H123242   2.026   7.512   1.010
 7767TIP3    H223243   2.018   7.367   0.967
 7768TIP3   OH223244   6.463   1.492   0.814
 7768TIP3    H123245   6.456   1.525   0.725
 7768TIP3    H223246   6.553   1.459   0.820
 7769TIP3   OH223247   6.296   0.339   6.573
 7769TIP3    H123248   6.304   0.250   6.539
 7769TIP3    H223249   6.216   0.339   6.625
 7770TIP3   OH223250   0.131   7.152   0.371
 7770TIP3    H123251   0.145   7.228   0.428
 7770TIP3    H223252   0.065   7.100   0.417
 7771TIP3   OH223253   1.754   3.863   4.401
 7771TIP3    H123254   1.670   3.907   4.410
 7771TIP3    H223255   1.737   3.791   4.341
 7772TIP3   OH223256   1.727   3.628   1.373
 7772TIP3    H123257   1.673   3.640   1.295
 7772TIP3    H223258   1.812   3.598   1.340
 7773TIP3   OH223259   5.325   6.953   1.205
 7773TIP3    H123260   5.336   7.005   1.125
 7773TIP3    H223261   5.233   6.926   1.205
 7774TIP3   OH223262   5.479   0.334   4.805
 7774TIP3    H123263   5.472   0.340   4.710
 7774TIP3    H223264   5.491   0.424   4.835
 7775TIP3   OH223265   0.408   1.137   6.415
 7775TIP3    H123266   0.331   1.085   6.393
 7775TIP3    H223267   0.410   1.138   6.510
 7776TIP3   OH223268   5.503   1.152   3.922
 7776TIP3    H123269   5.442   1.146   3.848
 7776TIP3    H223270   5.577   1.097   3.896
 7777TIP3   OH223271   5.116   6.203   1.954
 7777TIP3    H123272   5.046   6.138   1.941
 7777TIP3    H223273   5.070   6.287   1.957
 7778TIP3   OH223274   0.414   4.381   0.117
 7778TIP3    H123275   0.348   4.432   0.163
 7778TIP3    H223276   0.395   4.290   0.141
 7779TIP3   OH223277   2.733   3.133   3.144
 7779TIP3    H123278   2.736   3.044   3.181
 7779TIP3    H223279   2.808   3.178   3.184
 7780TIP3   OH223280   7.199   1.380   1.613
 7780TIP3    H123281   7.277   1.432   1.633
 7780TIP3    H223282   7.204   1.366   1.519
 7781TIP3   OH223283   7.389   7.845   1.719
 7781TIP3    H123284   7.476   7.830   1.757
 7781TIP3    H223285   7.398   7.929   1.673
 7782TIP3   OH223286   1.482   6.043   3.437
 7782TIP3    H123287   1.569   6.012   3.410
 7782TIP3    H223288   1.498   6.090   3.519
 7783TIP3   OH223289   6.905   5.058   1.762
 7783TIP3    H123290   6.950   4.979   1.732
 7783TIP3    H223291   6.822   5.059   1.713
 7784TIP3   OH223292   2.502   4.971   0.797
 7784TIP3    H123293   2.540   5.030   0.863
 7784TIP3    H223294   2.577   4.942   0.745
 7785TIP3   OH223295   7.875   2.718   2.290
 7785TIP3    H123296   7.869   2.733   2.196
 7785TIP3    H223297   7.878   2.806   2.328
 7786TIP3   OH223298   5.245   0.236   1.827
 7786TIP3    H123299   5.223   0.236   1.920
 7786TIP3    H223300   5.183   0.297   1.787
 7787TIP3   OH223301   1.915   5.877   2.965
 7787TIP3    H123302   1.937   5.906   3.053
 7787TIP3    H223303   1.895   5.784   2.974
 7788TIP3   OH223304   3.840   3.702   1.338
 7788TIP3    H123305   3.833   3.608   1.321
 7788TIP3    H223306   3.906   3.709   1.407
 7789TIP3   OH223307   2.726   4.178   5.953
 7789TIP3    H123308   2.791   4.245   5.931
 7789TIP3    H223309   2.771   4.118   6.012
 7790TIP3   OH223310   7.349   3.337   0.806
 7790TIP3    H123311   7.427   3.371   0.850
 7790TIP3    H223312   7.375   3.252   0.773
 7791TIP3   OH223313   0.621   5.760   5.545
 7791TIP3    H123314   0.689   5.698   5.520
 7791TIP3    H223315   0.661   5.813   5.614
 7792TIP3   OH223316   8.066   7.012   4.920
 7792TIP3    H123317   8.127   7.042   4.988
 7792TIP3    H223318   8.122   6.983   4.849
 7793TIP3   OH223319   3.804   1.119   3.477
 7793TIP3    H123320   3.822   1.188   3.540
 7793TIP3    H223321   3.885   1.068   3.473
 7794TIP3   OH223322   3.086   4.445   5.152
 7794TIP3    H123323   3.051   4.513   5.209
 7794TIP3    H223324   3.130   4.384   5.211
 7795TIP3   OH223325   2.465   5.158   1.294
 7795TIP3    H123326   2.470   5.247   1.258
 7795TIP3    H223327   2.475   5.170   1.389
 7796TIP3   OH223328   7.322   4.548   6.083
 7796TIP3    H123329   7.261   4.619   6.063
 7796TIP3    H223330   7.357   4.522   5.998
 7797TIP3   OH223331   7.750   3.093   6.082
 7797TIP3    H123332   7.765   3.002   6.109
 7797TIP3    H223333   7.832   3.137   6.102
 7798TIP3   OH223334   4.055   1.735   0.366
 7798TIP3    H123335   3.964   1.731   0.394
 7798TIP3    H223336   4.094   1.654   0.400
 7799TIP3   OH223337   5.276   5.763   0.459
 7799TIP3    H123338   5.293   5.847   0.501
 7799TIP3    H223339   5.350   5.751   0.399
 7800TIP3   OH223340   1.585   3.986   1.397
 7800TIP3    H123341   1.539   4.064   1.428
 7800TIP3    H223342   1.657   3.974   1.459
 7801TIP3   OH223343   6.393   4.298   5.849
 7801TIP3    H123344   6.429   4.305   5.761
 7801TIP3    H223345   6.350   4.212   5.850
 7802TIP3   OH223346   1.684   4.376   4.604
 7802TIP3    H123347   1.662   4.348   4.693
 7802TIP3    H223348   1.779   4.361   4.598
 7803TIP3   OH223349   6.791   1.625   2.380
 7803TIP3    H123350   6.810   1.716   2.399
 7803TIP3    H223351   6.865   1.576   2.418
 7804TIP3   OH223352   0.208   4.503   6.256
 7804TIP3    H123353   0.205   4.516   6.161
 7804TIP3    H223354   0.133   4.447   6.275
 7805TIP3   OH223355   5.352   2.044   4.132
 7805TIP3    H123356   5.371   1.956   4.101
 7805TIP3    H223357   5.411   2.057   4.206
 7806TIP3   OH223358   4.846   3.104   0.264
 7806TIP3    H123359   4.928   3.060   0.242
 7806TIP3    H223360   4.868   3.197   0.267
 7807TIP3   OH223361   7.314   4.570   4.756
 7807TIP3    H123362   7.230   4.609   4.732
 7807TIP3    H223363   7.303   4.543   4.847
 7808TIP3   OH223364   3.338   4.512   2.066
 7808TIP3    H123365   3.247   4.514   2.037
 7808TIP3    H223366   3.336   4.466   2.149
 7809TIP3   OH223367   7.971   5.498   2.989
 7809TIP3    H123368   7.985   5.490   2.895
 7809TIP3    H223369   8.048   5.544   3.022
 7810TIP3   OH223370   4.034   2.507   4.735
 7810TIP3    H123371   4.045   2.527   4.828
 7810TIP3    H223372   4.106   2.447   4.715
 7811TIP3   OH223373   1.217   7.238   1.584
 7811TIP3    H123374   1.300   7.191   1.584
 7811TIP3    H223375   1.198   7.254   1.676
 7812TIP3   OH223376   1.003   2.776   3.738
 7812TIP3    H123377   0.968   2.802   3.653
 7812TIP3    H223378   0.935   2.800   3.801
 7813TIP3   OH223379   4.399   5.712   5.053
 7813TIP3    H123380   4.390   5.627   5.097
 7813TIP3    H223381   4.355   5.700   4.969
 7814TIP3   OH223382   5.485   0.922   4.185
 7814TIP3    H123383   5.565   0.888   4.225
 7814TIP3    H223384   5.443   0.972   4.255
 7815TIP3   OH223385   8.127   6.318   3.755
 7815TIP3    H123386   8.088   6.332   3.842
 7815TIP3    H223387   8.064   6.263   3.709
 7816TIP3   OH223388   2.710   0.047   3.250
 7816TIP3    H123389   2.706   0.001   3.166
 7816TIP3    H223390   2.625   0.031   3.290
 7817TIP3   OH223391   3.333   1.644   6.263
 7817TIP3    H123392   3.340   1.660   6.357
 7817TIP3    H223393   3.406   1.584   6.244
 7818TIP3   OH223394   7.917   0.274   6.211
 7818TIP3    H123395   7.965   0.330   6.150
 7818TIP3    H223396   7.965   0.282   6.294
 7819TIP3   OH223397   6.763   7.579   0.669
 7819TIP3    H123398   6.682   7.598   0.715
 7819TIP3    H223399   6.762   7.484   0.657
 7820TIP3   OH223400   6.591   5.087   3.676
 7820TIP3    H123401   6.547   5.158   3.723
 7820TIP3    H223402   6.655   5.052   3.739
 7821TIP3   OH223403   5.228   0.077   1.047
 7821TIP3    H123404   5.290   0.142   1.078
 7821TIP3    H223405   5.282   0.005   1.015
 7822TIP3   OH223406   6.246   3.105   1.995
 7822TIP3    H123407   6.306   3.167   1.952
 7822TIP3    H223408   6.235   3.035   1.931
 7823TIP3   OH223409   1.243   2.807   5.671
 7823TIP3    H123410   1.286   2.761   5.743
 7823TIP3    H223411   1.150   2.786   5.681
 7824TIP3   OH223412   0.795   1.559   2.750
 7824TIP3    H123413   0.757   1.511   2.676
 7824TIP3    H223414   0.879   1.516   2.766
 7825TIP3   OH223415   4.266   2.503   0.985
 7825TIP3    H123416   4.205   2.503   0.912
 7825TIP3    H223417   4.284   2.410   1.002
 7826TIP3   OH223418   0.540   5.203   6.441
 7826TIP3    H123419   0.452   5.239   6.426
 7826TIP3    H223420   0.525   5.110   6.461
 7827TIP3   OH223421   3.145   6.694   0.585
 7827TIP3    H123422   3.129   6.656   0.671
 7827TIP3    H223423   3.060   6.730   0.559
 7828TIP3   OH223424   2.198   6.136   3.265
 7828TIP3    H123425   2.230   6.218   3.227
 7828TIP3    H223426   2.267   6.110   3.326
 7829TIP3   OH223427   5.297   3.055   1.239
 7829TIP3    H123428   5.362   2.991   1.209
 7829TIP3    H223429   5.341   3.140   1.229
 7830TIP3   OH223430   3.104   6.647   0.272
 7830TIP3    H123431   3.119   6.612   0.185
 7830TIP3    H223432   3.185   6.693   0.294
 7831TIP3   OH223433   7.316   1.176   1.364
 7831TIP3    H123434   7.386   1.205   1.422
 7831TIP3    H223435   7.264   1.116   1.417
 7832TIP3   OH223436   4.251   6.866   0.915
 7832TIP3    H123437   4.209   6.789   0.876
 7832TIP3    H223438   4.262   6.844   1.007
 7833TIP3   OH223439   4.825   0.359   1.900
 7833TIP3    H123440   4.760   0.292   1.882
 7833TIP3    H223441   4.834   0.360   1.995
 7834TIP3   OH223442   1.768   1.922   5.609
 7834TIP3    H123443   1.735   1.879   5.688
 7834TIP3    H223444   1.698   1.982   5.584
 7835TIP3   OH223445   2.810   0.571   1.871
 7835TIP3    H123446   2.901   0.589   1.893
 7835TIP3    H223447   2.779   0.514   1.941
 7836TIP3   OH223448   2.630   6.837   1.765
 7836TIP3    H123449   2.692   6.880   1.706
 7836TIP3    H223450   2.632   6.745   1.739
 7837TIP3   OH223451   1.883   7.166   4.167
 7837TIP3    H123452   1.958   7.148   4.111
 7837TIP3    H223453   1.812   7.113   4.130
 7838TIP3   OH223454   5.957   5.888   1.165
 7838TIP3    H123455   5.869   5.926   1.174
 7838TIP3    H223456   5.975   5.850   1.251
 7839TIP3   OH223457   5.853   0.256   4.756
 7839TIP3    H123458   5.906   0.335   4.741
 7839TIP3    H223459   5.902   0.206   4.821
 7840TIP3   OH223460   1.458   7.078   5.742
 7840TIP3    H123461   1.371   7.058   5.707
 7840TIP3    H223462   1.515   7.013   5.703
 7841TIP3   OH223463   8.342   1.280   1.342
 7841TIP3    H123464   8.286   1.205   1.360
 7841TIP3    H223465   8.423   1.241   1.307
 7842TIP3   OH223466   1.573   5.378   2.224
 7842TIP3    H123467   1.648   5.396   2.281
 7842TIP3    H223468   1.503   5.351   2.284
 7843TIP3   OH223469   2.156   3.487   5.617
 7843TIP3    H123470   2.168   3.581   5.604
 7843TIP3    H223471   2.192   3.470   5.704
 7844TIP3   OH223472   1.967   5.572   4.449
 7844TIP3    H123473   2.055   5.579   4.485
 7844TIP3    H223474   1.930   5.660   4.458
 7845TIP3   OH223475   7.973   2.237   1.862
 7845TIP3    H123476   8.059   2.201   1.839
 7845TIP3    H223477   7.989   2.330   1.877
 7846TIP3   OH223478   3.709   4.518   2.781
 7846TIP3    H123479   3.789   4.467   2.776
 7846TIP3    H223480   3.675   4.501   2.869
 7847TIP3   OH223481   0.739   4.804   4.309
 7847TIP3    H123482   0.723   4.860   4.385
 7847TIP3    H223483   0.795   4.856   4.252
 7848TIP3   OH223484   5.342   1.312   4.577
 7848TIP3    H123485   5.252   1.285   4.594
 7848TIP3    H223486   5.338   1.407   4.573
 7849TIP3   OH223487   8.269   2.028   2.050
 7849TIP3    H123488   8.312   1.985   1.975
 7849TIP3    H223489   8.267   1.960   2.118
 7850TIP3   OH223490   4.582   5.424   0.346
 7850TIP3    H123491   4.585   5.345   0.401
 7850TIP3    H223492   4.497   5.421   0.303
 7851TIP3   OH223493   4.075   6.812   6.176
 7851TIP3    H123494   4.153   6.808   6.230
 7851TIP3    H223495   4.024   6.735   6.201
 7852TIP3   OH223496   0.958   0.080   4.578
 7852TIP3    H123497   0.990   0.074   4.668
 7852TIP3    H223498   1.003   0.157   4.542
 7853TIP3   OH223499   5.047   6.568   5.548
 7853TIP3    H123500   5.075   6.534   5.463
 7853TIP3    H223501   5.127   6.570   5.601
 7854TIP3   OH223502   2.486   7.125   1.037
 7854TIP3    H123503   2.417   7.084   0.984
 7854TIP3    H223504   2.479   7.218   1.016
 7855TIP3   OH223505   5.312   5.801   2.496
 7855TIP3    H123506   5.236   5.811   2.440
 7855TIP3    H223507   5.276   5.788   2.584
 7856TIP3   OH223508   0.919   6.182   5.832
 7856TIP3    H123509   0.974   6.223   5.766
 7856TIP3    H223510   0.972   6.110   5.867
 7857TIP3   OH223511   1.033   4.203   2.797
 7857TIP3    H123512   1.117   4.170   2.829
 7857TIP3    H223513   1.031   4.294   2.826
 7858TIP3   OH223514   4.190   4.867   5.359
 7858TIP3    H123515   4.258   4.832   5.417
 7858TIP3    H223516   4.189   4.807   5.284
 7859TIP3   OH223517   0.442   7.433   2.045
 7859TIP3    H123518   0.412   7.358   1.993
 7859TIP3    H223519   0.445   7.506   1.983
 7860TIP3   OH223520   2.007   7.803   6.509
 7860TIP3    H123521   2.028   7.850   6.590
 7860TIP3    H223522   2.009   7.711   6.534
 7861TIP3   OH223523   1.564   6.142   2.841
 7861TIP3    H123524   1.633   6.094   2.795
 7861TIP3    H223525   1.483   6.100   2.814
 7862TIP3   OH223526   6.765   1.248   5.153
 7862TIP3    H123527   6.729   1.325   5.198
 7862TIP3    H223528   6.689   1.208   5.111
 7863TIP3   OH223529   3.811   3.751   3.690
 7863TIP3    H123530   3.723   3.732   3.660
 7863TIP3    H223531   3.821   3.846   3.677
 7864TIP3   OH223532   3.973   0.185   6.688
 7864TIP3    H123533   3.974   0.270   6.733
 7864TIP3    H223534   3.991   0.121   6.757
 7865TIP3   OH223535   3.390   5.541   3.128
 7865TIP3    H123536   3.424   5.537   3.038
 7865TIP3    H223537   3.429   5.620   3.165
 7866TIP3   OH223538   2.332   0.286   2.324
 7866TIP3    H123539   2.382   0.363   2.296
 7866TIP3    H223540   2.394   0.213   2.315
 7867TIP3   OH223541   6.407   4.867   6.085
 7867TIP3    H123542   6.365   4.793   6.041
 7867TIP3    H223543   6.500   4.847   6.083
 7868TIP3   OH223544   1.211   1.789   6.723
 7868TIP3    H123545   1.271   1.719   6.748
 7868TIP3    H223546   1.138   1.781   6.785
 7869TIP3   OH223547   1.276   3.561   4.169
 7869TIP3    H123548   1.319   3.634   4.125
 7869TIP3    H223549   1.183   3.583   4.167
 7870TIP3   OH223550   4.549   7.670   1.751
 7870TIP3    H123551   4.574   7.763   1.754
 7870TIP3    H223552   4.537   7.646   1.842
 7871TIP3   OH223553   6.338   6.780   5.839
 7871TIP3    H123554   6.298   6.866   5.836
 7871TIP3    H223555   6.307   6.742   5.922
 7872TIP3   OH223556   5.351   5.015   0.501
 7872TIP3    H123557   5.273   5.046   0.455
 7872TIP3    H223558   5.332   5.034   0.594
 7873TIP3   OH223559   5.981   5.787   2.449
 7873TIP3    H123560   6.053   5.745   2.496
 7873TIP3    H223561   5.944   5.849   2.512
 7874TIP3   OH223562   4.318   0.785   3.109
 7874TIP3    H123563   4.233   0.828   3.100
 7874TIP3    H223564   4.298   0.692   3.103
 7875TIP3   OH223565   3.539   5.562   0.784
 7875TIP3    H123566   3.571   5.542   0.696
 7875TIP3    H223567   3.493   5.483   0.812
 7876TIP3   OH223568   4.256   3.413   5.660
 7876TIP3    H123569   4.184   3.449   5.712
 7876TIP3    H223570   4.226   3.327   5.632
 7877TIP3   OH223571   5.480   6.246   3.559
 7877TIP3    H123572   5.518   6.299   3.629
 7877TIP3    H223573   5.413   6.303   3.520
 7878TIP3   OH223574   1.089   6.564   3.690
 7878TIP3    H123575   1.027   6.552   3.618
 7878TIP3    H223576   1.174   6.574   3.647
 7879TIP3   OH223577   4.423   6.143   6.147
 7879TIP3    H123578   4.491   6.206   6.125
 7879TIP3    H223579   4.373   6.185   6.217
 7880TIP3   OH223580   6.260   5.006   4.668
 7880TIP3    H123581   6.180   4.954   4.655
 7880TIP3    H223582   6.228   5.097   4.673
 7881TIP3   OH223583   0.892   4.379   0.217
 7881TIP3    H123584   0.843   4.430   0.152
 7881TIP3    H223585   0.971   4.429   0.234
 7882TIP3   OH223586   6.727   0.717   5.410
 7882TIP3    H123587   6.726   0.634   5.363
 7882TIP3    H223588   6.708   0.783   5.343
 7883TIP3   OH223589   2.701   6.113   1.862
 7883TIP3    H123590   2.616   6.069   1.867
 7883TIP3    H223591   2.764   6.045   1.885
 7884TIP3   OH223592   4.832   4.538   4.893
 7884TIP3    H123593   4.913   4.494   4.868
 7884TIP3    H223594   4.788   4.476   4.951
 7885TIP3   OH223595   5.922   7.278   2.425
 7885TIP3    H123596   5.925   7.333   2.503
 7885TIP3    H223597   5.918   7.188   2.459
 7886TIP3   OH223598   6.191   7.678   6.347
 7886TIP3    H123599   6.252   7.735   6.394
 7886TIP3    H223600   6.247   7.624   6.291
 7887TIP3   OH223601   7.621   3.791   2.735
 7887TIP3    H123602   7.556   3.725   2.711
 7887TIP3    H223603   7.648   3.768   2.824
 7888TIP3   OH223604   4.614   7.124   0.920
 7888TIP3    H123605   4.588   7.184   0.989
 7888TIP3    H223606   4.695   7.162   0.884
 7889TIP3   OH223607   1.996   0.535   3.771
 7889TIP3    H123608   2.005   0.522   3.865
 7889TIP3    H223609   2.063   0.599   3.749
 7890TIP3   OH223610   7.627   5.158   5.035
 7890TIP3    H123611   7.663   5.118   4.956
 7890TIP3    H223612   7.533   5.161   5.020
 7891TIP3   OH223613   0.849   1.826   3.174
 7891TIP3    H123614   0.806   1.902   3.214
 7891TIP3    H223615   0.806   1.818   3.088
 7892TIP3   OH223616   3.345   6.360   5.389
 7892TIP3    H123617   3.338   6.353   5.294
 7892TIP3    H223618   3.289   6.290   5.423
 7893TIP3   OH223619   0.083   0.759   5.104
 7893TIP3    H123620   0.050   0.672   5.128
 7893TIP3    H223621   0.172   0.761   5.138
 7894TIP3   OH223622   5.835   7.064   1.754
 7894TIP3    H123623   5.850   7.124   1.682
 7894TIP3    H223624   5.837   7.119   1.832
 7895TIP3   OH223625   8.103   6.762   3.072
 7895TIP3    H123626   8.017   6.758   3.114
 7895TIP3    H223627   8.132   6.670   3.069
 7896TIP3   OH223628   6.921   4.527   5.568
 7896TIP3    H123629   7.012   4.556   5.568
 7896TIP3    H223630   6.879   4.578   5.638
 7897TIP3   OH223631   0.987   6.657   4.679
 7897TIP3    H123632   1.068   6.619   4.646
 7897TIP3    H223633   0.927   6.583   4.688
 7898TIP3   OH223634   7.712   4.912   0.817
 7898TIP3    H123635   7.738   4.850   0.749
 7898TIP3    H223636   7.767   4.889   0.892
 7899TIP3   OH223637   4.910   3.295   4.988
 7899TIP3    H123638   4.990   3.336   5.021
 7899TIP3    H223639   4.928   3.280   4.895
 7900TIP3   OH223640   0.015   6.021   1.053
 7900TIP3    H123641   0.063   6.094   1.092
 7900TIP3    H223642   0.080   5.976   0.999
 7901TIP3   OH223643   3.676   7.076   2.510
 7901TIP3    H123644   3.695   7.043   2.421
 7901TIP3    H223645   3.761   7.076   2.554
 7902TIP3   OH223646   4.419   4.483   6.638
 7902TIP3    H123647   4.495   4.499   6.694
 7902TIP3    H223648   4.402   4.389   6.646
 7903TIP3   OH223649   5.774   7.338   5.414
 7903TIP3    H123650   5.796   7.310   5.325
 7903TIP3    H223651   5.754   7.256   5.460
 7904TIP3   OH223652   5.703   4.982   6.208
 7904TIP3    H123653   5.661   4.939   6.133
 7904TIP3    H223654   5.660   5.067   6.214
 7905TIP3   OH223655   1.633   1.041   2.480
 7905TIP3    H123656   1.710   1.095   2.493
 7905TIP3    H223657   1.593   1.075   2.400
 7906TIP3   OH223658   1.500   2.488   3.192
 7906TIP3    H123659   1.427   2.514   3.136
 7906TIP3    H223660   1.459   2.447   3.268
 7907TIP3   OH223661   2.087   5.786   3.221
 7907TIP3    H123662   2.073   5.699   3.259
 7907TIP3    H223663   2.172   5.779   3.177
 7908TIP3   OH223664   4.446   0.174   1.118
 7908TIP3    H123665   4.523   0.228   1.097
 7908TIP3    H223666   4.451   0.161   1.213
 7909TIP3   OH223667   5.860   0.403   1.715
 7909TIP3    H123668   5.873   0.376   1.624
 7909TIP3    H223669   5.810   0.332   1.754
 7910TIP3   OH223670   5.222   1.552   5.859
 7910TIP3    H123671   5.222   1.538   5.954
 7910TIP3    H223672   5.206   1.466   5.822
 7911TIP3   OH223673   2.987   7.016   1.872
 7911TIP3    H123674   2.912   6.989   1.925
 7911TIP3    H223675   2.948   7.072   1.804
 7912TIP3   OH223676   4.837   6.371   5.207
 7912TIP3    H123677   4.845   6.463   5.232
 7912TIP3    H223678   4.900   6.359   5.137
 7913TIP3   OH223679   5.176   5.528   2.526
 7913TIP3    H123680   5.272   5.530   2.525
 7913TIP3    H223681   5.152   5.538   2.618
 7914TIP3   OH223682   6.050   5.811   1.417
 7914TIP3    H123683   6.074   5.722   1.446
 7914TIP3    H223684   6.065   5.865   1.495
 7915TIP3   OH223685   0.324   2.269   4.066
 7915TIP3    H123686   0.402   2.305   4.108
 7915TIP3    H223687   0.348   2.260   3.974
 7916TIP3   OH223688   3.754   3.666   6.338
 7916TIP3    H123689   3.675   3.689   6.290
 7916TIP3    H223690   3.730   3.589   6.389
 7917TIP3   OH223691   2.152   4.039   6.359
 7917TIP3    H123692   2.135   4.016   6.450
 7917TIP3    H223693   2.099   3.978   6.308
 7918TIP3   OH223694   1.824   2.546   0.840
 7918TIP3    H123695   1.728   2.552   0.847
 7918TIP3    H223696   1.842   2.453   0.832
 7919TIP3   OH223697   1.593   7.508   6.615
 7919TIP3    H123698   1.588   7.413   6.605
 7919TIP3    H223699   1.552   7.525   6.700
 7920TIP3   OH223700   2.325   7.392   3.609
 7920TIP3    H123701   2.310   7.388   3.704
 7920TIP3    H223702   2.416   7.363   3.598
 7921TIP3   OH223703   7.306   4.996   4.754
 7921TIP3    H123704   7.370   4.965   4.818
 7921TIP3    H223705   7.232   5.026   4.807
 7922TIP3   OH223706   6.463   0.383   5.484
 7922TIP3    H123707   6.520   0.382   5.561
 7922TIP3    H223708   6.518   0.420   5.415
 7923TIP3   OH223709   7.496   1.583   5.425
 7923TIP3    H123710   7.455   1.576   5.339
 7923TIP3    H223711   7.540   1.668   5.425
 7924TIP3   OH223712   1.925   3.192   5.868
 7924TIP3    H123713   1.901   3.100   5.861
 7924TIP3    H223714   1.955   3.215   5.780
 7925TIP3   OH223715   7.852   4.748   3.250
 7925TIP3    H123716   7.846   4.771   3.157
 7925TIP3    H223717   7.938   4.780   3.276
 7926TIP3   OH223718   5.853   5.466   4.702
 7926TIP3    H123719   5.861   5.434   4.792
 7926TIP3    H223720   5.763   5.497   4.695
 7927TIP3   OH223721   3.853   6.401   4.538
 7927TIP3    H123722   3.795   6.461   4.585
 7927TIP3    H223723   3.923   6.457   4.504
 7928TIP3   OH223724   5.574   6.798   3.848
 7928TIP3    H123725   5.581   6.809   3.943
 7928TIP3    H223726   5.511   6.727   3.837
 7929TIP3   OH223727   1.729   3.966   4.817
 7929TIP3    H123728   1.740   3.872   4.833
 7929TIP3    H223729   1.641   3.985   4.849
 7930TIP3   OH223730   7.280   7.255   0.762
 7930TIP3    H123731   7.366   7.279   0.727
 7930TIP3    H223732   7.272   7.162   0.745
 7931TIP3   OH223733   4.903   1.223   2.679
 7931TIP3    H123734   4.977   1.185   2.631
 7931TIP3    H223735   4.857   1.274   2.613
 7932TIP3   OH223736   5.211   2.777   1.719
 7932TIP3    H123737   5.241   2.850   1.664
 7932TIP3    H223738   5.154   2.726   1.661
 7933TIP3   OH223739   3.756   4.351   1.241
 7933TIP3    H123740   3.849   4.329   1.232
 7933TIP3    H223741   3.743   4.422   1.178
 7934TIP3   OH223742   3.079   3.146   3.587
 7934TIP3    H123743   3.120   3.069   3.547
 7934TIP3    H223744   3.136   3.167   3.661
 7935TIP3   OH223745   1.198   3.172   1.157
 7935TIP3    H123746   1.177   3.243   1.217
 7935TIP3    H223747   1.227   3.100   1.214
 7936TIP3   OH223748   0.672   7.888   5.912
 7936TIP3    H123749   0.764   7.867   5.901
 7936TIP3    H223750   0.655   7.957   5.849
 7937TIP3   OH223751   2.868   0.091   1.626
 7937TIP3    H123752   2.838   0.044   1.549
 7937TIP3    H223753   2.948   0.136   1.597
 7938TIP3   OH223754   5.213   3.387   3.691
 7938TIP3    H123755   5.142   3.414   3.632
 7938TIP3    H223756   5.285   3.363   3.633
 7939TIP3   OH223757   3.816   2.917   1.176
 7939TIP3    H123758   3.835   3.011   1.172
 7939TIP3    H223759   3.731   2.909   1.133
 7940TIP3   OH223760   1.584   1.246   1.631
 7940TIP3    H123761   1.527   1.300   1.577
 7940TIP3    H223762   1.555   1.156   1.614
 7941TIP3   OH223763   1.504   2.201   5.266
 7941TIP3    H123764   1.481   2.132   5.204
 7941TIP3    H223765   1.431   2.261   5.264
 7942TIP3   OH223766   3.016   4.887   0.826
 7942TIP3    H123767   3.020   4.959   0.889
 7942TIP3    H223768   3.007   4.930   0.741
 7943TIP3   OH223769   5.758   1.865   2.232
 7943TIP3    H123770   5.790   1.784   2.193
 7943TIP3    H223771   5.832   1.924   2.229
 7944TIP3   OH223772   7.126   7.513   3.174
 7944TIP3    H123773   7.130   7.463   3.093
 7944TIP3    H223774   7.146   7.449   3.242
 7945TIP3   OH223775   5.736   5.921   2.889
 7945TIP3    H123776   5.714   5.916   2.982
 7945TIP3    H223777   5.669   5.868   2.845
 7946TIP3   OH223778   6.703   2.131   3.153
 7946TIP3    H123779   6.628   2.079   3.127
 7946TIP3    H223780   6.732   2.175   3.073
 7947TIP3   OH223781   7.275   2.128   3.041
 7947TIP3    H123782   7.252   2.058   2.980
 7947TIP3    H223783   7.216   2.200   3.018
 7948TIP3   OH223784   3.539   6.319   2.211
 7948TIP3    H123785   3.521   6.239   2.161
 7948TIP3    H223786   3.468   6.379   2.186
 7949TIP3   OH223787   3.482   2.016   2.223
 7949TIP3    H123788   3.432   2.090   2.188
 7949TIP3    H223789   3.525   1.978   2.146
 7950TIP3   OH223790   4.379   3.986   0.934
 7950TIP3    H123791   4.309   4.043   0.901
 7950TIP3    H223792   4.333   3.912   0.975
 7951TIP3   OH223793   4.698   5.534   6.502
 7951TIP3    H123794   4.669   5.617   6.465
 7951TIP3    H223795   4.647   5.525   6.582
 7952TIP3   OH223796   4.501   3.893   1.837
 7952TIP3    H123797   4.439   3.940   1.781
 7952TIP3    H223798   4.454   3.881   1.919
 7953TIP3   OH223799   0.135   0.330   4.286
 7953TIP3    H123800   0.148   0.287   4.201
 7953TIP3    H223801   0.202   0.398   4.289
 7954TIP3   OH223802   3.676   4.602   1.356
 7954TIP3    H123803   3.656   4.509   1.343
 7954TIP3    H223804   3.593   4.647   1.343
 7955TIP3   OH223805   8.058   5.495   4.631
 7955TIP3    H123806   8.065   5.427   4.564
 7955TIP3    H223807   7.969   5.485   4.666
 7956TIP3   OH223808   5.718   2.042   6.218
 7956TIP3    H123809   5.736   2.122   6.169
 7956TIP3    H223810   5.791   1.984   6.197
 7957TIP3   OH223811   1.749   6.732   6.221
 7957TIP3    H123812   1.780   6.789   6.291
 7957TIP3    H223813   1.670   6.690   6.256
 7958TIP3   OH223814   0.625   0.608   2.294
 7958TIP3    H123815   0.645   0.660   2.372
 7958TIP3    H223816   0.591   0.671   2.231
 7959TIP3   OH223817   5.684   1.936   1.132
 7959TIP3    H123818   5.672   2.031   1.142
 7959TIP3    H223819   5.612   1.898   1.181
 7960TIP3   OH223820   2.887   5.328   4.202
 7960TIP3    H123821   2.837   5.381   4.265
 7960TIP3    H223822   2.974   5.323   4.240
 7961TIP3   OH223823   5.947   0.119   6.791
 7961TIP3    H123824   5.911   0.068   6.719
 7961TIP3    H223825   5.987   0.195   6.749
 7962TIP3   OH223826   1.342   6.731   2.700
 7962TIP3    H123827   1.273   6.709   2.763
 7962TIP3    H223828   1.422   6.734   2.752
 7963TIP3   OH223829   5.053   4.134   2.448
 7963TIP3    H123830   5.056   4.143   2.544
 7963TIP3    H223831   4.962   4.151   2.425
 7964TIP3   OH223832   8.007   2.306   5.547
 7964TIP3    H123833   8.033   2.371   5.612
 7964TIP3    H223834   8.089   2.262   5.522
 7965TIP3   OH223835   7.031   3.418   6.131
 7965TIP3    H123836   7.083   3.434   6.051
 7965TIP3    H223837   7.080   3.352   6.179
 7966TIP3   OH223838   7.553   1.246   1.845
 7966TIP3    H123839   7.509   1.278   1.924
 7966TIP3    H223840   7.498   1.173   1.815
 7967TIP3   OH223841   3.742   7.821   5.285
 7967TIP3    H123842   3.783   7.851   5.366
 7967TIP3    H223843   3.769   7.885   5.219
 7968TIP3   OH223844   0.490   2.144   0.611
 7968TIP3    H123845   0.457   2.067   0.566
 7968TIP3    H223846   0.583   2.148   0.588
 7969TIP3   OH223847   0.315   2.453   1.054
 7969TIP3    H123848   0.279   2.409   0.977
 7969TIP3    H223849   0.388   2.396   1.081
 7970TIP3   OH223850   7.656   1.334   0.671
 7970TIP3    H123851   7.580   1.354   0.617
 7970TIP3    H223852   7.621   1.285   0.745
 7971TIP3   OH223853   2.742   0.796   6.369
 7971TIP3    H123854   2.803   0.791   6.295
 7971TIP3    H223855   2.752   0.712   6.413
 7972TIP3   OH223856   4.860   2.896   2.809
 7972TIP3    H123857   4.888   2.822   2.863
 7972TIP3    H223858   4.833   2.857   2.726
 7973TIP3   OH223859   8.160   0.458   6.089
 7973TIP3    H123860   8.233   0.497   6.137
 7973TIP3    H223861   8.176   0.481   5.998
 7974TIP3   OH223862   1.989   1.558   0.402
 7974TIP3    H123863   2.047   1.629   0.431
 7974TIP3    H223864   2.033   1.478   0.431
 7975TIP3   OH223865   2.878   5.549   6.669
 7975TIP3    H123866   2.951   5.489   6.652
 7975TIP3    H223867   2.833   5.511   6.745
 7976TIP3   OH223868   6.191   1.251   4.208
 7976TIP3    H123869   6.137   1.215   4.137
 7976TIP3    H223870   6.187   1.186   4.277
 7977TIP3   OH223871   4.819   6.941   4.013
 7977TIP3    H123872   4.790   6.880   3.945
 7977TIP3    H223873   4.795   7.027   3.980
 7978TIP3   OH223874   5.673   0.588   1.204
 7978TIP3    H123875   5.763   0.616   1.184
 7978TIP3    H223876   5.643   0.546   1.123
 7979TIP3   OH223877   4.154   5.798   5.269
 7979TIP3    H123878   4.173   5.728   5.205
 7979TIP3    H223879   4.208   5.777   5.345
 7980TIP3   OH223880   7.501   7.850   4.128
 7980TIP3    H123881   7.459   7.801   4.057
 7980TIP3    H223882   7.438   7.846   4.200
 7981TIP3   OH223883   7.331   2.024   1.875
 7981TIP3    H123884   7.267   1.969   1.921
 7981TIP3    H223885   7.294   2.035   1.787
 7982TIP3   OH223886   2.257   7.246   2.667
 7982TIP3    H123887   2.167   7.276   2.680
 7982TIP3    H223888   2.269   7.246   2.572
 7983TIP3   OH223889   1.234   2.168   6.542
 7983TIP3    H123890   1.277   2.145   6.624
 7983TIP3    H223891   1.152   2.118   6.542
 7984TIP3   OH223892   3.637   0.339   1.729
 7984TIP3    H123893   3.569   0.347   1.796
 7984TIP3    H223894   3.675   0.253   1.743
 7985TIP3   OH223895   4.581   1.537   5.752
 7985TIP3    H123896   4.525   1.585   5.691
 7985TIP3    H223897   4.568   1.581   5.836
 7986TIP3   OH223898   5.508   4.932   1.692
 7986TIP3    H123899   5.513   4.904   1.784
 7986TIP3    H223900   5.528   4.853   1.642
 7987TIP3   OH223901   7.206   2.145   0.474
 7987TIP3    H123902   7.114   2.139   0.500
 7987TIP3    H223903   7.216   2.236   0.444
 7988TIP3   OH223904   4.282   3.662   4.113
 7988TIP3    H123905   4.267   3.613   4.032
 7988TIP3    H223906   4.356   3.618   4.154
 7989TIP3   OH223907   2.266   4.838   1.547
 7989TIP3    H123908   2.287   4.931   1.560
 7989TIP3    H223909   2.239   4.833   1.455
 7990TIP3   OH223910   2.075   1.767   3.703
 7990TIP3    H123911   2.139   1.742   3.637
 7990TIP3    H223912   2.119   1.835   3.754
 7991TIP3   OH223913   5.694   2.003   4.698
 7991TIP3    H123914   5.739   2.087   4.685
 7991TIP3    H223915   5.632   1.998   4.625
 7992TIP3   OH223916   3.091   5.106   2.616
 7992TIP3    H123917   3.094   5.067   2.703
 7992TIP3    H223918   3.181   5.130   2.597
 7993TIP3   OH223919   5.858   6.309   3.655
 7993TIP3    H123920   5.829   6.219   3.636
 7993TIP3    H223921   5.953   6.302   3.662
 7994TIP3   OH223922   7.974   7.757   6.755
 7994TIP3    H123923   7.938   7.830   6.704
 7994TIP3    H223924   8.054   7.733   6.708
 7995TIP3   OH223925   6.685   5.458   3.893
 7995TIP3    H123926   6.701   5.547   3.862
 7995TIP3    H223927   6.755   5.406   3.855
 7996TIP3   OH223928   2.622   5.703   4.403
 7996TIP3    H123929   2.632   5.634   4.338
 7996TIP3    H223930   2.671   5.777   4.366
 7997TIP3   OH223931   3.097   0.505   2.911
 7997TIP3    H123932   3.144   0.433   2.953
 7997TIP3    H223933   3.127   0.503   2.820
 7998TIP3   OH223934   0.079   1.793   2.741
 7998TIP3    H123935   0.173   1.812   2.749
 7998TIP3    H223936   0.074   1.718   2.683
 7999TIP3   OH223937   7.182   6.989   4.749
 7999TIP3    H123938   7.172   6.938   4.668
 7999TIP3    H223939   7.096   7.030   4.762
 8000TIP3   OH223940   3.104   0.254   5.738
 8000TIP3    H123941   3.160   0.313   5.789
 8000TIP3    H223942   3.100   0.174   5.790
 8001TIP3   OH223943   8.371   1.996   1.212
 8001TIP3    H123944   8.326   1.962   1.290
 8001TIP3    H223945   8.447   2.042   1.247
 8002TIP3   OH223946   3.979   3.023   0.628
 8002TIP3    H123947   3.909   3.065   0.577
 8002TIP3    H223948   4.038   2.985   0.562
 8003TIP3   OH223949   4.413   7.744   5.525
 8003TIP3    H123950   4.379   7.833   5.514
 8003TIP3    H223951   4.503   7.755   5.556
 8004TIP3   OH223952   1.850   6.242   3.875
 8004TIP3    H123953   1.825   6.244   3.782
 8004TIP3    H223954   1.770   6.220   3.921
 8005TIP3   OH223955   3.672   6.787   3.454
 8005TIP3    H123956   3.609   6.739   3.509
 8005TIP3    H223957   3.737   6.820   3.516
 8006TIP3   OH223958   4.726   0.696   2.277
 8006TIP3    H123959   4.688   0.632   2.336
 8006TIP3    H223960   4.653   0.752   2.251
 8007TIP3   OH223961   3.458   6.757   3.632
 8007TIP3    H123962   3.385   6.736   3.574
 8007TIP3    H223963   3.472   6.678   3.684
 8008TIP3   OH223964   2.881   4.976   5.388
 8008TIP3    H123965   2.821   5.044   5.418
 8008TIP3    H223966   2.866   4.903   5.449
 8009TIP3   OH223967   3.307   4.074   2.760
 8009TIP3    H123968   3.231   4.050   2.707
 8009TIP3    H223969   3.375   4.012   2.735
 8010TIP3   OH223970   1.490   6.924   6.034
 8010TIP3    H123971   1.422   6.857   6.026
 8010TIP3    H223972   1.539   6.918   5.951
 8011TIP3   OH223973   4.509   4.907   0.773
 8011TIP3    H123974   4.515   4.978   0.837
 8011TIP3    H223975   4.579   4.925   0.711
 8012TIP3   OH223976   3.045   2.969   3.302
 8012TIP3    H123977   3.088   3.038   3.252
 8012TIP3    H223978   3.085   2.974   3.389
 8013TIP3   OH223979   3.600   3.181   6.174
 8013TIP3    H123980   3.523   3.135   6.207
 8013TIP3    H223981   3.568   3.227   6.096
 8014TIP3   OH223982   5.229   6.778   0.500
 8014TIP3    H123983   5.169   6.776   0.425
 8014TIP3    H223984   5.315   6.788   0.461
 8015TIP3   OH223985   7.111   4.401   2.585
 8015TIP3    H123986   7.159   4.440   2.657
 8015TIP3    H223987   7.133   4.307   2.590
 8016TIP3   OH223988   7.571   3.217   0.187
 8016TIP3    H123989   7.519   3.145   0.223
 8016TIP3    H223990   7.661   3.192   0.206
 8017TIP3   OH223991   8.184   2.662   2.039
 8017TIP3    H123992   8.272   2.636   2.014
 8017TIP3    H223993   8.194   2.750   2.075
 8018TIP3   OH223994   8.233   5.353   3.951
 8018TIP3    H123995   8.236   5.420   3.884
 8018TIP3    H223996   8.325   5.326   3.962
 8019TIP3   OH223997   1.789   4.007   2.482
 8019TIP3    H123998   1.849   4.024   2.554
 8019TIP3    H223999   1.707   3.982   2.524
 8020TIP3   OH224000   1.195   7.659   4.456
 8020TIP3    H124001   1.137   7.650   4.379
 8020TIP3    H224002   1.195   7.752   4.475
 8021TIP3   OH224003   1.723   1.647   4.922
 8021TIP3    H124004   1.710   1.716   4.987
 8021TIP3    H224005   1.700   1.566   4.968
 8022TIP3   OH224006   4.864   5.266   0.700
 8022TIP3    H124007   4.789   5.306   0.744
 8022TIP3    H224008   4.910   5.340   0.660
 8023TIP3   OH224009   3.080   2.557   6.267
 8023TIP3    H124010   3.096   2.469   6.232
 8023TIP3    H224011   3.128   2.557   6.350
 8024TIP3   OH224012   4.922   6.632   1.656
 8024TIP3    H124013   4.928   6.719   1.695
 8024TIP3    H224014   4.985   6.580   1.706
 8025TIP3   OH224015   0.412   3.066   6.905
 8025TIP3    H124016   0.402   3.159   6.928
 8025TIP3    H224017   0.335   3.024   6.943
 8026TIP3   OH224018   3.182   2.285   6.286
 8026TIP3    H124019   3.197   2.304   6.379
 8026TIP3    H224020   3.269   2.292   6.246
 8027TIP3   OH224021   6.192   4.648   6.712
 8027TIP3    H124022   6.237   4.571   6.749
 8027TIP3    H224023   6.138   4.613   6.641
 8028TIP3   OH224024   4.050   5.548   2.999
 8028TIP3    H124025   4.045   5.563   2.905
 8028TIP3    H224026   3.980   5.487   3.018
 8029TIP3   OH224027   0.647   3.127   0.052
 8029TIP3    H124028   0.562   3.109   0.012
 8029TIP3    H224029   0.654   3.222   0.053
 8030TIP3   OH224030   3.612   6.423   0.080
 8030TIP3    H124031   3.614   6.354   0.013
 8030TIP3    H224032   3.692   6.473   0.065
 8031TIP3   OH224033   1.785   0.134   0.187
 8031TIP3    H124034   1.833   0.215   0.202
 8031TIP3    H224035   1.694   0.156   0.204
 8032TIP3   OH224036   2.353   4.349   0.184
 8032TIP3    H124037   2.265   4.351   0.221
 8032TIP3    H224038   2.406   4.400   0.246
 8033TIP3   OH224039   2.203   0.041   2.181
 8033TIP3    H124040   2.220   0.040   2.276
 8033TIP3    H224041   2.153   0.121   2.166
 8034TIP3   OH224042   3.363   0.097   1.804
 8034TIP3    H124043   3.286   0.148   1.827
 8034TIP3    H224044   3.423   0.109   1.878
 8035TIP3   OH224045   1.061   0.005   0.884
 8035TIP3    H124046   1.086   0.003   0.791
 8035TIP3    H224047   1.073   0.096   0.909
 8036TIP3   OH224048   4.484   0.676   2.517
 8036TIP3    H124049   4.421   0.659   2.587
 8036TIP3    H224050   4.523   0.591   2.498
 8037TIP3   OH224051   8.359   7.240   4.161
 8037TIP3    H124052   8.439   7.293   4.167
 8037TIP3    H224053   8.380   7.172   4.097
 8038TIP3   OH224054   4.103   3.622   4.851
 8038TIP3    H124055   4.097   3.541   4.801
 8038TIP3    H224056   4.021   3.625   4.901
 8039TIP3   OH224057   6.901   4.326   5.873
 8039TIP3    H124058   6.994   4.336   5.854
 8039TIP3    H224059   6.883   4.391   5.941
 8040TIP3   OH224060   7.473   5.856   4.499
 8040TIP3    H124061   7.409   5.831   4.433
 8040TIP3    H224062   7.421   5.878   4.576
 8041TIP3   OH224063   2.746   2.562   1.595
 8041TIP3    H124064   2.711   2.608   1.519
 8041TIP3    H224065   2.681   2.494   1.613
 8042TIP3   OH224066   4.436   6.950   1.559
 8042TIP3    H124067   4.457   6.885   1.625
 8042TIP3    H224068   4.443   6.903   1.475
 8043TIP3   OH224069   6.696   6.165   4.885
 8043TIP3    H124070   6.611   6.173   4.842
 8043TIP3    H224071   6.742   6.096   4.836
 8044TIP3   OH224072   7.846   4.883   1.058
 8044TIP3    H124073   7.930   4.892   1.101
 8044TIP3    H224074   7.786   4.856   1.128
 8045TIP3   OH224075   7.955   0.779   3.510
 8045TIP3    H124076   7.968   0.693   3.550
 8045TIP3    H224077   7.879   0.816   3.556
 8046TIP3   OH224078   0.203   5.858   4.321
 8046TIP3    H124079   0.266   5.827   4.256
 8046TIP3    H224080   0.178   5.779   4.369
 8047TIP3   OH224081   7.498   5.876   1.698
 8047TIP3    H124082   7.479   5.906   1.609
 8047TIP3    H224083   7.412   5.865   1.738
 8048TIP3   OH224084   4.149   7.856   6.177
 8048TIP3    H124085   4.076   7.853   6.239
 8048TIP3    H224086   4.157   7.949   6.154
 8049TIP3   OH224087   3.660   4.548   3.751
 8049TIP3    H124088   3.580   4.560   3.701
 8049TIP3    H224089   3.647   4.466   3.798
 8050TIP3   OH224090   6.627   7.320   4.774
 8050TIP3    H124091   6.659   7.289   4.859
 8050TIP3    H224092   6.589   7.243   4.733
 8051TIP3   OH224093   4.027   0.091   6.084
 8051TIP3    H124094   4.005   0.173   6.128
 8051TIP3    H224095   4.057   0.118   5.997
 8052TIP3   OH224096   0.537   2.409   1.435
 8052TIP3    H124097   0.456   2.386   1.389
 8052TIP3    H224098   0.523   2.499   1.463
 8053TIP3   OH224099   2.348   4.059   0.170
 8053TIP3    H124100   2.360   4.149   0.137
 8053TIP3    H224101   2.332   4.070   0.263
 8054TIP3   OH224102   2.935   3.351   0.833
 8054TIP3    H124103   2.928   3.262   0.799
 8054TIP3    H224104   2.913   3.407   0.759
 8055TIP3   OH224105   6.036   4.978   1.826
 8055TIP3    H124106   5.975   5.046   1.855
 8055TIP3    H224107   5.998   4.945   1.745
 8056TIP3   OH224108   6.522   3.484   1.626
 8056TIP3    H124109   6.448   3.521   1.578
 8056TIP3    H224110   6.525   3.392   1.598
 8057TIP3   OH224111   7.529   6.800   6.779
 8057TIP3    H124112   7.570   6.843   6.854
 8057TIP3    H224113   7.437   6.794   6.803
 8058TIP3   OH224114   6.455   4.252   2.221
 8058TIP3    H124115   6.392   4.314   2.185
 8058TIP3    H224116   6.402   4.187   2.267
 8059TIP3   OH224117   1.852   2.481   6.340
 8059TIP3    H124118   1.925   2.500   6.282
 8059TIP3    H224119   1.879   2.402   6.387
 8060TIP3   OH224120   0.809   4.515   2.442
 8060TIP3    H124121   0.762   4.450   2.390
 8060TIP3    H224122   0.747   4.587   2.452
 8061TIP3   OH224123   0.658   1.019   2.724
 8061TIP3    H124124   0.641   1.013   2.818
 8061TIP3    H224125   0.753   1.005   2.715
 8062TIP3   OH224126   3.978   6.579   0.486
 8062TIP3    H124127   3.937   6.640   0.425
 8062TIP3    H224128   4.047   6.536   0.435
 8063TIP3   OH224129   4.295   7.507   5.554
 8063TIP3    H124130   4.358   7.436   5.559
 8063TIP3    H224131   4.348   7.587   5.557
 8064TIP3   OH224132   1.261   1.422   6.478
 8064TIP3    H124133   1.272   1.461   6.392
 8064TIP3    H224134   1.211   1.487   6.528
 8065TIP3   OH224135   7.538   2.450   2.022
 8065TIP3    H124136   7.457   2.406   1.996
 8065TIP3    H224137   7.541   2.441   2.117
 8066TIP3   OH224138   5.524   2.896   1.345
 8066TIP3    H124139   5.608   2.853   1.358
 8066TIP3    H224140   5.507   2.889   1.251
 8067TIP3   OH224141   0.141   6.727   5.060
 8067TIP3    H124142   0.074   6.729   5.129
 8067TIP3    H224143   0.101   6.677   4.989
 8068TIP3   OH224144   1.344   2.114   6.292
 8068TIP3    H124145   1.305   2.026   6.300
 8068TIP3    H224146   1.307   2.163   6.366
 8069TIP3   OH224147   2.031   4.501   5.997
 8069TIP3    H124148   1.961   4.560   6.026
 8069TIP3    H224149   2.053   4.449   6.075
 8070TIP3   OH224150   0.572   0.061   1.635
 8070TIP3    H124151   0.592   0.117   1.711
 8070TIP3    H224152   0.521   0.118   1.577
 8071TIP3   OH224153   2.578   7.482   3.169
 8071TIP3    H124154   2.613   7.480   3.258
 8071TIP3    H224155   2.577   7.390   3.142
 8072TIP3   OH224156   0.810   1.348   1.091
 8072TIP3    H124157   0.871   1.360   1.019
 8072TIP3    H224158   0.865   1.345   1.170
 8073TIP3   OH224159   5.218   1.690   6.233
 8073TIP3    H124160   5.307   1.717   6.208
 8073TIP3    H224161   5.202   1.611   6.181
 8074TIP3   OH224162   7.005   3.867   5.870
 8074TIP3    H124163   6.915   3.838   5.857
 8074TIP3    H224164   7.048   3.793   5.912
 8075TIP3   OH224165   8.242   0.790   3.043
 8075TIP3    H124166   8.309   0.753   2.986
 8075TIP3    H224167   8.218   0.719   3.102
 8076TIP3   OH224168   1.999   1.580   1.900
 8076TIP3    H124169   1.950   1.500   1.879
 8076TIP3    H224170   1.967   1.606   1.987
 8077TIP3   OH224171   6.312   2.245   3.538
 8077TIP3    H124172   6.217   2.257   3.528
 8077TIP3    H224173   6.340   2.207   3.455
 8078TIP3   OH224174   7.772   1.526   5.063
 8078TIP3    H124175   7.766   1.437   5.097
 8078TIP3    H224176   7.814   1.576   5.133
 8079TIP3   OH224177   2.216   2.597   3.485
 8079TIP3    H124178   2.190   2.520   3.434
 8079TIP3    H224179   2.244   2.661   3.419
 8080TIP3   OH224180   0.351   0.510   4.269
 8080TIP3    H124181   0.426   0.453   4.256
 8080TIP3    H224182   0.366   0.553   4.353
 8081TIP3   OH224183   1.842   3.236   4.822
 8081TIP3    H124184   1.861   3.314   4.769
 8081TIP3    H224185   1.782   3.185   4.768
 8082TIP3   OH224186   0.475   6.666   1.662
 8082TIP3    H124187   0.412   6.605   1.623
 8082TIP3    H224188   0.500   6.624   1.745
 8083TIP3   OH224189   6.835   3.226   6.763
 8083TIP3    H124190   6.906   3.179   6.719
 8083TIP3    H224191   6.870   3.314   6.778
 8084TIP3   OH224192   6.081   4.767   2.490
 8084TIP3    H124193   6.003   4.822   2.502
 8084TIP3    H224194   6.086   4.714   2.570
 8085TIP3   OH224195   0.335   6.479   0.826
 8085TIP3    H124196   0.382   6.479   0.909
 8085TIP3    H224197   0.380   6.544   0.773
 8086TIP3   OH224198   7.415   2.692   2.566
 8086TIP3    H124199   7.418   2.657   2.477
 8086TIP3    H224200   7.325   2.723   2.576
 8087TIP3   OH224201   1.460   0.112   3.065
 8087TIP3    H124202   1.441   0.018   3.066
 8087TIP3    H224203   1.531   0.121   3.001
 8088TIP3   OH224204   5.582   1.172   3.622
 8088TIP3    H124205   5.586   1.137   3.534
 8088TIP3    H224206   5.501   1.224   3.623
 8089TIP3   OH224207   0.679   1.650   5.495
 8089TIP3    H124208   0.627   1.586   5.543
 8089TIP3    H224209   0.616   1.716   5.467
 8090TIP3   OH224210   4.112   4.100   5.021
 8090TIP3    H124211   4.049   4.133   5.086
 8090TIP3    H224212   4.080   4.134   4.938
 8091TIP3   OH224213   1.006   6.171   1.922
 8091TIP3    H124214   0.936   6.160   1.857
 8091TIP3    H224215   0.978   6.247   1.973
 8092TIP3   OH224216   4.991   1.153   0.851
 8092TIP3    H124217   4.973   1.069   0.808
 8092TIP3    H224218   4.922   1.161   0.917
 8093TIP3   OH224219   6.017   6.731   1.634
 8093TIP3    H124220   5.924   6.743   1.619
 8093TIP3    H224221   6.038   6.647   1.593
 8094TIP3   OH224222   5.774   6.053   4.220
 8094TIP3    H124223   5.840   6.101   4.270
 8094TIP3    H224224   5.710   6.119   4.195
 8095TIP3   OH224225   2.830   4.501   3.189
 8095TIP3    H124226   2.867   4.588   3.199
 8095TIP3    H224227   2.813   4.472   3.279
 8096TIP3   OH224228   4.904   7.138   1.415
 8096TIP3    H124229   4.831   7.143   1.477
 8096TIP3    H224230   4.940   7.227   1.414
 8097TIP3   OH224231   4.234   5.785   3.593
 8097TIP3    H124232   4.259   5.835   3.670
 8097TIP3    H224233   4.203   5.850   3.530
 8098TIP3   OH224234   4.015   4.957   0.886
 8098TIP3    H124235   4.084   5.003   0.934
 8098TIP3    H224236   3.934   4.985   0.928
 8099TIP3   OH224237   3.664   3.043   6.676
 8099TIP3    H124238   3.666   2.949   6.693
 8099TIP3    H224239   3.610   3.079   6.747
 8100TIP3   OH224240   8.358   0.473   4.646
 8100TIP3    H124241   8.322   0.561   4.655
 8100TIP3    H224242   8.449   0.481   4.674
 8101TIP3   OH224243   8.021   2.891   6.557
 8101TIP3    H124244   8.045   2.947   6.483
 8101TIP3    H224245   8.044   2.802   6.529
 8102TIP3   OH224246   6.822   5.893   2.714
 8102TIP3    H124247   6.844   5.865   2.625
 8102TIP3    H224248   6.905   5.890   2.762
 8103TIP3   OH224249   2.637   4.799   3.408
 8103TIP3    H124250   2.715   4.809   3.463
 8103TIP3    H224251   2.654   4.857   3.333
 8104TIP3   OH224252   2.193   3.432   2.316
 8104TIP3    H124253   2.113   3.485   2.318
 8104TIP3    H224254   2.191   3.384   2.399
 8105TIP3   OH224255   4.197   4.380   0.047
 8105TIP3    H124256   4.215   4.473   0.061
 8105TIP3    H224257   4.276   4.336   0.079
 8106TIP3   OH224258   4.727   0.348   4.744
 8106TIP3    H124259   4.657   0.404   4.778
 8106TIP3    H224260   4.779   0.406   4.688
 8107TIP3   OH224261   6.212   0.207   5.675
 8107TIP3    H124262   6.174   0.175   5.593
 8107TIP3    H224263   6.212   0.302   5.666
 8108TIP3   OH224264   1.582   5.273   1.546
 8108TIP3    H124265   1.531   5.345   1.508
 8108TIP3    H224266   1.524   5.234   1.611
 8109TIP3   OH224267   3.822   5.217   0.842
 8109TIP3    H124268   3.801   5.148   0.905
 8109TIP3    H224269   3.820   5.298   0.893
 8110TIP3   OH224270   6.180   1.125   4.464
 8110TIP3    H124271   6.245   1.056   4.448
 8110TIP3    H224272   6.130   1.094   4.539
 8111TIP3   OH224273   0.055   7.410   2.398
 8111TIP3    H124274   0.131   7.435   2.345
 8111TIP3    H224275  -0.019   7.455   2.356
 8112TIP3   OH224276   6.631   6.133   4.216
 8112TIP3    H124277   6.642   6.100   4.305
 8112TIP3    H224278   6.547   6.180   4.218
 8113TIP3   OH224279   1.562   4.908   0.185
 8113TIP3    H124280   1.611   4.929   0.265
 8113TIP3    H224281   1.494   4.975   0.180
 8114TIP3   OH224282   5.102   2.240   4.110
 8114TIP3    H124283   5.127   2.332   4.118
 8114TIP3    H224284   5.128   2.201   4.194
 8115TIP3   OH224285   6.054   6.792   2.497
 8115TIP3    H124286   5.978   6.798   2.440
 8115TIP3    H224287   6.042   6.710   2.546
 8116TIP3   OH224288   2.874   6.286   1.178
 8116TIP3    H124289   2.833   6.328   1.253
 8116TIP3    H224290   2.808   6.290   1.109
 8117TIP3   OH224291   7.497   7.484   2.716
 8117TIP3    H124292   7.413   7.474   2.672
 8117TIP3    H224293   7.537   7.397   2.714
 8118TIP3   OH224294   8.337   3.793   1.449
 8118TIP3    H124295   8.411   3.788   1.509
 8118TIP3    H224296   8.376   3.808   1.363
 8119TIP3   OH224297   0.757   2.408   0.149
 8119TIP3    H124298   0.848   2.420   0.122
 8119TIP3    H224299   0.716   2.493   0.132
 8120TIP3   OH224300   0.341   4.836   4.936
 8120TIP3    H124301   0.294   4.753   4.938
 8120TIP3    H224302   0.418   4.821   4.991
 8121TIP3   OH224303   5.956   7.379   0.975
 8121TIP3    H124304   5.885   7.436   0.947
 8121TIP3    H224305   6.023   7.389   0.907
 8122TIP3   OH224306   4.815   5.644   5.916
 8122TIP3    H124307   4.729   5.671   5.882
 8122TIP3    H224308   4.854   5.724   5.950
 8123TIP3   OH224309   4.268   1.437   4.434
 8123TIP3    H124310   4.316   1.481   4.364
 8123TIP3    H224311   4.307   1.471   4.514
 8124TIP3   OH224312   8.267   5.046   4.605
 8124TIP3    H124313   8.343   4.992   4.584
 8124TIP3    H224314   8.296   5.102   4.676
 8125TIP3   OH224315   2.688   6.488   5.212
 8125TIP3    H124316   2.705   6.582   5.209
 8125TIP3    H224317   2.605   6.476   5.166
 8126TIP3   OH224318   4.030   7.059   5.731
 8126TIP3    H124319   4.120   7.066   5.763
 8126TIP3    H224320   4.037   7.061   5.636
 8127TIP3   OH224321   7.453   0.365   0.091
 8127TIP3    H124322   7.427   0.453   0.118
 8127TIP3    H224323   7.547   0.371   0.075
 8128TIP3   OH224324   1.295   0.138   6.563
 8128TIP3    H124325   1.292   0.223   6.607
 8128TIP3    H224326   1.360   0.088   6.614
 8129TIP3   OH224327   1.412   0.861   1.250
 8129TIP3    H124328   1.320   0.841   1.232
 8129TIP3    H224329   1.461   0.795   1.200
 8130TIP3   OH224330   1.108   5.865   6.566
 8130TIP3    H124331   1.035   5.828   6.617
 8130TIP3    H224332   1.183   5.810   6.588
 8131TIP3   OH224333   6.207   4.792   1.953
 8131TIP3    H124334   6.139   4.779   2.020
 8131TIP3    H224335   6.166   4.852   1.890
 8132TIP3   OH224336   3.469   0.614   5.252
 8132TIP3    H124337   3.453   0.532   5.206
 8132TIP3    H224338   3.410   0.612   5.327
 8133TIP3   OH224339   3.027   7.783   0.065
 8133TIP3    H124340   3.024   7.862   0.118
 8133TIP3    H224341   2.994   7.809  -0.021
 8134TIP3   OH224342   4.509   6.395   1.380
 8134TIP3    H124343   4.504   6.424   1.471
 8134TIP3    H224344   4.433   6.339   1.368
 8135TIP3   OH224345   3.363   5.126   6.026
 8135TIP3    H124346   3.286   5.069   6.020
 8135TIP3    H224347   3.419   5.084   6.092
 8136TIP3   OH224348   2.466   3.397   6.450
 8136TIP3    H124349   2.488   3.332   6.384
 8136TIP3    H224350   2.389   3.442   6.415
 8137TIP3   OH224351   5.062   1.807   0.910
 8137TIP3    H124352   5.011   1.811   0.830
 8137TIP3    H224353   5.138   1.863   0.894
 8138TIP3   OH224354   0.017   0.478   6.708
 8138TIP3    H124355  -0.041   0.541   6.751
 8138TIP3    H224356   0.009   0.398   6.759
 8139TIP3   OH224357   4.339   2.340   5.949
 8139TIP3    H124358   4.377   2.288   5.877
 8139TIP3    H224359   4.414   2.367   6.001
 8140TIP3   OH224360   0.468   5.613   2.023
 8140TIP3    H124361   0.380   5.627   2.059
 8140TIP3    H224362   0.452   5.579   1.935
 8141TIP3   OH224363   4.575   7.742   2.629
 8141TIP3    H124364   4.589   7.734   2.534
 8141TIP3    H224365   4.656   7.780   2.662
 8142TIP3   OH224366   7.841   7.815   1.952
 8142TIP3    H124367   7.936   7.806   1.946
 8142TIP3    H224368   7.827   7.880   2.020
 8143TIP3   OH224369   5.384   1.078   2.911
 8143TIP3    H124370   5.459   1.131   2.937
 8143TIP3    H224371   5.399   0.993   2.953
 8144TIP3   OH224372   0.744   5.464   1.919
 8144TIP3    H124373   0.738   5.511   1.836
 8144TIP3    H224374   0.654   5.440   1.940
 8145TIP3   OH224375   6.897   7.089   4.751
 8145TIP3    H124376   6.942   7.170   4.727
 8145TIP3    H224377   6.819   7.088   4.695
 8146TIP3   OH224378   2.435   1.091   3.416
 8146TIP3    H124379   2.347   1.123   3.433
 8146TIP3    H224380   2.483   1.167   3.384
 8147TIP3   OH224381   4.690   5.929   5.844
 8147TIP3    H124382   4.611   5.920   5.897
 8147TIP3    H224383   4.664   5.985   5.771
 8148TIP3   OH224384   0.034   0.610   5.899
 8148TIP3    H124385   0.077   0.696   5.893
 8148TIP3    H224386  -0.038   0.615   5.836
 8149TIP3   OH224387   6.088   7.745   2.975
 8149TIP3    H124388   6.047   7.804   3.039
 8149TIP3    H224389   6.182   7.762   2.984
 8150TIP3   OH224390   5.867   0.948   1.177
 8150TIP3    H124391   5.943   1.005   1.164
 8150TIP3    H224392   5.838   0.927   1.088
 8151TIP3   OH224393   5.208   5.678   6.459
 8151TIP3    H124394   5.226   5.749   6.397
 8151TIP3    H224395   5.295   5.651   6.489
 8152TIP3   OH224396   1.988   4.882   4.638
 8152TIP3    H124397   1.905   4.851   4.602
 8152TIP3    H224398   1.964   4.955   4.695
 8153TIP3   OH224399   0.865   3.453   6.545
 8153TIP3    H124400   0.948   3.499   6.529
 8153TIP3    H224401   0.830   3.436   6.458
 8154TIP3   OH224402   0.802   3.679   2.098
 8154TIP3    H124403   0.825   3.644   2.184
 8154TIP3    H224404   0.774   3.769   2.115
 8155TIP3   OH224405   2.021   0.453   6.724
 8155TIP3    H124406   1.971   0.382   6.684
 8155TIP3    H224407   1.956   0.504   6.772
 8156TIP3   OH224408   7.952   7.456   0.853
 8156TIP3    H124409   7.885   7.521   0.834
 8156TIP3    H224410   7.905   7.383   0.894
 8157TIP3   OH224411   0.694   6.347   5.758
 8157TIP3    H124412   0.747   6.297   5.820
 8157TIP3    H224413   0.665   6.424   5.807
 8158TIP3   OH224414   7.684   1.927   2.537
 8158TIP3    H124415   7.709   1.941   2.445
 8158TIP3    H224416   7.767   1.908   2.581
 8159TIP3   OH224417   6.361   5.250   4.447
 8159TIP3    H124418   6.376   5.187   4.518
 8159TIP3    H224419   6.397   5.332   4.480
 8160TIP3   OH224420   3.345   1.331   1.248
 8160TIP3    H124421   3.353   1.322   1.153
 8160TIP3    H224422   3.311   1.420   1.260
 8161TIP3   OH224423   4.746   3.531   5.047
 8161TIP3    H124424   4.815   3.477   5.009
 8161TIP3    H224425   4.680   3.468   5.076
 8162TIP3   OH224426   7.637   1.851   2.817
 8162TIP3    H124427   7.646   1.930   2.764
 8162TIP3    H224428   7.708   1.794   2.789
 8163TIP3   OH224429   1.069   0.092   5.895
 8163TIP3    H124430   1.161   0.077   5.872
 8163TIP3    H224431   1.030   0.004   5.896
 8164TIP3   OH224432   6.169   0.348   4.156
 8164TIP3    H124433   6.134   0.275   4.106
 8164TIP3    H224434   6.103   0.364   4.224
 8165TIP3   OH224435   5.346   7.570   0.122
 8165TIP3    H124436   5.413   7.631   0.092
 8165TIP3    H224437   5.395   7.496   0.159
 8166TIP3   OH224438   1.747   5.714   4.723
 8166TIP3    H124439   1.736   5.791   4.779
 8166TIP3    H224440   1.778   5.645   4.781
 8167TIP3   OH224441   1.381   0.660   2.869
 8167TIP3    H124442   1.287   0.674   2.856
 8167TIP3    H224443   1.392   0.661   2.964
 8168TIP3   OH224444   1.534   7.813   3.151
 8168TIP3    H124445   1.590   7.843   3.223
 8168TIP3    H224446   1.459   7.772   3.195
 8169TIP3   OH224447   7.266   4.251   1.520
 8169TIP3    H124448   7.213   4.220   1.447
 8169TIP3    H224449   7.355   4.255   1.484
 8170TIP3   OH224450   1.337   1.256   6.020
 8170TIP3    H124451   1.358   1.187   5.957
 8170TIP3    H224452   1.266   1.220   6.073
 8171TIP3   OH224453   7.636   7.267   4.627
 8171TIP3    H124454   7.704   7.333   4.641
 8171TIP3    H224455   7.683   7.194   4.586
 8172TIP3   OH224456   7.269   4.846   6.003
 8172TIP3    H124457   7.304   4.883   6.084
 8172TIP3    H224458   7.341   4.853   5.940
 8173TIP3   OH224459   0.782   2.093   4.533
 8173TIP3    H124460   0.835   2.020   4.565
 8173TIP3    H224461   0.694   2.056   4.525
 8174TIP3   OH224462   4.022   5.056   0.610
 8174TIP3    H124463   4.106   5.011   0.607
 8174TIP3    H224464   3.982   5.028   0.693
 8175TIP3   OH224465   1.490   6.461   1.566
 8175TIP3    H124466   1.513   6.382   1.614
 8175TIP3    H224467   1.426   6.506   1.621
 8176TIP3   OH224468   3.710   3.698   0.183
 8176TIP3    H124469   3.675   3.666   0.100
 8176TIP3    H224470   3.637   3.693   0.244
 8177TIP3   OH224471   5.174   6.689   6.602
 8177TIP3    H124472   5.201   6.778   6.579
 8177TIP3    H224473   5.114   6.700   6.676
 8178TIP3   OH224474   1.732   6.900   6.445
 8178TIP3    H124475   1.768   6.976   6.490
 8178TIP3    H224476   1.667   6.864   6.506
 8179TIP3   OH224477   7.219   2.358   0.310
 8179TIP3    H124478   7.147   2.417   0.287
 8179TIP3    H224479   7.254   2.330   0.226
 8180TIP3   OH224480   1.048   1.307   5.017
 8180TIP3    H124481   0.998   1.345   5.089
 8180TIP3    H224482   1.060   1.380   4.955
 8181TIP3   OH224483   7.909   0.892   3.209
 8181TIP3    H124484   7.926   0.860   3.297
 8181TIP3    H224485   7.995   0.917   3.175
 8182TIP3   OH224486   1.034   3.624   1.741
 8182TIP3    H124487   1.063   3.569   1.813
 8182TIP3    H224488   1.115   3.654   1.699
 8183TIP3   OH224489   0.300   3.786   4.908
 8183TIP3    H124490   0.330   3.780   4.817
 8183TIP3    H224491   0.235   3.856   4.907
 8184TIP3   OH224492   2.323   4.777   3.897
 8184TIP3    H124493   2.247   4.814   3.851
 8184TIP3    H224494   2.328   4.827   3.979
 8185TIP3   OH224495   5.719   3.144   1.464
 8185TIP3    H124496   5.714   3.118   1.372
 8185TIP3    H224497   5.671   3.076   1.511
 8186TIP3   OH224498   3.009   0.970   5.479
 8186TIP3    H124499   3.096   0.966   5.518
 8186TIP3    H224500   3.025   0.979   5.385
 8187TIP3   OH224501   3.721   3.419   0.394
 8187TIP3    H124502   3.649   3.464   0.439
 8187TIP3    H224503   3.777   3.387   0.464
 8188TIP3   OH224504   6.259   4.430   2.170
 8188TIP3    H124505   6.174   4.468   2.189
 8188TIP3    H224506   6.322   4.501   2.183
 8189TIP3   OH224507   8.153   7.567   0.679
 8189TIP3    H124508   8.100   7.489   0.667
 8189TIP3    H224509   8.092   7.634   0.709
 8190TIP3   OH224510   6.338   4.521   4.508
 8190TIP3    H124511   6.398   4.564   4.568
 8190TIP3    H224512   6.306   4.591   4.451
 8191TIP3   OH224513   6.733   0.412   1.463
 8191TIP3    H124514   6.773   0.406   1.549
 8191TIP3    H224515   6.684   0.331   1.453
 8192TIP3   OH224516   4.052   1.438   0.980
 8192TIP3    H124517   4.047   1.349   1.015
 8192TIP3    H224518   4.010   1.432   0.894
 8193TIP3   OH224519   5.990   5.266   2.431
 8193TIP3    H124520   5.979   5.326   2.357
 8193TIP3    H224521   5.900   5.246   2.458
 8194TIP3   OH224522   2.350   3.704   5.413
 8194TIP3    H124523   2.308   3.761   5.477
 8194TIP3    H224524   2.283   3.639   5.390
 8195TIP3   OH224525   6.469   5.625   4.116
 8195TIP3    H124526   6.430   5.638   4.202
 8195TIP3    H224527   6.514   5.708   4.097
 8196TIP3   OH224528   4.688   5.205   3.044
 8196TIP3    H124529   4.697   5.130   3.103
 8196TIP3    H224530   4.646   5.273   3.097
 8197TIP3   OH224531   5.548   4.339   0.964
 8197TIP3    H124532   5.563   4.327   1.057
 8197TIP3    H224533   5.602   4.415   0.940
 8198TIP3   OH224534   0.274   1.693   4.213
 8198TIP3    H124535   0.247   1.649   4.132
 8198TIP3    H224536   0.218   1.771   4.217
 8199TIP3   OH224537   4.018   5.622   4.096
 8199TIP3    H124538   3.994   5.545   4.148
 8199TIP3    H224539   4.098   5.654   4.137
 8200TIP3   OH224540   1.175   4.382   5.108
 8200TIP3    H124541   1.087   4.412   5.085
 8200TIP3    H224542   1.186   4.408   5.200
 8201TIP3   OH224543   4.035   0.874   1.921
 8201TIP3    H124544   3.962   0.813   1.907
 8201TIP3    H224545   4.110   0.817   1.937
 8202TIP3   OH224546   4.864   0.788   5.612
 8202TIP3    H124547   4.872   0.824   5.524
 8202TIP3    H224548   4.882   0.694   5.601
 8203TIP3   OH224549   2.581   5.010   4.232
 8203TIP3    H124550   2.663   5.042   4.270
 8203TIP3    H224551   2.539   5.088   4.195
 8204TIP3   OH224552   2.862  -0.075   0.774
 8204TIP3    H124553   2.870   0.011   0.816
 8204TIP3    H224554   2.873  -0.057   0.681
 8205TIP3   OH224555   1.957   2.068   1.482
 8205TIP3    H124556   1.872   2.078   1.437
 8205TIP3    H224557   1.947   1.988   1.533
 8206TIP3   OH224558   8.207   6.184   5.265
 8206TIP3    H124559   8.150   6.187   5.342
 8206TIP3    H224560   8.201   6.271   5.227
 8207TIP3   OH224561   7.157   4.625   4.444
 8207TIP3    H124562   7.244   4.662   4.460
 8207TIP3    H224563   7.102   4.665   4.512
 8208TIP3   OH224564   7.335   5.785   5.508
 8208TIP3    H124565   7.364   5.717   5.569
 8208TIP3    H224566   7.253   5.752   5.472
 8209TIP3   OH224567   5.044   0.378   3.053
 8209TIP3    H124568   5.020   0.401   3.143
 8209TIP3    H224569   4.982   0.309   3.029
 8210TIP3   OH224570   1.781   5.062   5.490
 8210TIP3    H124571   1.875   5.048   5.478
 8210TIP3    H224572   1.740   4.980   5.462
 8211TIP3   OH224573   4.186   0.495   6.863
 8211TIP3    H124574   4.186   0.529   6.773
 8211TIP3    H224575   4.236   0.559   6.913
 8212TIP3   OH224576   0.524   1.457   5.671
 8212TIP3    H124577   0.460   1.519   5.636
 8212TIP3    H224578   0.511   1.378   5.619
 8213TIP3   OH224579   1.299   6.041   1.691
 8213TIP3    H124580   1.230   5.975   1.693
 8213TIP3    H224581   1.329   6.047   1.782
 8214TIP3   OH224582   6.008   2.159   5.313
 8214TIP3    H124583   6.041   2.238   5.269
 8214TIP3    H224584   5.913   2.163   5.302
 8215TIP3   OH224585   5.684   4.652   5.689
 8215TIP3    H124586   5.592   4.661   5.714
 8215TIP3    H224587   5.702   4.730   5.637
 8216TIP3   OH224588   1.641   4.859   2.813
 8216TIP3    H124589   1.715   4.812   2.772
 8216TIP3    H224590   1.565   4.803   2.797
 8217TIP3   OH224591   8.257   5.545   6.540
 8217TIP3    H124592   8.213   5.570   6.621
 8217TIP3    H224593   8.194   5.564   6.471
 8218TIP3   OH224594   0.547   2.195   5.245
 8218TIP3    H124595   0.518   2.271   5.195
 8218TIP3    H224596   0.476   2.179   5.308
 8219TIP3   OH224597   2.623   0.922   0.942
 8219TIP3    H124598   2.673   0.965   1.011
 8219TIP3    H224599   2.541   0.971   0.937
 8220TIP3   OH224600   2.441   7.675   5.127
 8220TIP3    H124601   2.498   7.643   5.056
 8220TIP3    H224602   2.501   7.717   5.188
 8221TIP3   OH224603   1.700   6.890   0.995
 8221TIP3    H124604   1.686   6.827   0.924
 8221TIP3    H224605   1.740   6.839   1.065
 8222TIP3   OH224606   8.282   4.156   5.733
 8222TIP3    H124607   8.225   4.085   5.702
 8222TIP3    H224608   8.356   4.155   5.672
 8223TIP3   OH224609   2.708   2.116   5.949
 8223TIP3    H124610   2.782   2.160   5.908
 8223TIP3    H224611   2.722   2.023   5.929
 8224TIP3   OH224612   0.258   3.920   0.611
 8224TIP3    H124613   0.205   3.873   0.675
 8224TIP3    H224614   0.243   3.873   0.529
 8225TIP3   OH224615   2.325   6.865   5.133
 8225TIP3    H124616   2.269   6.942   5.140
 8225TIP3    H224617   2.277   6.805   5.076
 8226TIP3   OH224618   0.482   2.837   0.818
 8226TIP3    H124619   0.432   2.838   0.900
 8226TIP3    H224620   0.572   2.821   0.846
 8227TIP3   OH224621   7.552   4.526   0.226
 8227TIP3    H124622   7.632   4.486   0.260
 8227TIP3    H224623   7.488   4.515   0.296
 8228TIP3   OH224624   6.138   7.123   4.954
 8228TIP3    H124625   6.224   7.117   4.914
 8228TIP3    H224626   6.125   7.216   4.970
 8229TIP3   OH224627   4.381   3.700   6.053
 8229TIP3    H124628   4.416   3.714   6.141
 8229TIP3    H224629   4.306   3.760   6.047
 8230TIP3   OH224630   3.803   5.263   3.962
 8230TIP3    H124631   3.795   5.256   3.867
 8230TIP3    H224632   3.752   5.340   3.985
 8231TIP3   OH224633   8.202   7.380   6.502
 8231TIP3    H124634   8.179   7.464   6.541
 8231TIP3    H224635   8.173   7.387   6.411
 8232TIP3   OH224636   5.077   1.310   3.628
 8232TIP3    H124637   5.006   1.282   3.570
 8232TIP3    H224638   5.137   1.357   3.569
 8233TIP3   OH224639   4.617   1.416   5.045
 8233TIP3    H124640   4.676   1.370   5.104
 8233TIP3    H224641   4.536   1.426   5.096
 8234TIP3   OH224642   4.318   7.823   2.686
 8234TIP3    H124643   4.405   7.803   2.652
 8234TIP3    H224644   4.315   7.781   2.772
 8235TIP3   OH224645   2.869   5.995   3.359
 8235TIP3    H124646   2.877   6.032   3.271
 8235TIP3    H224647   2.785   5.949   3.358
 8236TIP3   OH224648   4.778   3.432   1.848
 8236TIP3    H124649   4.871   3.457   1.850
 8236TIP3    H224650   4.730   3.514   1.854
 8237TIP3   OH224651   6.567   0.079   3.174
 8237TIP3    H124652   6.593   0.163   3.135
 8237TIP3    H224653   6.589   0.088   3.267
 8238TIP3   OH224654   0.598   2.096   6.381
 8238TIP3    H124655   0.547   2.131   6.308
 8238TIP3    H224656   0.689   2.106   6.354
 8239TIP3   OH224657   7.244   7.135   1.838
 8239TIP3    H124658   7.218   7.054   1.794
 8239TIP3    H224659   7.337   7.146   1.815
 8240TIP3   OH224660   7.951   2.987   2.900
 8240TIP3    H124661   7.956   2.895   2.928
 8240TIP3    H224662   7.857   3.003   2.889
 8241TIP3   OH224663   6.481   4.169   6.270
 8241TIP3    H124664   6.457   4.213   6.189
 8241TIP3    H224665   6.557   4.217   6.302
 8242TIP3   OH224666   4.374   1.968   3.293
 8242TIP3    H124667   4.332   1.928   3.369
 8242TIP3    H224668   4.351   1.910   3.220
 8243TIP3   OH224669   6.916   1.319   6.227
 8243TIP3    H124670   6.945   1.394   6.174
 8243TIP3    H224671   6.884   1.358   6.308
 8244TIP3   OH224672   2.491   3.161   6.625
 8244TIP3    H124673   2.419   3.124   6.574
 8244TIP3    H224674   2.491   3.254   6.604
 8245TIP3   OH224675   7.463   5.536   5.884
 8245TIP3    H124676   7.482   5.626   5.911
 8245TIP3    H224677   7.403   5.504   5.951
 8246TIP3   OH224678   3.501   7.127   3.362
 8246TIP3    H124679   3.439   7.098   3.296
 8246TIP3    H224680   3.587   7.117   3.320
 8247TIP3   OH224681   0.492   0.132   6.800
 8247TIP3    H124682   0.423   0.192   6.773
 8247TIP3    H224683   0.542   0.181   6.865
 8248TIP3   OH224684   5.265   1.576   2.586
 8248TIP3    H124685   5.342   1.612   2.630
 8248TIP3    H224686   5.272   1.482   2.599
 8249TIP3   OH224687   4.118   4.352   0.557
 8249TIP3    H124688   4.127   4.412   0.631
 8249TIP3    H224689   4.202   4.356   0.512
 8250TIP3   OH224690   0.260   1.659   1.412
 8250TIP3    H124691   0.273   1.664   1.507
 8250TIP3    H224692   0.191   1.594   1.401
 8251TIP3   OH224693   7.574   7.299   6.318
 8251TIP3    H124694   7.482   7.315   6.339
 8251TIP3    H224695   7.576   7.294   6.222
 8252TIP3   OH224696   2.984   3.096   1.785
 8252TIP3    H124697   3.050   3.163   1.770
 8252TIP3    H224698   2.971   3.056   1.699
 8253TIP3   OH224699   1.264   4.123   4.484
 8253TIP3    H124700   1.250   4.195   4.545
 8253TIP3    H224701   1.241   4.159   4.399
 8254TIP3   OH224702   1.336   4.465   5.850
 8254TIP3    H124703   1.288   4.441   5.929
 8254TIP3    H224704   1.281   4.531   5.808
 8255TIP3   OH224705   5.967   0.347   1.461
 8255TIP3    H124706   6.049   0.387   1.490
 8255TIP3    H224707   5.982   0.324   1.369
 8256TIP3   OH224708   6.395   1.934   4.772
 8256TIP3    H124709   6.473   1.967   4.728
 8256TIP3    H224710   6.327   1.998   4.749
 8257TIP3   OH224711   2.444   4.068   2.240
 8257TIP3    H124712   2.457   4.036   2.329
 8257TIP3    H224713   2.480   3.999   2.184
 8258TIP3   OH224714   3.256   6.052   2.449
 8258TIP3    H124715   3.183   6.114   2.445
 8258TIP3    H224716   3.215   5.967   2.469
 8259TIP3   OH224717   5.772   3.205   0.608
 8259TIP3    H124718   5.714   3.275   0.635
 8259TIP3    H224719   5.812   3.236   0.526
 8260TIP3   OH224720   3.675   2.052   3.352
 8260TIP3    H124721   3.755   2.056   3.298
 8260TIP3    H224722   3.604   2.069   3.290
 8261TIP3   OH224723   7.173   2.040   4.798
 8261TIP3    H124724   7.196   1.948   4.811
 8261TIP3    H224725   7.217   2.086   4.869
 8262TIP3   OH224726   5.605   1.539   5.834
 8262TIP3    H124727   5.606   1.606   5.766
 8262TIP3    H224728   5.518   1.499   5.827
 8263TIP3   OH224729   2.107   5.242   5.321
 8263TIP3    H124730   2.031   5.276   5.369
 8263TIP3    H224731   2.109   5.293   5.240
 8264TIP3   OH224732   4.477   2.858   0.073
 8264TIP3    H124733   4.444   2.850   0.163
 8264TIP3    H224734   4.480   2.952   0.057
 8265TIP3   OH224735   0.359   6.790   3.366
 8265TIP3    H124736   0.373   6.871   3.317
 8265TIP3    H224737   0.274   6.758   3.335
 8266TIP3   OH224738   4.426   0.064   6.782
 8266TIP3    H124739   4.461  -0.010   6.832
 8266TIP3    H224740   4.453   0.046   6.691
 8267TIP3   OH224741   0.632   4.080   3.371
 8267TIP3    H124742   0.653   4.044   3.285
 8267TIP3    H224743   0.536   4.085   3.372
 8268TIP3   OH224744   5.478   6.096   2.792
 8268TIP3    H124745   5.529   6.145   2.857
 8268TIP3    H224746   5.470   6.156   2.718
 8269TIP3   OH224747   3.316   5.853   6.625
 8269TIP3    H124748   3.265   5.803   6.690
 8269TIP3    H224749   3.356   5.786   6.570
 8270TIP3   OH224750   0.396   1.234   1.042
 8270TIP3    H124751   0.448   1.205   0.967
 8270TIP3    H224752   0.440   1.313   1.073
 8271TIP3   OH224753   3.428   6.286   2.476
 8271TIP3    H124754   3.347   6.325   2.509
 8271TIP3    H224755   3.409   6.193   2.469
 8272TIP3   OH224756   3.257   2.197   0.312
 8272TIP3    H124757   3.244   2.290   0.294
 8272TIP3    H224758   3.352   2.186   0.308
 8273TIP3   OH224759   6.156   3.549   1.296
 8273TIP3    H124760   6.155   3.572   1.389
 8273TIP3    H224761   6.081   3.596   1.260
 8274TIP3   OH224762   7.779   6.165   2.189
 8274TIP3    H124763   7.697   6.200   2.153
 8274TIP3    H224764   7.844   6.233   2.168
 8275TIP3   OH224765   1.175   5.254   1.256
 8275TIP3    H124766   1.200   5.344   1.234
 8275TIP3    H224767   1.120   5.263   1.334
 8276TIP3   OH224768   7.755   3.001   6.402
 8276TIP3    H124769   7.772   2.913   6.433
 8276TIP3    H224770   7.806   3.058   6.460
 8277TIP3   OH224771   4.080   4.644   3.156
 8277TIP3    H124772   4.084   4.670   3.064
 8277TIP3    H224773   4.089   4.549   3.155
 8278TIP3   OH224774  -0.010   1.028   4.601
 8278TIP3    H124775  -0.019   1.113   4.646
 8278TIP3    H224776   0.022   0.969   4.669
 8279TIP3   OH224777   3.654   5.341   3.128
 8279TIP3    H124778   3.652   5.389   3.046
 8279TIP3    H224779   3.724   5.277   3.118
 8280TIP3   OH224780   6.717   4.380   5.711
 8280TIP3    H124781   6.770   4.340   5.780
 8280TIP3    H224782   6.765   4.460   5.689
 8281TIP3   OH224783   0.971   5.653   0.998
 8281TIP3    H124784   0.979   5.598   0.920
 8281TIP3    H224785   0.900   5.613   1.049
 8282TIP3   OH224786   4.863   6.566   2.549
 8282TIP3    H124787   4.957   6.576   2.560
 8282TIP3    H224788   4.832   6.651   2.520
 8283TIP3   OH224789   0.498   2.817   5.892
 8283TIP3    H124790   0.538   2.801   5.807
 8283TIP3    H224791   0.408   2.843   5.872
 8284TIP3   OH224792   5.479   0.943   4.986
 8284TIP3    H124793   5.436   0.863   5.015
 8284TIP3    H224794   5.501   0.990   5.066
 8285TIP3   OH224795   4.085   6.554   6.251
 8285TIP3    H124796   4.130   6.548   6.166
 8285TIP3    H224797   4.135   6.496   6.308
 8286TIP3   OH224798   1.092   3.508   0.893
 8286TIP3    H124799   1.187   3.494   0.890
 8286TIP3    H224800   1.074   3.523   0.986
 8287TIP3   OH224801   4.168   5.467   0.769
 8287TIP3    H124802   4.099   5.489   0.707
 8287TIP3    H224803   4.123   5.427   0.843
 8288TIP3   OH224804   4.077   6.054   4.875
 8288TIP3    H124805   3.991   6.016   4.856
 8288TIP3    H224806   4.066   6.148   4.857
 8289TIP3   OH224807   1.535   0.483   2.760
 8289TIP3    H124808   1.559   0.510   2.671
 8289TIP3    H224809   1.488   0.559   2.795
 8290TIP3   OH224810   3.679   6.641   4.318
 8290TIP3    H124811   3.768   6.652   4.351
 8290TIP3    H224812   3.624   6.693   4.377
 8291TIP3   OH224813   4.980   5.178   2.090
 8291TIP3    H124814   4.964   5.202   1.999
 8291TIP3    H224815   4.931   5.097   2.103
 8292TIP3   OH224816   6.016   0.831   3.778
 8292TIP3    H124817   5.957   0.830   3.854
 8292TIP3    H224818   5.977   0.895   3.719
 8293TIP3   OH224819   6.515   3.493   3.197
 8293TIP3    H124820   6.576   3.419   3.190
 8293TIP3    H224821   6.472   3.497   3.112
 8294TIP3   OH224822   2.691   1.920   5.014
 8294TIP3    H124823   2.650   1.882   4.936
 8294TIP3    H224824   2.718   1.845   5.066
 8295TIP3   OH224825   0.959   0.087   4.852
 8295TIP3    H124826   0.883   0.040   4.887
 8295TIP3    H224827   1.004   0.121   4.929
 8296TIP3   OH224828   4.732   5.299   3.973
 8296TIP3    H124829   4.795   5.284   4.044
 8296TIP3    H224830   4.761   5.243   3.902
 8297TIP3   OH224831   0.591   7.647   6.784
 8297TIP3    H124832   0.626   7.627   6.697
 8297TIP3    H224833   0.667   7.652   6.841
 8298TIP3   OH224834   6.346   7.193   6.191
 8298TIP3    H124835   6.355   7.100   6.171
 8298TIP3    H224836   6.378   7.238   6.113
 8299TIP3   OH224837   3.081   2.582   3.352
 8299TIP3    H124838   3.032   2.633   3.288
 8299TIP3    H224839   3.160   2.556   3.306
 8300TIP3   OH224840   1.671   3.505   0.629
 8300TIP3    H124841   1.704   3.472   0.545
 8300TIP3    H224842   1.707   3.445   0.694
 8301TIP3   OH224843   2.080   0.939   4.536
 8301TIP3    H124844   2.113   0.923   4.448
 8301TIP3    H224845   2.015   0.870   4.550
 8302TIP3   OH224846   0.349   2.356   2.311
 8302TIP3    H124847   0.315   2.355   2.222
 8302TIP3    H224848   0.319   2.273   2.348
 8303TIP3   OH224849   1.430   1.990   1.732
 8303TIP3    H124850   1.469   1.958   1.651
 8303TIP3    H224851   1.365   2.055   1.704
 8304TIP3   OH224852   3.588   1.077   5.532
 8304TIP3    H124853   3.551   1.111   5.450
 8304TIP3    H224854   3.569   0.983   5.529
 8305TIP3   OH224855   1.804   2.798   2.328
 8305TIP3    H124856   1.794   2.751   2.245
 8305TIP3    H224857   1.814   2.890   2.302
 8306TIP3   OH224858   1.409   1.551   3.635
 8306TIP3    H124859   1.319   1.519   3.627
 8306TIP3    H224860   1.408   1.607   3.712
 8307TIP3   OH224861   4.288   1.082   3.383
 8307TIP3    H124862   4.208   1.058   3.430
 8307TIP3    H224863   4.357   1.079   3.449
 8308TIP3   OH224864   3.625   5.277   1.104
 8308TIP3    H124865   3.705   5.268   1.154
 8308TIP3    H224866   3.564   5.214   1.143
 8309TIP3   OH224867   4.602   5.599   4.649
 8309TIP3    H124868   4.608   5.580   4.555
 8309TIP3    H224869   4.526   5.656   4.658
 8310TIP3   OH224870   1.750   5.624   3.890
 8310TIP3    H124871   1.729   5.548   3.836
 8310TIP3    H224872   1.717   5.600   3.977
 8311TIP3   OH224873   0.121   6.840   0.283
 8311TIP3    H124874   0.112   6.876   0.195
 8311TIP3    H224875   0.075   6.903   0.339
 8312TIP3   OH224876   1.082   0.573   0.457
 8312TIP3    H124877   1.099   0.653   0.408
 8312TIP3    H224878   1.169   0.544   0.486
 8313TIP3   OH224879   7.708   7.346   2.489
 8313TIP3    H124880   7.665   7.268   2.455
 8313TIP3    H224881   7.661   7.419   2.448
 8314TIP3   OH224882   2.144   3.479   5.242
 8314TIP3    H124883   2.079   3.418   5.206
 8314TIP3    H224884   2.205   3.424   5.289
 8315TIP3   OH224885   4.804   1.603   6.237
 8315TIP3    H124886   4.839   1.627   6.151
 8315TIP3    H224887   4.872   1.631   6.299
 8316TIP3   OH224888   2.657   3.311   4.544
 8316TIP3    H124889   2.681   3.223   4.572
 8316TIP3    H224890   2.678   3.367   4.619
 8317TIP3   OH224891   2.934   5.028   2.392
 8317TIP3    H124892   2.988   4.953   2.369
 8317TIP3    H224893   2.988   5.079   2.452
 8318TIP3   OH224894   4.880   6.900   6.523
 8318TIP3    H124895   4.966   6.907   6.565
 8318TIP3    H224896   4.836   6.983   6.543
 8319TIP3   OH224897   1.117   2.345   5.550
 8319TIP3    H124898   1.202   2.374   5.584
 8319TIP3    H224899   1.071   2.314   5.628
 8320TIP3   OH224900   2.418   3.141   3.746
 8320TIP3    H124901   2.507   3.143   3.783
 8320TIP3    H224902   2.411   3.222   3.696
 8321TIP3   OH224903   2.099   1.644   4.136
 8321TIP3    H124904   2.048   1.587   4.193
 8321TIP3    H224905   2.190   1.626   4.159
 8322TIP3   OH224906   0.538   7.678   4.292
 8322TIP3    H124907   0.458   7.685   4.241
 8322TIP3    H224908   0.602   7.731   4.244
 8323TIP3   OH224909   7.252   3.279   1.398
 8323TIP3    H124910   7.173   3.271   1.453
 8323TIP3    H224911   7.311   3.334   1.450
 8324TIP3   OH224912   6.027   1.557   3.817
 8324TIP3    H124913   6.020   1.469   3.779
 8324TIP3    H224914   5.971   1.554   3.895
 8325TIP3   OH224915   3.716   1.852   0.665
 8325TIP3    H124916   3.776   1.814   0.601
 8325TIP3    H224917   3.727   1.947   0.656
 8326TIP3   OH224918   5.358   0.590   0.423
 8326TIP3    H124919   5.424   0.522   0.412
 8326TIP3    H224920   5.375   0.627   0.509
 8327TIP3   OH224921   2.382   6.710   2.439
 8327TIP3    H124922   2.373   6.684   2.347
 8327TIP3    H224923   2.470   6.747   2.444
 8328TIP3   OH224924   1.848   4.155   5.970
 8328TIP3    H124925   1.777   4.166   5.906
 8328TIP3    H224926   1.924   4.132   5.918
 8329TIP3   OH224927   7.473   6.717   3.199
 8329TIP3    H124928   7.519   6.767   3.265
 8329TIP3    H224929   7.460   6.631   3.238
 8330TIP3   OH224930   6.612   5.720   1.511
 8330TIP3    H124931   6.622   5.653   1.579
 8330TIP3    H224932   6.617   5.803   1.558
 8331TIP3   OH224933   7.226   2.918   5.949
 8331TIP3    H124934   7.245   2.899   6.041
 8331TIP3    H224935   7.312   2.927   5.908
 8332TIP3   OH224936   4.477   7.476   1.259
 8332TIP3    H124937   4.435   7.513   1.337
 8332TIP3    H224938   4.569   7.467   1.283
 8333TIP3   OH224939   3.499   1.859   4.538
 8333TIP3    H124940   3.416   1.865   4.586
 8333TIP3    H224941   3.566   1.872   4.604
 8334TIP3   OH224942   2.230   1.958   3.866
 8334TIP3    H124943   2.255   2.020   3.798
 8334TIP3    H224944   2.308   1.948   3.920
 8335TIP3   OH224945   7.552   3.137   5.423
 8335TIP3    H124946   7.603   3.103   5.497
 8335TIP3    H224947   7.518   3.221   5.454
 8336TIP3   OH224948   0.997   6.309   6.160
 8336TIP3    H124949   1.035   6.335   6.076
 8336TIP3    H224950   0.903   6.304   6.142
 8337TIP3   OH224951   1.507   7.256   4.456
 8337TIP3    H124952   1.588   7.253   4.405
 8337TIP3    H224953   1.475   7.346   4.444
 8338TIP3   OH224954   6.584   3.007   2.220
 8338TIP3    H124955   6.521   3.030   2.287
 8338TIP3    H224956   6.654   2.961   2.267
 8339TIP3   OH224957   2.891   6.638   0.011
 8339TIP3    H124958   2.814   6.692  -0.007
 8339TIP3    H224959   2.862   6.578   0.079
 8340TIP3   OH224960   6.261   5.971   2.051
 8340TIP3    H124961   6.251   6.059   2.088
 8340TIP3    H224962   6.194   5.919   2.096
 8341TIP3   OH224963   6.004   4.742   3.313
 8341TIP3    H124964   6.032   4.737   3.404
 8341TIP3    H224965   6.062   4.807   3.274
 8342TIP3   OH224966   4.242   3.854   4.546
 8342TIP3    H124967   4.222   3.941   4.511
 8342TIP3    H224968   4.264   3.871   4.638
 8343TIP3   OH224969   5.851   7.206   3.888
 8343TIP3    H124970   5.784   7.146   3.855
 8343TIP3    H224971   5.886   7.249   3.810
 8344TIP3   OH224972   1.133   1.945   5.087
 8344TIP3    H124973   1.121   1.996   5.167
 8344TIP3    H224974   1.185   1.869   5.114
 8345TIP3   OH224975   3.453   1.819   1.810
 8345TIP3    H124976   3.397   1.741   1.815
 8345TIP3    H224977   3.457   1.839   1.716
 8346TIP3   OH224978   4.913   1.688   3.292
 8346TIP3    H124979   4.874   1.602   3.307
 8346TIP3    H224980   4.844   1.750   3.318
 8347TIP3   OH224981   0.831   7.106   3.391
 8347TIP3    H124982   0.827   7.076   3.300
 8347TIP3    H224983   0.794   7.194   3.389
 8348TIP3   OH224984   6.646   4.648   1.384
 8348TIP3    H124985   6.557   4.656   1.418
 8348TIP3    H224986   6.701   4.693   1.448
 8349TIP3   OH224987   6.786   5.557   6.508
 8349TIP3    H124988   6.739   5.631   6.467
 8349TIP3    H224989   6.766   5.483   6.451
 8350TIP3   OH224990   0.172   4.763   3.110
 8350TIP3    H124991   0.205   4.843   3.149
 8350TIP3    H224992   0.132   4.715   3.183
 8351TIP3   OH224993   6.756   5.443   1.443
 8351TIP3    H124994   6.810   5.502   1.497
 8351TIP3    H224995   6.670   5.446   1.484
 8352TIP3   OH224996   6.505   0.490   6.701
 8352TIP3    H124997   6.446   0.427   6.659
 8352TIP3    H224998   6.453   0.569   6.711
 8353TIP3   OH224999   4.173   4.612   6.649
 8353TIP3    H125000   4.147   4.525   6.679
 8353TIP3    H225001   4.266   4.602   6.626
 8354TIP3   OH225002   3.523   4.973   2.157
 8354TIP3    H125003   3.609   5.007   2.133
 8354TIP3    H225004   3.528   4.958   2.251
 8355TIP3   OH225005   3.090   4.366   3.768
 8355TIP3    H125006   3.177   4.336   3.794
 8355TIP3    H225007   3.066   4.309   3.695
 8356TIP3   OH225008   7.950   1.011   2.778
 8356TIP3    H125009   7.870   1.063   2.773
 8356TIP3    H225010   8.016   1.073   2.811
 8357TIP3   OH225011   4.462   2.926   4.431
 8357TIP3    H125012   4.457   2.837   4.464
 8357TIP3    H225013   4.381   2.967   4.461
 8358TIP3   OH225014   0.494   5.762   6.025
 8358TIP3    H125015   0.582   5.764   5.989
 8358TIP3    H225016   0.479   5.851   6.057
 8359TIP3   OH225017   0.548   7.427   5.226
 8359TIP3    H125018   0.539   7.341   5.185
 8359TIP3    H225019   0.561   7.487   5.153
 8360TIP3   OH225020   6.464   3.968   2.053
 8360TIP3    H125021   6.524   4.039   2.029
 8360TIP3    H225022   6.409   4.005   2.121
 8361TIP3   OH225023   0.655   5.787   6.613
 8361TIP3    H125024   0.723   5.852   6.631
 8361TIP3    H225025   0.698   5.703   6.627
 8362TIP3   OH225026   6.229   0.560   5.449
 8362TIP3    H125027   6.250   0.467   5.442
 8362TIP3    H225028   6.313   0.605   5.437
 8363TIP3   OH225029   6.228   5.591   2.546
 8363TIP3    H125030   6.295   5.534   2.508
 8363TIP3    H225031   6.275   5.642   2.612
 8364TIP3   OH225032   6.210   2.174   2.505
 8364TIP3    H125033   6.148   2.242   2.532
 8364TIP3    H225034   6.176   2.094   2.546
 8365TIP3   OH225035   5.689   6.116   5.580
 8365TIP3    H125036   5.742   6.112   5.501
 8365TIP3    H225037   5.748   6.146   5.648
 8366TIP3   OH225038   2.273   3.366   3.930
 8366TIP3    H125039   2.349   3.419   3.906
 8366TIP3    H225040   2.288   3.281   3.888
 8367TIP3   OH225041  -0.014   1.566   5.155
 8367TIP3    H125042  -0.005   1.645   5.103
 8367TIP3    H225043  -0.108   1.556   5.168
 8368TIP3   OH225044   6.963   6.643   1.500
 8368TIP3    H125045   6.868   6.655   1.508
 8368TIP3    H225046   6.997   6.732   1.501
 8369TIP3   OH225047   2.176   5.971   5.311
 8369TIP3    H125048   2.161   5.908   5.382
 8369TIP3    H225049   2.268   5.961   5.289
 8370TIP3   OH225050   3.286   4.224   3.408
 8370TIP3    H125051   3.342   4.278   3.463
 8370TIP3    H225052   3.347   4.172   3.355
 8371TIP3   OH225053   2.770   5.647   2.885
 8371TIP3    H125054   2.725   5.562   2.881
 8371TIP3    H225055   2.711   5.707   2.840
 8372TIP3   OH225056   6.419   7.569   6.802
 8372TIP3    H125057   6.400   7.603   6.714
 8372TIP3    H225058   6.380   7.481   6.801
 8373TIP3   OH225059   0.264   2.331   5.297
 8373TIP3    H125060   0.272   2.334   5.393
 8373TIP3    H225061   0.259   2.237   5.277
 8374TIP3   OH225062   3.484   4.107   1.372
 8374TIP3    H125063   3.500   4.019   1.406
 8374TIP3    H225064   3.399   4.101   1.328
 8375TIP3   OH225065   7.877   0.382   5.771
 8375TIP3    H125066   7.831   0.448   5.719
 8375TIP3    H225067   7.808   0.325   5.803
 8376TIP3   OH225068   2.185   5.233   6.900
 8376TIP3    H125069   2.159   5.285   6.976
 8376TIP3    H225070   2.142   5.275   6.826
 8377TIP3   OH225071   7.799   2.010   4.053
 8377TIP3    H125072   7.893   2.029   4.047
 8377TIP3    H225073   7.768   2.016   3.963
 8378TIP3   OH225074   3.614   7.730   1.139
 8378TIP3    H125075   3.524   7.764   1.137
 8378TIP3    H225076   3.627   7.692   1.052
 8379TIP3   OH225077   1.523   6.955   0.641
 8379TIP3    H125078   1.481   7.031   0.599
 8379TIP3    H225079   1.472   6.940   0.721
 8380TIP3   OH225080   6.673   3.564   4.690
 8380TIP3    H125081   6.647   3.575   4.598
 8380TIP3    H225082   6.680   3.470   4.702
 8381TIP3   OH225083   3.675   4.078   0.671
 8381TIP3    H125084   3.689   3.984   0.686
 8381TIP3    H225085   3.743   4.102   0.608
 8382TIP3   OH225086   1.030   4.135   0.261
 8382TIP3    H125087   1.003   4.063   0.204
 8382TIP3    H225088   0.973   4.208   0.238
 8383TIP3   OH225089   2.804   5.465   2.132
 8383TIP3    H125090   2.844   5.381   2.155
 8383TIP3    H225091   2.730   5.442   2.077
 8384TIP3   OH225092   1.679   6.436   5.514
 8384TIP3    H125093   1.637   6.369   5.567
 8384TIP3    H225094   1.608   6.496   5.491
 8385TIP3   OH225095   4.179   5.642   1.132
 8385TIP3    H125096   4.111   5.593   1.084
 8385TIP3    H225097   4.252   5.648   1.070
 8386TIP3   OH225098   4.113   2.039   3.130
 8386TIP3    H125099   4.198   2.078   3.109
 8386TIP3    H225100   4.118   1.949   3.098
 8387TIP3   OH225101   4.657   5.475   6.815
 8387TIP3    H125102   4.676   5.561   6.854
 8387TIP3    H225103   4.584   5.492   6.755
 8388TIP3   OH225104   8.125   7.080   2.348
 8388TIP3    H125105   8.146   7.007   2.291
 8388TIP3    H225106   8.124   7.042   2.436
 8389TIP3   OH225107   7.360   7.764   5.061
 8389TIP3    H125108   7.438   7.735   5.108
 8389TIP3    H225109   7.372   7.731   4.972
 8390TIP3   OH225110   2.659   5.138   2.814
 8390TIP3    H125111   2.638   5.048   2.839
 8390TIP3    H225112   2.682   5.132   2.722
 8391TIP3   OH225113   7.458   0.297   4.125
 8391TIP3    H125114   7.502   0.335   4.048
 8391TIP3    H225115   7.430   0.210   4.095
 8392TIP3   OH225116   2.598   2.807   6.473
 8392TIP3    H125117   2.672   2.787   6.531
 8392TIP3    H225118   2.603   2.743   6.403
 8393TIP3   OH225119   2.920   3.392   1.518
 8393TIP3    H125120   3.011   3.364   1.505
 8393TIP3    H225121   2.922   3.443   1.599
 8394TIP3   OH225122   7.379   7.810   0.337
 8394TIP3    H125123   7.413   7.886   0.290
 8394TIP3    H225124   7.284   7.822   0.338
 8395TIP3   OH225125   7.742   6.404   5.730
 8395TIP3    H125126   7.797   6.334   5.763
 8395TIP3    H225127   7.653   6.370   5.735
 8396TIP3   OH225128   0.690   7.260   4.602
 8396TIP3    H125129   0.680   7.167   4.585
 8396TIP3    H225130   0.715   7.297   4.517
 8397TIP3   OH225131   7.762   3.630   6.402
 8397TIP3    H125132   7.815   3.586   6.468
 8397TIP3    H225133   7.815   3.705   6.375
 8398TIP3   OH225134   3.317   4.234   1.725
 8398TIP3    H125135   3.299   4.281   1.643
 8398TIP3    H225136   3.230   4.209   1.758
 8399TIP3   OH225137   5.807   4.723   4.644
 8399TIP3    H125138   5.882   4.663   4.648
 8399TIP3    H225139   5.761   4.708   4.727
 8400TIP3   OH225140   5.891   2.656   3.579
 8400TIP3    H125141   5.951   2.624   3.512
 8400TIP3    H225142   5.832   2.582   3.596
 8401TIP3   OH225143   5.232   3.674   5.912
 8401TIP3    H125144   5.207   3.610   5.978
 8401TIP3    H225145   5.218   3.629   5.829
 8402TIP3   OH225146   6.488   1.863   5.900
 8402TIP3    H125147   6.526   1.825   5.821
 8402TIP3    H225148   6.562   1.878   5.959
 8403TIP3   OH225149   3.296   7.243   3.068
 8403TIP3    H125150   3.366   7.305   3.048
 8403TIP3    H225151   3.220   7.298   3.084
 8404TIP3   OH225152   4.253   6.269   3.633
 8404TIP3    H125153   4.226   6.201   3.572
 8404TIP3    H225154   4.282   6.341   3.577
 8405TIP3   OH225155   5.212   4.763   4.896
 8405TIP3    H125156   5.239   4.742   4.986
 8405TIP3    H225157   5.266   4.707   4.841
 8406TIP3   OH225158   8.326   7.287   5.316
 8406TIP3    H125159   8.402   7.344   5.311
 8406TIP3    H225160   8.275   7.321   5.389
 8407TIP3   OH225161   8.256   6.576   5.430
 8407TIP3    H125162   8.175   6.599   5.475
 8407TIP3    H225163   8.235   6.589   5.337
 8408TIP3   OH225164   2.009   4.945   6.501
 8408TIP3    H125165   2.037   4.892   6.576
 8408TIP3    H225166   2.041   5.033   6.520
 8409TIP3   OH225167   1.488   5.946   4.495
 8409TIP3    H125168   1.498   5.910   4.407
 8409TIP3    H225169   1.484   5.870   4.552
 8410TIP3   OH225170   4.103   1.948   1.202
 8410TIP3    H125171   4.142   1.869   1.163
 8410TIP3    H225172   4.035   1.974   1.140
 8411TIP3   OH225173   7.096   2.247   2.760
 8411TIP3    H125174   7.156   2.312   2.723
 8411TIP3    H225175   7.102   2.172   2.701
 8412TIP3   OH225176   6.055   0.366   6.698
 8412TIP3    H125177   6.004   0.445   6.679
 8412TIP3    H225178   6.085   0.377   6.788
 8413TIP3   OH225179   2.206   6.411   1.342
 8413TIP3    H125180   2.188   6.469   1.417
 8413TIP3    H225181   2.301   6.415   1.331
 8414TIP3   OH225182   4.112   5.934   0.135
 8414TIP3    H125183   4.045   6.003   0.133
 8414TIP3    H225184   4.065   5.854   0.112
 8415TIP3   OH225185   0.969   5.335   5.076
 8415TIP3    H125186   1.061   5.348   5.051
 8415TIP3    H225187   0.919   5.367   5.000
 8416TIP3   OH225188   2.190   1.058   6.522
 8416TIP3    H125189   2.257   1.109   6.569
 8416TIP3    H225190   2.227   0.969   6.518
 8417TIP3   OH225191   7.378   7.864   3.384
 8417TIP3    H125192   7.360   7.943   3.332
 8417TIP3    H225193   7.459   7.884   3.431
 8418TIP3   OH225194   3.627   4.675   0.398
 8418TIP3    H125195   3.551   4.708   0.350
 8418TIP3    H225196   3.680   4.631   0.331
 8419TIP3   OH225197   2.374   2.252   2.441
 8419TIP3    H125198   2.313   2.253   2.367
 8419TIP3    H225199   2.364   2.339   2.480
 8420TIP3   OH225200   3.805   6.482   3.484
 8420TIP3    H125201   3.869   6.431   3.534
 8420TIP3    H225202   3.736   6.419   3.462
 8421TIP3   OH225203   3.956   6.237   1.924
 8421TIP3    H125204   3.871   6.229   1.968
 8421TIP3    H225205   3.991   6.320   1.955
 8422TIP3   OH225206   0.731   3.948   2.140
 8422TIP3    H125207   0.744   3.979   2.229
 8422TIP3    H225208   0.735   4.027   2.086
 8423TIP3   OH225209   4.833   1.108   1.065
 8423TIP3    H125210   4.839   1.128   1.158
 8423TIP3    H225211   4.775   1.032   1.060
 8424TIP3   OH225212   1.151   6.164   2.342
 8424TIP3    H125213   1.075   6.123   2.302
 8424TIP3    H225214   1.226   6.118   2.304
 8425TIP3   OH225215   3.751   5.858   1.813
 8425TIP3    H125216   3.800   5.807   1.878
 8425TIP3    H225217   3.660   5.833   1.827
 8426TIP3   OH225218   6.103   7.428   0.730
 8426TIP3    H125219   6.107   7.518   0.695
 8426TIP3    H225220   6.184   7.387   0.699
 8427TIP3   OH225221   3.198   0.261   3.044
 8427TIP3    H125222   3.192   0.270   3.139
 8427TIP3    H225223   3.139   0.188   3.024
 8428TIP3   OH225224   1.071   1.986   0.899
 8428TIP3    H125225   1.089   1.892   0.908
 8428TIP3    H225226   0.976   1.990   0.884
 8429TIP3   OH225227   4.786   5.860   2.304
 8429TIP3    H125228   4.697   5.873   2.337
 8429TIP3    H225229   4.778   5.790   2.239
 8430TIP3   OH225230   8.304   5.751   1.866
 8430TIP3    H125231   8.309   5.771   1.960
 8430TIP3    H225232   8.251   5.821   1.829
 8431TIP3   OH225233   6.596   4.489   2.432
 8431TIP3    H125234   6.680   4.456   2.464
 8431TIP3    H225235   6.550   4.519   2.511
 8432TIP3   OH225236   8.103   5.705   6.404
 8432TIP3    H125237   8.043   5.641   6.365
 8432TIP3    H225238   8.077   5.789   6.367
 8433TIP3   OH225239   0.921   5.362   6.422
 8433TIP3    H125240   0.876   5.318   6.350
 8433TIP3    H225241   0.910   5.303   6.497
 8434TIP3   OH225242   7.904   3.220   4.854
 8434TIP3    H125243   7.874   3.311   4.854
 8434TIP3    H225244   7.860   3.181   4.930
 8435TIP3   OH225245   3.143   1.293   5.485
 8435TIP3    H125246   3.159   1.199   5.494
 8435TIP3    H225247   3.104   1.318   5.569
 8436TIP3   OH225248   5.014   5.540   5.110
 8436TIP3    H125249   4.972   5.483   5.174
 8436TIP3    H225250   4.985   5.628   5.134
 8437TIP3   OH225251   7.460   0.899   1.276
 8437TIP3    H125252   7.520   0.890   1.350
 8437TIP3    H225253   7.481   0.984   1.238
 8438TIP3   OH225254   0.804   1.877   1.625
 8438TIP3    H125255   0.728   1.894   1.569
 8438TIP3    H225256   0.868   1.944   1.598
 8439TIP3   OH225257   8.013   6.704   6.247
 8439TIP3    H125258   8.012   6.775   6.310
 8439TIP3    H225259   7.992   6.626   6.298
 8440TIP3   OH225260   5.022   5.257   0.921
 8440TIP3    H125261   4.976   5.236   0.841
 8440TIP3    H225262   5.114   5.265   0.895
 8441TIP3   OH225263   5.364   3.446   2.342
 8441TIP3    H125264   5.299   3.381   2.314
 8441TIP3    H225265   5.421   3.457   2.266
 8442TIP3   OH225266   5.435   6.409   4.672
 8442TIP3    H125267   5.382   6.329   4.679
 8442TIP3    H225268   5.382   6.468   4.619
 8443TIP3   OH225269   6.990   2.473   5.711
 8443TIP3    H125270   6.982   2.567   5.731
 8443TIP3    H225271   7.073   2.447   5.752
 8444TIP3   OH225272   3.357   4.957   1.496
 8444TIP3    H125273   3.380   4.876   1.542
 8444TIP3    H225274   3.388   5.027   1.553
 8445TIP3   OH225275   7.205   3.370   5.437
 8445TIP3    H125276   7.113   3.390   5.454
 8445TIP3    H225277   7.203   3.302   5.370
 8446TIP3   OH225278   3.543   0.604   2.206
 8446TIP3    H125279   3.515   0.628   2.294
 8446TIP3    H225280   3.637   0.623   2.204
 8447TIP3   OH225281   2.214   3.180   5.181
 8447TIP3    H125282   2.233   3.207   5.271
 8447TIP3    H225283   2.227   3.085   5.180
 8448TIP3   OH225284   1.945   1.368   6.213
 8448TIP3    H125285   2.008   1.309   6.253
 8448TIP3    H225286   1.908   1.417   6.286
 8449TIP3   OH225287   0.950   3.068   4.339
 8449TIP3    H125288   0.986   3.102   4.257
 8449TIP3    H225289   1.021   3.017   4.377
 8450TIP3   OH225290   5.297   2.214   2.841
 8450TIP3    H125291   5.267   2.191   2.753
 8450TIP3    H225292   5.237   2.282   2.871
 8451TIP3   OH225293   7.834   5.806   0.840
 8451TIP3    H125294   7.906   5.744   0.829
 8451TIP3    H225295   7.787   5.802   0.757
 8452TIP3   OH225296   5.360   4.751   3.533
 8452TIP3    H125297   5.279   4.773   3.580
 8452TIP3    H225298   5.405   4.835   3.522
 8453TIP3   OH225299   2.649   1.977   6.904
 8453TIP3    H125300   2.583   1.919   6.866
 8453TIP3    H225301   2.646   2.056   6.849
 8454TIP3   OH225302   4.941   7.511   1.605
 8454TIP3    H125303   4.931   7.543   1.515
 8454TIP3    H225304   4.875   7.442   1.613
 8455TIP3   OH225305   3.973   3.162   4.692
 8455TIP3    H125306   3.883   3.152   4.721
 8455TIP3    H225307   4.025   3.159   4.772
 8456TIP3   OH225308   4.566   7.101   6.255
 8456TIP3    H125309   4.531   7.085   6.342
 8456TIP3    H225310   4.496   7.145   6.208
 8457TIP3   OH225311   6.433   3.920   4.138
 8457TIP3    H125312   6.528   3.915   4.129
 8457TIP3    H225313   6.401   3.925   4.048
 8458TIP3   OH225314   7.614   5.331   2.404
 8458TIP3    H125315   7.539   5.385   2.380
 8458TIP3    H225316   7.587   5.287   2.484
 8459TIP3   OH225317   0.266   1.029   0.717
 8459TIP3    H125318   0.298   0.998   0.633
 8459TIP3    H225319   0.273   1.124   0.713
 8460TIP3   OH225320   5.077   0.854   1.212
 8460TIP3    H125321   5.120   0.929   1.252
 8460TIP3    H225322   5.094   0.781   1.272
 8461TIP3   OH225323   6.274   6.585   6.708
 8461TIP3    H125324   6.284   6.492   6.729
 8461TIP3    H225325   6.299   6.630   6.788
 8462TIP3   OH225326   6.713   1.203   0.482
 8462TIP3    H125327   6.661   1.123   0.480
 8462TIP3    H225328   6.749   1.210   0.394
 8463TIP3   OH225329   3.457   4.980   0.826
 8463TIP3    H125330   3.450   5.074   0.813
 8463TIP3    H225331   3.438   4.967   0.919
 8464TIP3   OH225332   3.886   6.046   4.140
 8464TIP3    H125333   3.836   6.068   4.219
 8464TIP3    H225334   3.976   6.041   4.170
 8465TIP3   OH225335   2.356   2.340   0.077
 8465TIP3    H125336   2.447   2.314   0.063
 8465TIP3    H225337   2.360   2.435   0.087
 8466TIP3   OH225338   1.378   2.371   3.411
 8466TIP3    H125339   1.358   2.284   3.445
 8466TIP3    H225340   1.304   2.425   3.439
 8467TIP3   OH225341   3.103   6.890   3.330
 8467TIP3    H125342   3.158   6.940   3.390
 8467TIP3    H225343   3.109   6.800   3.361
 8468TIP3   OH225344   1.699   7.128   1.874
 8468TIP3    H125345   1.770   7.070   1.900
 8468TIP3    H225346   1.635   7.070   1.833
 8469TIP3   OH225347   5.583   5.603   3.856
 8469TIP3    H125348   5.513   5.641   3.909
 8469TIP3    H225349   5.622   5.677   3.810
 8470TIP3   OH225350   6.536   7.353   2.931
 8470TIP3    H125351   6.578   7.405   2.864
 8470TIP3    H225352   6.579   7.380   3.013
 8471TIP3   OH225353   5.168   2.712   6.234
 8471TIP3    H125354   5.117   2.754   6.165
 8471TIP3    H225355   5.124   2.738   6.315
 8472TIP3   OH225356   4.134   1.193   4.416
 8472TIP3    H125357   4.208   1.132   4.416
 8472TIP3    H225358   4.174   1.279   4.431
 8473TIP3   OH225359   1.186   6.029   5.358
 8473TIP3    H125360   1.209   6.063   5.272
 8473TIP3    H225361   1.267   6.037   5.409
 8474TIP3   OH225362   7.635   1.660   3.111
 8474TIP3    H125363   7.696   1.735   3.114
 8474TIP3    H225364   7.563   1.690   3.055
 8475TIP3   OH225365   3.481   1.532   0.282
 8475TIP3    H125366   3.446   1.577   0.205
 8475TIP3    H225367   3.457   1.589   0.355
 8476TIP3   OH225368   4.906   7.874   6.065
 8476TIP3    H125369   4.834   7.888   6.127
 8476TIP3    H225370   4.958   7.803   6.104
 8477TIP3   OH225371   6.188   6.188   5.122
 8477TIP3    H125372   6.175   6.113   5.064
 8477TIP3    H225373   6.274   6.223   5.098
 8478TIP3   OH225374   4.605   6.572   0.132
 8478TIP3    H125375   4.585   6.584   0.225
 8478TIP3    H225376   4.562   6.646   0.089
 8479TIP3   OH225377   7.292   6.447   2.178
 8479TIP3    H125378   7.328   6.372   2.226
 8479TIP3    H225379   7.199   6.428   2.168
 8480TIP3   OH225380   0.110   5.453   1.087
 8480TIP3    H125381   0.105   5.357   1.091
 8480TIP3    H225382   0.061   5.476   1.008
 8481TIP3   OH225383   6.454   3.419   6.524
 8481TIP3    H125384   6.488   3.336   6.557
 8481TIP3    H225385   6.528   3.460   6.480
 8482TIP3   OH225386   0.775   0.647   5.594
 8482TIP3    H125387   0.746   0.587   5.663
 8482TIP3    H225388   0.849   0.603   5.552
 8483TIP3   OH225389   0.941   1.585   3.389
 8483TIP3    H125390   0.855   1.552   3.363
 8483TIP3    H225391   0.933   1.680   3.381
 8484TIP3   OH225392   6.378   0.255   2.905
 8484TIP3    H125393   6.372   0.256   2.810
 8484TIP3    H225394   6.302   0.204   2.934
 8485TIP3   OH225395   2.445   1.198   6.614
 8485TIP3    H125396   2.473   1.121   6.664
 8485TIP3    H225397   2.478   1.273   6.664
 8486TIP3   OH225398   3.110   1.623   2.486
 8486TIP3    H125399   3.152   1.705   2.513
 8486TIP3    H225400   3.018   1.645   2.478
 8487TIP3   OH225401   6.805   3.581   2.677
 8487TIP3    H125402   6.890   3.595   2.719
 8487TIP3    H225403   6.788   3.487   2.689
 8488TIP3   OH225404   4.767   6.826   2.722
 8488TIP3    H125405   4.810   6.758   2.775
 8488TIP3    H225406   4.821   6.832   2.643
 8489TIP3   OH225407   4.555   0.567   4.776
 8489TIP3    H125408   4.606   0.646   4.759
 8489TIP3    H225409   4.499   0.558   4.699
 8490TIP3   OH225410   0.218   1.585   3.948
 8490TIP3    H125411   0.197   1.633   3.867
 8490TIP3    H225412   0.140   1.533   3.966
 8491TIP3   OH225413   5.957   0.710   1.285
 8491TIP3    H125414   5.928   0.795   1.251
 8491TIP3    H225415   6.022   0.680   1.222
 8492TIP3   OH225416   4.221   2.042   4.305
 8492TIP3    H125417   4.220   2.136   4.323
 8492TIP3    H225418   4.132   2.022   4.277
 8493TIP3   OH225419   7.632   1.621   6.112
 8493TIP3    H125420   7.597   1.548   6.163
 8493TIP3    H225421   7.619   1.697   6.169
 8494TIP3   OH225422   6.394   4.956   1.620
 8494TIP3    H125423   6.314   4.928   1.664
 8494TIP3    H225424   6.392   4.911   1.535
 8495TIP3   OH225425   0.456   7.055   1.297
 8495TIP3    H125426   0.535   7.021   1.338
 8495TIP3    H225427   0.405   6.977   1.275
 8496TIP3   OH225428   3.304   4.597   0.223
 8496TIP3    H125429   3.318   4.553   0.307
 8496TIP3    H225430   3.336   4.686   0.237
 8497TIP3   OH225431   1.331   2.075   0.045
 8497TIP3    H125432   1.320   2.005   0.109
 8497TIP3    H225433   1.375   2.033  -0.029
 8498TIP3   OH225434   3.230   1.280   6.342
 8498TIP3    H125435   3.185   1.203   6.308
 8498TIP3    H225436   3.162   1.346   6.351
 8499TIP3   OH225437   7.139   2.461   4.092
 8499TIP3    H125438   7.105   2.528   4.151
 8499TIP3    H225439   7.174   2.509   4.018
 8500TIP3   OH225440   0.025   7.949   2.171
 8500TIP3    H125441  -0.049   7.889   2.182
 8500TIP3    H225442   0.093   7.895   2.131
 8501TIP3   OH225443   2.333   5.297   6.185
 8501TIP3    H125444   2.248   5.271   6.150
 8501TIP3    H225445   2.385   5.322   6.108
 8502TIP3   OH225446   1.629   3.314   5.170
 8502TIP3    H125447   1.626   3.246   5.102
 8502TIP3    H225448   1.584   3.389   5.131
 8503TIP3   OH225449   7.553   1.135   3.971
 8503TIP3    H125450   7.613   1.185   3.916
 8503TIP3    H225451   7.603   1.114   4.049
 8504TIP3   OH225452   8.157   1.244   5.931
 8504TIP3    H125453   8.128   1.323   5.884
 8504TIP3    H225454   8.076   1.204   5.962
 8505TIP3   OH225455   4.977   5.396   2.740
 8505TIP3    H125456   4.886   5.372   2.753
 8505TIP3    H225457   5.026   5.342   2.803
 8506TIP3   OH225458   6.540   6.617   2.658
 8506TIP3    H125459   6.582   6.581   2.581
 8506TIP3    H225460   6.591   6.694   2.680
 8507TIP3   OH225461   7.183   0.038   6.866
 8507TIP3    H125462   7.141   0.094   6.801
 8507TIP3    H225463   7.119   0.033   6.938
 8508TIP3   OH225464   3.263   0.198   0.982
 8508TIP3    H125465   3.277   0.144   0.905
 8508TIP3    H225466   3.311   0.279   0.964
 8509TIP3   OH225467   1.321   5.232   4.642
 8509TIP3    H125468   1.271   5.224   4.561
 8509TIP3    H225469   1.382   5.158   4.640
 8510TIP3   OH225470   4.632   7.419   4.503
 8510TIP3    H125471   4.641   7.482   4.575
 8510TIP3    H225472   4.695   7.350   4.523
 8511TIP3   OH225473   5.850   4.641   1.686
 8511TIP3    H125474   5.850   4.610   1.777
 8511TIP3    H225475   5.844   4.561   1.634
 8512TIP3   OH225476   4.101   5.332   5.682
 8512TIP3    H125477   4.116   5.291   5.597
 8512TIP3    H225478   4.010   5.313   5.703
 8513TIP3   OH225479   6.608   7.616   1.697
 8513TIP3    H125480   6.567   7.672   1.631
 8513TIP3    H225481   6.540   7.600   1.762
 8514TIP3   OH225482   5.220   4.067   3.403
 8514TIP3    H125483   5.184   4.155   3.394
 8514TIP3    H225484   5.163   4.024   3.467
 8515TIP3   OH225485   6.768   3.970   4.492
 8515TIP3    H125486   6.694   3.910   4.489
 8515TIP3    H225487   6.729   4.056   4.507
 8516TIP3   OH225488   3.783   5.793   1.541
 8516TIP3    H125489   3.814   5.855   1.607
 8516TIP3    H225490   3.788   5.708   1.584
 8517TIP3   OH225491   3.805   4.603   0.620
 8517TIP3    H125492   3.857   4.611   0.700
 8517TIP3    H225493   3.790   4.509   0.610
 8518TIP3   OH225494   7.850   5.410   2.133
 8518TIP3    H125495   7.833   5.493   2.091
 8518TIP3    H225496   7.936   5.384   2.100
 8519TIP3   OH225497   1.485   6.136   3.686
 8519TIP3    H125498   1.562   6.192   3.696
 8519TIP3    H225499   1.506   6.056   3.735
 8520TIP3   OH225500   4.236   7.523   2.730
 8520TIP3    H125501   4.250   7.452   2.792
 8520TIP3    H225502   4.264   7.486   2.646
 8521TIP3   OH225503   2.303   7.560   4.720
 8521TIP3    H125504   2.283   7.625   4.788
 8521TIP3    H225505   2.248   7.585   4.646
 8522TIP3   OH225506   1.206   6.836   1.432
 8522TIP3    H125507   1.209   6.924   1.468
 8522TIP3    H225508   1.114   6.822   1.409
 8523TIP3   OH225509   2.515   1.760   6.669
 8523TIP3    H125510   2.577   1.828   6.644
 8523TIP3    H225511   2.555   1.678   6.639
 8524TIP3   OH225512   0.198   1.605   5.377
 8524TIP3    H125513   0.198   1.512   5.400
 8524TIP3    H225514   0.146   1.610   5.297
 8525TIP3   OH225515   7.703   6.150   3.866
 8525TIP3    H125516   7.714   6.152   3.961
 8525TIP3    H225517   7.793   6.154   3.832
 8526TIP3   OH225518   1.307   0.636   0.811
 8526TIP3    H125519   1.378   0.613   0.871
 8526TIP3    H225520   1.228   0.628   0.864
 8527TIP3   OH225521   5.834   1.066   4.527
 8527TIP3    H125522   5.832   1.156   4.495
 8527TIP3    H225523   5.808   1.072   4.619
 8528TIP3   OH225524   7.578   1.669   4.954
 8528TIP3    H125525   7.660   1.624   4.974
 8528TIP3    H225526   7.518   1.599   4.929
 8529TIP3   OH225527   3.539   2.371   4.732
 8529TIP3    H125528   3.484   2.374   4.653
 8529TIP3    H225529   3.553   2.277   4.747
 8530TIP3   OH225530   6.111   4.895   5.149
 8530TIP3    H125531   6.195   4.870   5.110
 8530TIP3    H225532   6.118   4.990   5.162
 8531TIP3   OH225533   4.825   2.798   0.925
 8531TIP3    H125534   4.874   2.804   0.843
 8531TIP3    H225535   4.891   2.776   0.991
 8532TIP3   OH225536   8.057   0.021   1.932
 8532TIP3    H125537   8.023   0.106   1.960
 8532TIP3    H225538   8.143   0.015   1.973
 8533TIP3   OH225539   7.855   1.283   3.343
 8533TIP3    H125540   7.803   1.362   3.327
 8533TIP3    H225541   7.876   1.250   3.256
 8534TIP3   OH225542   4.451   1.813   5.685
 8534TIP3    H125543   4.463   1.852   5.772
 8534TIP3    H225544   4.361   1.782   5.684
 8535TIP3   OH225545   5.203   5.080   6.306
 8535TIP3    H125546   5.125   5.065   6.360
 8535TIP3    H225547   5.212   5.176   6.304
 8536TIP3   OH225548   3.981   2.069   3.417
 8536TIP3    H125549   4.032   2.063   3.336
 8536TIP3    H225550   3.975   2.162   3.435
 8537TIP3   OH225551   1.414   7.146   1.100
 8537TIP3    H125552   1.441   7.238   1.103
 8537TIP3    H225553   1.375   7.129   1.185
 8538TIP3   OH225554   3.198   1.844   1.162
 8538TIP3    H125555   3.152   1.822   1.080
 8538TIP3    H225556   3.188   1.939   1.171
 8539TIP3   OH225557   1.470   6.323   4.370
 8539TIP3    H125558   1.546   6.275   4.405
 8539TIP3    H225559   1.478   6.411   4.407
 8540TIP3   OH225560   1.401   7.380   2.751
 8540TIP3    H125561   1.358   7.421   2.826
 8540TIP3    H225562   1.470   7.326   2.789
 8541TIP3   OH225563   3.332   5.036   3.128
 8541TIP3    H125564   3.385   4.999   3.057
 8541TIP3    H225565   3.298   4.959   3.174
 8542TIP3   OH225566   5.062   1.706   2.233
 8542TIP3    H125567   5.127   1.636   2.221
 8542TIP3    H225568   5.078   1.738   2.321
 8543TIP3   OH225569   6.462   5.208   4.201
 8543TIP3    H125570   6.397   5.207   4.271
 8543TIP3    H225571   6.464   5.298   4.171
 8544TIP3   OH225572   3.484   1.466   5.731
 8544TIP3    H125573   3.509   1.551   5.767
 8544TIP3    H225574   3.562   1.437   5.683
 8545TIP3   OH225575   6.438   1.712   3.961
 8545TIP3    H125576   6.477   1.652   4.025
 8545TIP3    H225577   6.377   1.657   3.912
 8546TIP3   OH225578   3.215   6.274   4.423
 8546TIP3    H125579   3.155   6.204   4.448
 8546TIP3    H225580   3.299   6.248   4.460
 8547TIP3   OH225581   1.069   0.619   0.933
 8547TIP3    H125582   1.026   0.702   0.912
 8547TIP3    H225583   1.097   0.629   1.024
 8548TIP3   OH225584   2.093   3.123   2.349
 8548TIP3    H125585   2.139   3.041   2.331
 8548TIP3    H225586   2.007   3.112   2.308
 8549TIP3   OH225587   2.504   7.578   5.879
 8549TIP3    H125588   2.496   7.611   5.790
 8549TIP3    H225589   2.434   7.624   5.927
 8550TIP3   OH225590   0.724   6.738   5.315
 8550TIP3    H125591   0.655   6.672   5.322
 8550TIP3    H225592   0.752   6.734   5.224
 8551TIP3   OH225593   2.365   5.728   0.512
 8551TIP3    H125594   2.372   5.633   0.519
 8551TIP3    H225595   2.374   5.746   0.418
 8552TIP3   OH225596   5.548   1.611   3.824
 8552TIP3    H125597   5.565   1.668   3.749
 8552TIP3    H225598   5.460   1.576   3.808
 8553TIP3   OH225599   7.858   1.975   0.354
 8553TIP3    H125600   7.809   2.033   0.412
 8553TIP3    H225601   7.811   1.891   0.359
 8554TIP3   OH225602   1.064   2.450   0.745
 8554TIP3    H125603   1.079   2.367   0.789
 8554TIP3    H225604   1.098   2.437   0.656
 8555TIP3   OH225605   7.968   5.139   6.582
 8555TIP3    H125606   7.908   5.114   6.511
 8555TIP3    H225607   7.923   5.210   6.628
 8556TIP3   OH225608   2.605   1.559   2.373
 8556TIP3    H125609   2.658   1.480   2.361
 8556TIP3    H225610   2.514   1.527   2.370
 8557TIP3   OH225611   7.379   2.906   4.329
 8557TIP3    H125612   7.426   2.828   4.359
 8557TIP3    H225613   7.437   2.944   4.263
 8558TIP3   OH225614   4.997   7.445   4.209
 8558TIP3    H125615   4.937   7.509   4.170
 8558TIP3    H225616   5.064   7.497   4.252
 8559TIP3   OH225617   6.139   0.354   5.240
 8559TIP3    H125618   6.089   0.390   5.166
 8559TIP3    H225619   6.151   0.429   5.299
 8560TIP3   OH225620   7.430   3.021   1.358
 8560TIP3    H125621   7.356   3.071   1.324
 8560TIP3    H225622   7.483   3.001   1.281
 8561TIP3   OH225623   4.441   1.248   4.863
 8561TIP3    H125624   4.368   1.194   4.894
 8561TIP3    H225625   4.478   1.287   4.942
 8562TIP3   OH225626   2.922   2.273   4.305
 8562TIP3    H125627   2.845   2.251   4.252
 8562TIP3    H225628   2.980   2.318   4.244
 8563TIP3   OH225629   7.797   0.049   2.326
 8563TIP3    H125630   7.738   0.003   2.386
 8563TIP3    H225631   7.769   0.141   2.330
 8564TIP3   OH225632   6.492   6.367   5.489
 8564TIP3    H125633   6.581   6.343   5.464
 8564TIP3    H225634   6.487   6.462   5.473
 8565TIP3   OH225635   5.717   1.934   4.306
 8565TIP3    H125636   5.625   1.941   4.334
 8565TIP3    H225637   5.737   1.841   4.314
 8566TIP3   OH225638   5.913   4.456   3.383
 8566TIP3    H125639   5.954   4.435   3.299
 8566TIP3    H225640   5.946   4.543   3.406
 8567TIP3   OH225641   1.734   1.857   3.319
 8567TIP3    H125642   1.803   1.840   3.255
 8567TIP3    H225643   1.780   1.860   3.403
 8568TIP3   OH225644   0.469   1.873   4.038
 8568TIP3    H125645   0.416   1.929   3.981
 8568TIP3    H225646   0.424   1.789   4.037
 8569TIP3   OH225647   8.024   3.872   4.630
 8569TIP3    H125648   8.088   3.810   4.665
 8569TIP3    H225649   8.076   3.948   4.602
 8570TIP3   OH225650   2.930   3.904   3.647
 8570TIP3    H125651   2.884   3.931   3.726
 8570TIP3    H225652   2.861   3.888   3.582
 8571TIP3   OH225653   1.042   5.994   6.344
 8571TIP3    H125654   1.031   6.083   6.375
 8571TIP3    H225655   1.077   5.946   6.419
 8572TIP3   OH225656   5.216   1.440   0.577
 8572TIP3    H125657   5.133   1.404   0.546
 8572TIP3    H225658   5.227   1.403   0.665
 8573TIP3   OH225659   5.016   4.351   4.885
 8573TIP3    H125660   5.079   4.349   4.957
 8573TIP3    H225661   4.960   4.275   4.900
 8574TIP3   OH225662   5.322   2.199   5.294
 8574TIP3    H125663   5.357   2.251   5.367
 8574TIP3    H225664   5.265   2.260   5.247
 8575TIP3   OH225665   5.611   7.697   0.963
 8575TIP3    H125666   5.609   7.746   0.881
 8575TIP3    H225667   5.609   7.605   0.936
 8576TIP3   OH225668   6.022   1.123   3.396
 8576TIP3    H125669   6.101   1.074   3.420
 8576TIP3    H225670   6.054   1.213   3.382
 8577TIP3   OH225671   5.459   0.679   4.546
 8577TIP3    H125672   5.372   0.715   4.531
 8577TIP3    H225673   5.498   0.737   4.612
 8578TIP3   OH225674   3.089   5.388   1.868
 8578TIP3    H125675   3.144   5.345   1.933
 8578TIP3    H225676   3.140   5.384   1.787
 8579TIP3   OH225677   5.121   3.194   3.402
 8579TIP3    H125678   5.213   3.183   3.424
 8579TIP3    H225679   5.075   3.133   3.459
 8580TIP3   OH225680   0.757   3.375   4.034
 8580TIP3    H125681   0.677   3.323   4.024
 8580TIP3    H225682   0.732   3.448   4.091
 8581TIP3   OH225683   6.797   7.592   1.446
 8581TIP3    H125684   6.754   7.586   1.531
 8581TIP3    H225685   6.884   7.555   1.460
 8582TIP3   OH225686   5.858   6.711   0.979
 8582TIP3    H125687   5.948   6.681   0.966
 8582TIP3    H225688   5.868   6.799   1.014
 8583TIP3   OH225689   3.180   3.481   0.701
 8583TIP3    H125690   3.145   3.569   0.690
 8583TIP3    H225691   3.157   3.436   0.619
 8584TIP3   OH225692   6.326   1.249   1.449
 8584TIP3    H125693   6.235   1.224   1.435
 8584TIP3    H225694   6.335   1.255   1.544
 8585TIP3   OH225695   7.492   0.841   5.053
 8585TIP3    H125696   7.494   0.880   4.965
 8585TIP3    H225697   7.457   0.909   5.109
 8586TIP3   OH225698   7.819   5.026   6.359
 8586TIP3    H125699   7.767   4.945   6.356
 8586TIP3    H225700   7.762   5.093   6.321
 8587TIP3   OH225701   3.496   6.269   5.066
 8587TIP3    H125702   3.421   6.327   5.080
 8587TIP3    H225703   3.480   6.195   5.125
 8588TIP3   OH225704   0.115   7.053   5.077
 8588TIP3    H125705   0.089   7.130   5.129
 8588TIP3    H225706   0.053   6.985   5.104
 8589TIP3   OH225707   7.543   2.641   1.438
 8589TIP3    H125708   7.513   2.700   1.369
 8589TIP3    H225709   7.480   2.656   1.510
 8590TIP3   OH225710   0.076   6.448   0.953
 8590TIP3    H125711   0.148   6.432   0.892
 8590TIP3    H225712   0.119   6.476   1.034
 8591TIP3   OH225713   7.124   7.755   3.441
 8591TIP3    H125714   7.104   7.837   3.485
 8591TIP3    H225715   7.218   7.760   3.423
 8592TIP3   OH225716   1.737   2.762   0.104
 8592TIP3    H125717   1.755   2.772   0.011
 8592TIP3    H225718   1.818   2.727   0.141
 8593TIP3   OH225719   0.778   0.293   4.689
 8593TIP3    H125720   0.805   0.205   4.714
 8593TIP3    H225721   0.687   0.299   4.720
 8594TIP3   OH225722   6.622   0.111   2.625
 8594TIP3    H125723   6.635   0.205   2.641
 8594TIP3    H225724   6.549   0.108   2.562
 8595TIP3   OH225725   4.133   7.357   0.654
 8595TIP3    H125726   4.142   7.428   0.717
 8595TIP3    H225727   4.204   7.297   0.675
 8596TIP3   OH225728   0.388   1.972   5.573
 8596TIP3    H125729   0.392   1.959   5.478
 8596TIP3    H225730   0.305   2.018   5.587
 8597TIP3   OH225731   4.376   0.334   3.699
 8597TIP3    H125732   4.399   0.418   3.658
 8597TIP3    H225733   4.443   0.273   3.669
 8598TIP3   OH225734   3.634   2.105   4.718
 8598TIP3    H125735   3.698   2.077   4.652
 8598TIP3    H225736   3.605   2.024   4.759
 8599TIP3   OH225737   7.845   3.142   1.401
 8599TIP3    H125738   7.923   3.151   1.348
 8599TIP3    H225739   7.772   3.158   1.341
 8600TIP3   OH225740   2.091   2.545   5.107
 8600TIP3    H125741   2.094   2.574   5.016
 8600TIP3    H225742   2.049   2.616   5.154
 8601TIP3   OH225743   1.693   7.784   1.830
 8601TIP3    H125744   1.742   7.703   1.845
 8601TIP3    H225745   1.693   7.795   1.735
 8602TIP3   OH225746   5.994   1.274   1.988
 8602TIP3    H125747   6.034   1.188   1.995
 8602TIP3    H225748   5.978   1.301   2.078
 8603TIP3   OH225749   2.760   1.528   1.901
 8603TIP3    H125750   2.773   1.435   1.919
 8603TIP3    H225751   2.668   1.536   1.878
 8604TIP3   OH225752   3.800   5.321   5.672
 8604TIP3    H125753   3.708   5.347   5.680
 8604TIP3    H225754   3.796   5.230   5.641
 8605TIP3   OH225755   1.556   2.936   5.810
 8605TIP3    H125756   1.510   2.852   5.804
 8605TIP3    H225757   1.618   2.924   5.882
 8606TIP3   OH225758   4.454   1.661   1.307
 8606TIP3    H125759   4.538   1.616   1.312
 8606TIP3    H225760   4.447   1.689   1.216
 8607TIP3   OH225761   3.132   2.757   2.670
 8607TIP3    H125762   3.127   2.686   2.605
 8607TIP3    H225763   3.203   2.813   2.639
 8608TIP3   OH225764   3.352   0.647   6.626
 8608TIP3    H125765   3.266   0.690   6.624
 8608TIP3    H225766   3.371   0.637   6.719
 8609TIP3   OH225767   6.209   3.418   0.584
 8609TIP3    H125768   6.145   3.488   0.569
 8609TIP3    H225769   6.182   3.379   0.667
 8610TIP3   OH225770   4.004   0.551   2.393
 8610TIP3    H125771   4.016   0.643   2.370
 8610TIP3    H225772   4.088   0.525   2.430
 8611TIP3   OH225773   5.177   3.649   1.471
 8611TIP3    H125774   5.207   3.675   1.559
 8611TIP3    H225775   5.230   3.572   1.450
 8612TIP3   OH225776   1.426   3.260   4.400
 8612TIP3    H125777   1.512   3.217   4.392
 8612TIP3    H225778   1.406   3.256   4.493
 8613TIP3   OH225779   3.967   5.069   6.485
 8613TIP3    H125780   4.012   5.062   6.402
 8613TIP3    H225781   3.902   5.138   6.471
 8614TIP3   OH225782   0.969   7.838   6.086
 8614TIP3    H125783   1.061   7.862   6.100
 8614TIP3    H225784   0.965   7.815   5.993
 8615TIP3   OH225785   0.435   7.866   2.950
 8615TIP3    H125786   0.504   7.814   2.989
 8615TIP3    H225787   0.480   7.931   2.897
 8616TIP3   OH225788   6.202   6.180   1.734
 8616TIP3    H125789   6.275   6.166   1.672
 8616TIP3    H225790   6.229   6.256   1.785
 8617TIP3   OH225791   7.070   0.236   6.702
 8617TIP3    H125792   7.139   0.301   6.694
 8617TIP3    H225793   7.024   0.260   6.782
 8618TIP3   OH225794   2.209   2.422   3.268
 8618TIP3    H125795   2.303   2.423   3.251
 8618TIP3    H225796   2.170   2.421   3.181
 8619TIP3   OH225797   1.453   6.904   4.824
 8619TIP3    H125798   1.526   6.880   4.881
 8619TIP3    H225799   1.463   6.998   4.810
 8620TIP3   OH225800   4.657   2.980   0.718
 8620TIP3    H125801   4.719   3.014   0.783
 8620TIP3    H225802   4.712   2.947   0.647
 8621TIP3   OH225803   5.607   0.135   5.690
 8621TIP3    H125804   5.644   0.185   5.763
 8621TIP3    H225805   5.515   0.161   5.687
 8622TIP3   OH225806   5.757   5.289   5.805
 8622TIP3    H125807   5.811   5.234   5.861
 8622TIP3    H225808   5.737   5.366   5.858
 8623TIP3   OH225809   7.661   4.295   4.783
 8623TIP3    H125810   7.650   4.224   4.847
 8623TIP3    H225811   7.576   4.302   4.740
 8624TIP3   OH225812   1.329   2.137   5.797
 8624TIP3    H125813   1.339   2.217   5.747
 8624TIP3    H225814   1.377   2.153   5.878
 8625TIP3   OH225815   1.519   0.100   3.525
 8625TIP3    H125816   1.570   0.145   3.593
 8625TIP3    H225817   1.520   0.160   3.451
 8626TIP3   OH225818   2.347   0.914   5.422
 8626TIP3    H125819   2.297   0.876   5.494
 8626TIP3    H225820   2.438   0.911   5.452
 8627TIP3   OH225821   6.298   3.057   6.085
 8627TIP3    H125822   6.265   3.083   6.171
 8627TIP3    H225823   6.330   3.138   6.045
 8628TIP3   OH225824   2.065   6.116   2.243
 8628TIP3    H125825   2.025   6.040   2.286
 8628TIP3    H225826   2.122   6.079   2.176
 8629TIP3   OH225827   2.710   0.158   6.703
 8629TIP3    H125828   2.692   0.082   6.758
 8629TIP3    H225829   2.688   0.233   6.758
 8630TIP3   OH225830   1.637   3.993   0.381
 8630TIP3    H125831   1.646   4.083   0.414
 8630TIP3    H225832   1.703   3.987   0.312
 8631TIP3   OH225833   0.281   5.293   1.984
 8631TIP3    H125834   0.354   5.297   2.046
 8631TIP3    H225835   0.212   5.345   2.026
 8632TIP3   OH225836   7.483   6.899   5.259
 8632TIP3    H125837   7.493   6.964   5.191
 8632TIP3    H225838   7.413   6.841   5.228
 8633TIP3   OH225839   5.805   6.900   3.200
 8633TIP3    H125840   5.765   6.987   3.189
 8633TIP3    H225841   5.793   6.880   3.293
 8634TIP3   OH225842   5.070   5.597   3.553
 8634TIP3    H125843   5.043   5.582   3.462
 8634TIP3    H225844   5.015   5.670   3.583
 8635TIP3   OH225845   2.313   7.159   6.715
 8635TIP3    H125846   2.297   7.251   6.737
 8635TIP3    H225847   2.248   7.138   6.649
 8636TIP3   OH225848   8.161   4.345   5.507
 8636TIP3    H125849   8.252   4.316   5.498
 8636TIP3    H225850   8.154   4.420   5.448
 8637TIP3   OH225851   0.396   7.193   0.820
 8637TIP3    H125852   0.404   7.208   0.914
 8637TIP3    H225853   0.309   7.226   0.798
 8638TIP3   OH225854   7.783   0.893   2.211
 8638TIP3    H125855   7.709   0.947   2.239
 8638TIP3    H225856   7.857   0.953   2.209
 8639TIP3   OH225857   7.193   3.821   5.075
 8639TIP3    H125858   7.110   3.853   5.038
 8639TIP3    H225859   7.193   3.854   5.165
 8640TIP3   OH225860   1.112   7.021   0.729
 8640TIP3    H125861   1.025   7.056   0.751
 8640TIP3    H225862   1.136   7.068   0.649
 8641TIP3   OH225863   0.277   2.699   2.997
 8641TIP3    H125864   0.330   2.654   3.063
 8641TIP3    H225865   0.296   2.652   2.916
 8642TIP3   OH225866   0.226   0.382   0.748
 8642TIP3    H125867   0.226   0.389   0.653
 8642TIP3    H225868   0.260   0.466   0.779
 8643TIP3   OH225869   2.665   2.712   2.572
 8643TIP3    H125870   2.586   2.756   2.539
 8643TIP3    H225871   2.697   2.769   2.642
 8644TIP3   OH225872   3.469   2.518   3.475
 8644TIP3    H125873   3.460   2.471   3.392
 8644TIP3    H225874   3.447   2.609   3.454
 8645TIP3   OH225875   2.088   2.154   3.081
 8645TIP3    H125876   2.089   2.169   2.987
 8645TIP3    H225877   2.022   2.086   3.093
 8646TIP3   OH225878   6.572   3.301   2.149
 8646TIP3    H125879   6.571   3.213   2.188
 8646TIP3    H225880   6.528   3.291   2.065
 8647TIP3   OH225881   4.410   4.659   5.446
 8647TIP3    H125882   4.448   4.587   5.396
 8647TIP3    H225883   4.325   4.626   5.474
 8648TIP3   OH225884   5.563   5.590   4.511
 8648TIP3    H125885   5.473   5.621   4.507
 8648TIP3    H225886   5.613   5.665   4.543
 8649TIP3   OH225887   7.333   5.949   1.229
 8649TIP3    H125888   7.247   5.974   1.193
 8649TIP3    H225889   7.388   5.935   1.151
 8650TIP3   OH225890   6.446   5.422   2.583
 8650TIP3    H125891   6.538   5.447   2.588
 8650TIP3    H225892   6.419   5.412   2.675
 8651TIP3   OH225893   3.153   2.071   1.361
 8651TIP3    H125894   3.072   2.117   1.383
 8651TIP3    H225895   3.181   2.031   1.443
 8652TIP3   OH225896   8.239   1.958   5.679
 8652TIP3    H125897   8.192   1.898   5.621
 8652TIP3    H225898   8.177   1.976   5.749
 8653TIP3   OH225899   1.139   3.045   5.541
 8653TIP3    H125900   1.124   3.131   5.579
 8653TIP3    H225901   1.202   3.003   5.600
 8654TIP3   OH225902   5.391   3.013   0.099
 8654TIP3    H125903   5.343   2.952   0.043
 8654TIP3    H225904   5.434   3.072   0.038
 8655TIP3   OH225905   2.661   4.488   6.169
 8655TIP3    H125906   2.685   4.538   6.091
 8655TIP3    H225907   2.573   4.520   6.191
 8656TIP3   OH225908   7.454   6.301   5.499
 8656TIP3    H125909   7.372   6.250   5.495
 8656TIP3    H225910   7.501   6.264   5.574
 8657TIP3   OH225911   5.164   4.235   3.863
 8657TIP3    H125912   5.115   4.153   3.851
 8657TIP3    H225913   5.211   4.223   3.945
 8658TIP3   OH225914   6.945   3.477   6.772
 8658TIP3    H125915   7.009   3.448   6.707
 8658TIP3    H225916   6.998   3.516   6.842
 8659TIP3   OH225917   3.346   1.314   2.804
 8659TIP3    H125918   3.421   1.320   2.745
 8659TIP3    H225919   3.299   1.236   2.775
 8660TIP3   OH225920   8.314   2.902   6.556
 8660TIP3    H125921   8.317   2.998   6.552
 8660TIP3    H225922   8.237   2.883   6.609
 8661TIP3   OH225923   4.757   2.869   5.344
 8661TIP3    H125924   4.795   2.938   5.399
 8661TIP3    H225925   4.710   2.916   5.275
 8662TIP3   OH225926   7.597   1.245   5.346
 8662TIP3    H125927   7.678   1.276   5.386
 8662TIP3    H225928   7.528   1.299   5.384
 8663TIP3   OH225929   5.658   1.035   2.718
 8663TIP3    H125930   5.642   1.109   2.776
 8663TIP3    H225931   5.686   0.964   2.776
 8664TIP3   OH225932   1.656   2.293   6.712
 8664TIP3    H125933   1.660   2.376   6.664
 8664TIP3    H225934   1.609   2.314   6.793
 8665TIP3   OH225935   3.296   4.735   4.233
 8665TIP3    H125936   3.248   4.733   4.150
 8665TIP3    H225937   3.345   4.817   4.231
 8666TIP3   OH225938   1.168   7.478   1.969
 8666TIP3    H125939   1.263   7.467   1.977
 8666TIP3    H225940   1.135   7.388   1.959
 8667TIP3   OH225941   0.785   0.260   6.735
 8667TIP3    H125942   0.753   0.273   6.825
 8667TIP3    H225943   0.716   0.298   6.680
 8668TIP3   OH225944   0.922   1.519   4.217
 8668TIP3    H125945   0.894   1.432   4.246
 8668TIP3    H225946   0.993   1.501   4.155
 8669TIP3   OH225947   7.201   4.032   1.666
 8669TIP3    H125948   7.224   4.112   1.619
 8669TIP3    H225949   7.197   4.059   1.758
 8670TIP3   OH225950   2.618   5.371   1.898
 8670TIP3    H125951   2.577   5.288   1.920
 8670TIP3    H225952   2.544   5.429   1.878
 8671TIP3   OH225953   4.071   7.577   3.962
 8671TIP3    H125954   4.004   7.510   3.973
 8671TIP3    H225955   4.131   7.539   3.897
 8672TIP3   OH225956   4.700   1.985   0.849
 8672TIP3    H125957   4.632   1.941   0.798
 8672TIP3    H225958   4.734   1.917   0.907
 8673TIP3   OH225959   1.866   5.617   4.961
 8673TIP3    H125960   1.914   5.612   5.043
 8673TIP3    H225961   1.775   5.603   4.985
 8674TIP3   OH225962   4.522   1.309   0.558
 8674TIP3    H125963   4.474   1.251   0.618
 8674TIP3    H225964   4.458   1.332   0.491
 8675TIP3   OH225965   7.772   6.766   4.208
 8675TIP3    H125966   7.741   6.856   4.211
 8675TIP3    H225967   7.718   6.719   4.271
 8676TIP3   OH225968   4.527   7.367   0.199
 8676TIP3    H125969   4.617   7.335   0.191
 8676TIP3    H225970   4.534   7.461   0.185
 8677TIP3   OH225971   4.582   6.577   0.402
 8677TIP3    H125972   4.501   6.550   0.445
 8677TIP3    H225973   4.598   6.667   0.433
 8678TIP3   OH225974   4.353   0.031   4.200
 8678TIP3    H125975   4.328  -0.062   4.199
 8678TIP3    H225976   4.313   0.068   4.122
 8679TIP3   OH225977   0.253   0.076   0.817
 8679TIP3    H125978   0.262   0.152   0.761
 8679TIP3    H225979   0.335   0.029   0.808
 8680TIP3   OH225980   6.241   7.766   0.146
 8680TIP3    H125981   6.162   7.746   0.194
 8680TIP3    H225982   6.303   7.697   0.170
 8681TIP3   OH225983   7.992   2.252   6.011
 8681TIP3    H125984   8.030   2.331   5.972
 8681TIP3    H225985   7.899   2.273   6.020
 8682TIP3   OH225986   7.248   5.853   1.820
 8682TIP3    H125987   7.207   5.796   1.886
 8682TIP3    H225988   7.201   5.936   1.829
 8683TIP3   OH225989   6.668   5.975   2.964
 8683TIP3    H125990   6.729   5.967   2.891
 8683TIP3    H225991   6.646   6.069   2.966
 8684TIP3   OH225992   5.984   2.216   3.606
 8684TIP3    H125993   5.889   2.215   3.596
 8684TIP3    H225994   6.001   2.274   3.680
 8685TIP3   OH225995   8.361   4.005   5.477
 8685TIP3    H125996   8.272   3.991   5.512
 8685TIP3    H225997   8.346   4.039   5.389
 8686TIP3   OH225998   0.253   3.171   1.341
 8686TIP3    H125999   0.273   3.113   1.267
 8686TIP3    H226000   0.325   3.234   1.343
 8687TIP3   OH226001   4.901   5.314   2.463
 8687TIP3    H126002   4.942   5.348   2.543
 8687TIP3    H226003   4.836   5.381   2.440
 8688TIP3   OH226004   6.436   0.747   5.467
 8688TIP3    H126005   6.508   0.757   5.405
 8688TIP3    H226006   6.475   0.765   5.553
 8689TIP3   OH226007   8.414   6.887   4.457
 8689TIP3    H126008   8.407   6.949   4.529
 8689TIP3    H226009   8.335   6.899   4.405
 8690TIP3   OH226010   4.608   7.754   2.328
 8690TIP3    H126011   4.660   7.720   2.255
 8690TIP3    H226012   4.519   7.723   2.311
 8691TIP3   OH226013   3.560   2.555   2.212
 8691TIP3    H126014   3.617   2.479   2.203
 8691TIP3    H226015   3.486   2.523   2.263
 8692TIP3   OH226016   1.332   1.548   4.970
 8692TIP3    H126017   1.242   1.527   4.945
 8692TIP3    H226018   1.347   1.501   5.052
 8693TIP3   OH226019   4.241   7.482   0.417
 8693TIP3    H126020   4.270   7.408   0.470
 8693TIP3    H226021   4.181   7.443   0.352
 8694TIP3   OH226022   5.602   3.789   2.504
 8694TIP3    H126023   5.586   3.836   2.422
 8694TIP3    H226024   5.532   3.819   2.562
 8695TIP3   OH226025   5.720   7.729   4.000
 8695TIP3    H126026   5.687   7.740   3.911
 8695TIP3    H226027   5.813   7.750   3.994
 8696TIP3   OH226028   6.230   6.620   0.577
 8696TIP3    H126029   6.246   6.714   0.582
 8696TIP3    H226030   6.145   6.608   0.621
 8697TIP3   OH226031   1.110   7.236   0.563
 8697TIP3    H126032   1.016   7.217   0.556
 8697TIP3    H226033   1.119   7.325   0.530
 8698TIP3   OH226034   7.850   6.681   1.097
 8698TIP3    H126035   7.784   6.671   1.029
 8698TIP3    H226036   7.929   6.643   1.058
 8699TIP3   OH226037   5.951   0.130   3.264
 8699TIP3    H126038   5.878   0.073   3.240
 8699TIP3    H226039   5.922   0.172   3.346
 8700TIP3   OH226040   2.954   3.172   1.051
 8700TIP3    H126041   3.003   3.089   1.052
 8700TIP3    H226042   2.926   3.182   0.960
 8701TIP3   OH226043   0.316   4.109   3.890
 8701TIP3    H126044   0.363   4.045   3.944
 8701TIP3    H226045   0.299   4.063   3.808
 8702TIP3   OH226046   1.927   2.950   3.630
 8702TIP3    H126047   1.969   2.875   3.672
 8702TIP3    H226048   1.833   2.930   3.635
 8703TIP3   OH226049   7.638   1.857   6.289
 8703TIP3    H126050   7.679   1.908   6.218
 8703TIP3    H226051   7.594   1.922   6.343
 8704TIP3   OH226052   4.973   3.724   0.326
 8704TIP3    H126053   4.907   3.728   0.396
 8704TIP3    H226054   5.052   3.691   0.369
 8705TIP3   OH226055   0.557   5.094   0.502
 8705TIP3    H126056   0.592   5.039   0.572
 8705TIP3    H226057   0.504   5.034   0.449
 8706TIP3   OH226058   2.352   1.780   1.037
 8706TIP3    H126059   2.375   1.756   0.948
 8706TIP3    H226060   2.304   1.862   1.028
 8707TIP3   OH226061   6.700   4.809   5.171
 8707TIP3    H126062   6.682   4.738   5.233
 8707TIP3    H226063   6.775   4.856   5.209
 8708TIP3   OH226064   7.356   3.864   2.431
 8708TIP3    H126065   7.312   3.825   2.356
 8708TIP3    H226066   7.297   3.933   2.461
 8709TIP3   OH226067   4.663   4.402   0.215
 8709TIP3    H126068   4.672   4.487   0.172
 8709TIP3    H226069   4.656   4.424   0.308
 8710TIP3   OH226070   1.235   3.243   3.308
 8710TIP3    H126071   1.291   3.257   3.384
 8710TIP3    H226072   1.161   3.303   3.321
 8711TIP3   OH226073   2.284   3.422   3.320
 8711TIP3    H126074   2.244   3.396   3.237
 8711TIP3    H226075   2.378   3.409   3.306
 8712TIP3   OH226076   7.767   2.215   3.269
 8712TIP3    H126077   7.749   2.239   3.178
 8712TIP3    H226078   7.714   2.276   3.320
 8713TIP3   OH226079   6.002   4.357   2.562
 8713TIP3    H126080   6.011   4.344   2.656
 8713TIP3    H226081   6.084   4.398   2.535
 8714TIP3   OH226082   5.387   0.712   0.684
 8714TIP3    H126083   5.302   0.756   0.693
 8714TIP3    H226084   5.436   0.738   0.762
 8715TIP3   OH226085   3.521   1.418   6.247
 8715TIP3    H126086   3.581   1.375   6.186
 8715TIP3    H226087   3.496   1.350   6.309
 8716TIP3   OH226088   3.480   0.444   4.422
 8716TIP3    H126089   3.574   0.451   4.439
 8716TIP3    H226090   3.473   0.429   4.328
 8717TIP3   OH226091   4.195   1.428   0.133
 8717TIP3    H126092   4.113   1.429   0.182
 8717TIP3    H226093   4.176   1.375   0.056
 8718TIP3   OH226094   6.677   4.182   0.324
 8718TIP3    H126095   6.717   4.208   0.406
 8718TIP3    H226096   6.659   4.264   0.278
 8719TIP3   OH226097   0.290   4.763   6.416
 8719TIP3    H126098   0.227   4.814   6.468
 8719TIP3    H226099   0.237   4.693   6.378
 8720TIP3   OH226100   4.249   4.157   1.314
 8720TIP3    H126101   4.306   4.180   1.240
 8720TIP3    H226102   4.281   4.212   1.386
 8721TIP3   OH226103   1.927   6.183   0.131
 8721TIP3    H126104   2.000   6.177   0.070
 8721TIP3    H226105   1.961   6.148   0.213
 8722TIP3   OH226106   1.967   4.435   3.447
 8722TIP3    H126107   1.906   4.437   3.374
 8722TIP3    H226108   1.979   4.527   3.471
 8723TIP3   OH226109   1.804   3.452   6.309
 8723TIP3    H126110   1.769   3.396   6.378
 8723TIP3    H226111   1.898   3.439   6.313
 8724TIP3   OH226112   8.388   4.720   6.612
 8724TIP3    H126113   8.304   4.759   6.634
 8724TIP3    H226114   8.415   4.765   6.531
 8725TIP3   OH226115   6.073   3.916   0.219
 8725TIP3    H126116   6.039   3.938   0.132
 8725TIP3    H226117   6.162   3.885   0.203
 8726TIP3   OH226118   2.588   2.391   5.330
 8726TIP3    H126119   2.579   2.441   5.412
 8726TIP3    H226120   2.520   2.323   5.336
 8727TIP3   OH226121   3.997   4.924   3.176
 8727TIP3    H126122   4.079   4.881   3.200
 8727TIP3    H226123   3.931   4.881   3.231
 8728TIP3   OH226124   4.502   2.033   2.100
 8728TIP3    H126125   4.422   2.071   2.063
 8728TIP3    H226126   4.551   2.108   2.135
 8729TIP3   OH226127   6.597   2.723   5.791
 8729TIP3    H126128   6.534   2.656   5.816
 8729TIP3    H226129   6.666   2.718   5.858
 8730TIP3   OH226130   5.164   4.913   2.876
 8730TIP3    H126131   5.246   4.873   2.905
 8730TIP3    H226132   5.118   4.937   2.957
 8731TIP3   OH226133   4.994   5.129   4.889
 8731TIP3    H126134   4.969   5.070   4.818
 8731TIP3    H226135   4.947   5.096   4.966
 8732TIP3   OH226136   0.776   0.909   0.221
 8732TIP3    H126137   0.690   0.878   0.192
 8732TIP3    H226138   0.830   0.830   0.228
 8733TIP3   OH226139   3.344   3.292   0.318
 8733TIP3    H126140   3.321   3.360   0.381
 8733TIP3    H226141   3.260   3.254   0.292
 8734TIP3   OH226142   7.851   2.141   1.074
 8734TIP3    H126143   7.943   2.131   1.051
 8734TIP3    H226144   7.850   2.139   1.170
 8735TIP3   OH226145   3.911   2.001   0.499
 8735TIP3    H126146   4.003   2.026   0.498
 8735TIP3    H226147   3.871   2.060   0.564
 8736TIP3   OH226148   4.547   1.207   2.756
 8736TIP3    H126149   4.496   1.178   2.831
 8736TIP3    H226150   4.549   1.132   2.697
 8737TIP3   OH226151   1.258   6.329   6.538
 8737TIP3    H126152   1.166   6.303   6.529
 8737TIP3    H226153   1.282   6.362   6.452
 8738TIP3   OH226154   5.340   4.684   4.391
 8738TIP3    H126155   5.413   4.733   4.427
 8738TIP3    H226156   5.285   4.662   4.466
 8739TIP3   OH226157   3.110   1.136   1.045
 8739TIP3    H126158   3.122   1.177   1.131
 8739TIP3    H226159   3.097   1.043   1.064
 8740TIP3   OH226160   7.485   6.554   2.578
 8740TIP3    H126161   7.408   6.498   2.572
 8740TIP3    H226162   7.477   6.613   2.503
 8741TIP3   OH226163   7.879   7.648   6.490
 8741TIP3    H126164   7.905   7.686   6.574
 8741TIP3    H226165   7.896   7.717   6.426
 8742TIP3   OH226166   6.245   7.263  -0.006
 8742TIP3    H126167   6.287   7.220   0.069
 8742TIP3    H226168   6.156   7.282   0.024
 8743TIP3   OH226169   5.407   1.421   3.561
 8743TIP3    H126170   5.344   1.419   3.489
 8743TIP3    H226171   5.367   1.479   3.626
 8744TIP3   OH226172   0.875   7.769   1.914
 8744TIP3    H126173   0.840   7.853   1.942
 8744TIP3    H226174   0.824   7.746   1.837
 8745TIP3   OH226175   6.669   6.621   5.364
 8745TIP3    H126176   6.659   6.681   5.438
 8745TIP3    H226177   6.584   6.621   5.320
 8746TIP3   OH226178   0.838   1.063   1.417
 8746TIP3    H126179   0.812   1.128   1.482
 8746TIP3    H226180   0.875   1.113   1.345
 8747TIP3   OH226181   2.554   6.217   4.011
 8747TIP3    H126182   2.588   6.134   4.044
 8747TIP3    H226183   2.622   6.281   4.033
 8748TIP3   OH226184   8.156   1.442   2.656
 8748TIP3    H126185   8.159   1.375   2.588
 8748TIP3    H226186   8.247   1.454   2.682
 8749TIP3   OH226187   3.206   0.830   0.315
 8749TIP3    H126188   3.207   0.815   0.221
 8749TIP3    H226189   3.229   0.923   0.325
 8750TIP3   OH226190   4.124   6.589   0.022
 8750TIP3    H126191   4.125   6.584   0.118
 8750TIP3    H226192   4.127   6.683   0.003
 8751TIP3   OH226193   5.762   1.617   1.805
 8751TIP3    H126194   5.790   1.596   1.716
 8751TIP3    H226195   5.752   1.712   1.805
 8752TIP3   OH226196   3.600   7.845   1.922
 8752TIP3    H126197   3.587   7.845   2.017
 8752TIP3    H226198   3.588   7.753   1.896
 8753TIP3   OH226199   5.211   2.966   1.519
 8753TIP3    H126200   5.262   3.016   1.456
 8753TIP3    H226201   5.120   2.990   1.501
 8754TIP3   OH226202   4.971   3.722   6.052
 8754TIP3    H126203   5.007   3.663   6.118
 8754TIP3    H226204   4.946   3.665   5.979
 8755TIP3   OH226205   4.157   6.248   0.617
 8755TIP3    H126206   4.119   6.256   0.530
 8755TIP3    H226207   4.191   6.335   0.637
 8756TIP3   OH226208   1.503   3.031   3.750
 8756TIP3    H126209   1.569   2.985   3.803
 8756TIP3    H226210   1.494   3.116   3.792
 8757TIP3   OH226211   8.144   6.364   1.765
 8757TIP3    H126212   8.207   6.301   1.800
 8757TIP3    H226213   8.073   6.365   1.829
 8758TIP3   OH226214   8.142   0.993   4.805
 8758TIP3    H126215   8.072   0.969   4.744
 8758TIP3    H226216   8.158   1.085   4.789
 8759TIP3   OH226217   7.544   2.794   2.148
 8759TIP3    H126218   7.600   2.751   2.083
 8759TIP3    H226219   7.531   2.729   2.216
 8760TIP3   OH226220   6.478   6.175   4.626
 8760TIP3    H126221   6.442   6.142   4.544
 8760TIP3    H226222   6.501   6.266   4.607
 8761TIP3   OH226223   2.286   3.667   4.789
 8761TIP3    H126224   2.265   3.660   4.882
 8761TIP3    H226225   2.347   3.740   4.783
 8762TIP3   OH226226   6.954   3.957   2.242
 8762TIP3    H126227   6.888   3.919   2.185
 8762TIP3    H226228   6.950   3.906   2.323
 8763TIP3   OH226229   6.390   0.725   5.125
 8763TIP3    H126230   6.484   0.717   5.139
 8763TIP3    H226231   6.380   0.736   5.031
 8764TIP3   OH226232   1.156   5.477   5.330
 8764TIP3    H126233   1.226   5.488   5.394
 8764TIP3    H226234   1.155   5.559   5.280
 8765TIP3   OH226235   7.609   0.826   6.264
 8765TIP3    H126236   7.634   0.774   6.188
 8765TIP3    H226237   7.676   0.807   6.330
 8766TIP3   OH226238   6.041   3.156   6.343
 8766TIP3    H126239   5.995   3.095   6.402
 8766TIP3    H226240   6.134   3.142   6.362
 8767TIP3   OH226241   1.318   1.769   1.878
 8767TIP3    H126242   1.375   1.693   1.870
 8767TIP3    H226243   1.337   1.820   1.799
 8768TIP3   OH226244   1.048   0.818   2.422
 8768TIP3    H126245   1.055   0.901   2.469
 8768TIP3    H226246   1.078   0.752   2.485
 8769TIP3   OH226247   7.209   4.631   0.307
 8769TIP3    H126248   7.233   4.539   0.314
 8769TIP3    H226249   7.127   4.638   0.356
 8770TIP3   OH226250   4.737   0.934   6.055
 8770TIP3    H126251   4.710   0.860   6.109
 8770TIP3    H226252   4.656   0.966   6.015
 8771TIP3   OH226253   6.632   5.809   4.995
 8771TIP3    H126254   6.692   5.829   5.067
 8771TIP3    H226255   6.621   5.893   4.950
 8772TIP3   OH226256   4.444   5.383   4.973
 8772TIP3    H126257   4.411   5.327   4.903
 8772TIP3    H226258   4.423   5.472   4.945
 8773TIP3   OH226259   3.321   7.716   3.230
 8773TIP3    H126260   3.392   7.771   3.199
 8773TIP3    H226261   3.362   7.631   3.248
 8774TIP3   OH226262   0.755   6.483   4.450
 8774TIP3    H126263   0.720   6.557   4.499
 8774TIP3    H226264   0.680   6.447   4.403
 8775TIP3   OH226265   2.006   5.497   3.211
 8775TIP3    H126266   1.993   5.403   3.226
 8775TIP3    H226267   1.988   5.509   3.117
 8776TIP3   OH226268   8.068   1.492   3.562
 8776TIP3    H126269   8.136   1.509   3.627
 8776TIP3    H226270   8.016   1.420   3.600
 8777TIP3   OH226271   4.248   2.303   2.245
 8777TIP3    H126272   4.193   2.381   2.250
 8777TIP3    H226273   4.289   2.308   2.158
 8778TIP3   OH226274   8.318   3.907   3.051
 8778TIP3    H126275   8.388   3.843   3.039
 8778TIP3    H226276   8.308   3.948   2.965
 8779TIP3   OH226277   1.056   2.522   3.815
 8779TIP3    H126278   1.034   2.600   3.765
 8779TIP3    H226279   1.072   2.455   3.748
 8780TIP3   OH226280   2.941   5.874   0.876
 8780TIP3    H126281   2.969   5.915   0.958
 8780TIP3    H226282   2.918   5.784   0.900
 8781TIP3   OH226283   0.197   5.634   1.627
 8781TIP3    H126284   0.159   5.702   1.571
 8781TIP3    H226285   0.128   5.615   1.691
 8782TIP3   OH226286   2.992   2.644   1.097
 8782TIP3    H126287   3.071   2.591   1.092
 8782TIP3    H226288   2.932   2.605   1.034
 8783TIP3   OH226289   5.709   3.189   4.762
 8783TIP3    H126290   5.682   3.206   4.672
 8783TIP3    H226291   5.724   3.275   4.800
 8784TIP3   OH226292   3.924   1.931   4.264
 8784TIP3    H126293   3.865   1.928   4.188
 8784TIP3    H226294   3.906   2.015   4.306
 8785TIP3   OH226295   4.317   5.684   0.597
 8785TIP3    H126296   4.390   5.733   0.635
 8785TIP3    H226297   4.283   5.631   0.669
 8786TIP3   OH226298   0.322   1.554   3.644
 8786TIP3    H126299   0.231   1.529   3.660
 8786TIP3    H226300   0.323   1.649   3.655
 8787TIP3   OH226301   8.074   4.078   4.977
 8787TIP3    H126302   7.995   4.026   4.989
 8787TIP3    H226303   8.140   4.035   5.031
 8788TIP3   OH226304   6.529   1.863   5.485
 8788TIP3    H126305   6.606   1.915   5.465
 8788TIP3    H226306   6.462   1.926   5.512
 8789TIP3   OH226307   2.696   7.342   2.000
 8789TIP3    H126308   2.728   7.420   2.046
 8789TIP3    H226309   2.776   7.295   1.975
 8790TIP3   OH226310   1.814   7.334   5.232
 8790TIP3    H126311   1.730   7.326   5.187
 8790TIP3    H226312   1.870   7.383   5.172
 8791TIP3   OH226313   0.768   3.693   6.381
 8791TIP3    H126314   0.748   3.601   6.360
 8791TIP3    H226315   0.863   3.695   6.388
 8792TIP3   OH226316   3.129   5.018   2.866
 8792TIP3    H126317   3.217   5.040   2.897
 8792TIP3    H226318   3.113   4.930   2.899
 8793TIP3   OH226319   3.073   4.570   1.956
 8793TIP3    H126320   3.007   4.554   2.023
 8793TIP3    H226321   3.039   4.526   1.878
 8794TIP3   OH226322   2.866   2.428   1.282
 8794TIP3    H126323   2.886   2.347   1.327
 8794TIP3    H226324   2.865   2.405   1.189
 8795TIP3   OH226325   2.975   4.976   1.129
 8795TIP3    H126326   2.888   5.008   1.104
 8795TIP3    H226327   2.958   4.910   1.196
 8796TIP3   OH226328   0.743   7.792   4.827
 8796TIP3    H126329   0.691   7.796   4.746
 8796TIP3    H226330   0.831   7.815   4.800
 8797TIP3   OH226331   0.212   3.053   0.990
 8797TIP3    H126332   0.285   3.023   1.045
 8797TIP3    H226333   0.252   3.069   0.905
 8798TIP3   OH226334   7.423   0.054   5.368
 8798TIP3    H126335   7.486   0.125   5.381
 8798TIP3    H226336   7.460   0.001   5.298
 8799TIP3   OH226337   2.499   7.347   2.370
 8799TIP3    H126338   2.442   7.410   2.327
 8799TIP3    H226339   2.448   7.266   2.373
 8800TIP3   OH226340   2.890   6.066   1.497
 8800TIP3    H126341   2.862   5.987   1.450
 8800TIP3    H226342   2.965   6.038   1.549
 8801TIP3   OH226343   5.415   6.549   2.862
 8801TIP3    H126344   5.504   6.577   2.881
 8801TIP3    H226345   5.381   6.518   2.946
 8802TIP3   OH226346   1.377   7.479   6.834
 8802TIP3    H126347   1.312   7.444   6.773
 8802TIP3    H226348   1.326   7.532   6.895
 8803TIP3   OH226349   2.540   1.848   1.726
 8803TIP3    H126350   2.524   1.878   1.815
 8803TIP3    H226351   2.487   1.906   1.671
 8804TIP3   OH226352   4.743   0.562   3.767
 8804TIP3    H126353   4.769   0.551   3.676
 8804TIP3    H226354   4.736   0.473   3.801
 8805TIP3   OH226355   0.715   2.845   5.440
 8805TIP3    H126356   0.809   2.856   5.453
 8805TIP3    H226357   0.677   2.925   5.475
 8806TIP3   OH226358   4.721   6.615   5.342
 8806TIP3    H126359   4.656   6.582   5.404
 8806TIP3    H226360   4.782   6.665   5.396
 8807TIP3   OH226361   0.671   2.133   2.369
 8807TIP3    H126362   0.666   2.133   2.274
 8807TIP3    H226363   0.751   2.182   2.388
 8808TIP3   OH226364   2.228   1.026   2.819
 8808TIP3    H126365   2.295   1.029   2.751
 8808TIP3    H226366   2.166   1.095   2.794
 8809TIP3   OH226367   6.090   2.235   0.249
 8809TIP3    H126368   6.180   2.267   0.262
 8809TIP3    H226369   6.095   2.184   0.168
 8810TIP3   OH226370   7.418   4.932   6.690
 8810TIP3    H126371   7.340   4.980   6.718
 8810TIP3    H226372   7.466   4.915   6.771
 8811TIP3   OH226373   7.133   6.187   3.811
 8811TIP3    H126374   7.070   6.129   3.768
 8811TIP3    H226375   7.169   6.239   3.739
 8812TIP3   OH226376   0.797   1.384   0.176
 8812TIP3    H126377   0.742   1.329   0.232
 8812TIP3    H226378   0.886   1.369   0.207
 8813TIP3   OH226379   5.280   7.212   2.316
 8813TIP3    H126380   5.373   7.223   2.335
 8813TIP3    H226381   5.237   7.225   2.400
 8814TIP3   OH226382   1.044   4.513   2.864
 8814TIP3    H126383   1.088   4.587   2.905
 8814TIP3    H226384   1.055   4.528   2.770
 8815TIP3   OH226385   1.408   7.148   4.105
 8815TIP3    H126386   1.328   7.158   4.157
 8815TIP3    H226387   1.386   7.185   4.020
 8816TIP3   OH226388   3.681   4.528   0.157
 8816TIP3    H126389   3.715   4.547   0.070
 8816TIP3    H226390   3.751   4.478   0.200
 8817TIP3   OH226391   3.779   7.080   3.373
 8817TIP3    H126392   3.757   7.033   3.453
 8817TIP3    H226393   3.841   7.148   3.401
 8818TIP3   OH226394   0.347   7.300   6.892
 8818TIP3    H126395   0.322   7.392   6.896
 8818TIP3    H226396   0.352   7.280   6.799
 8819TIP3   OH226397   3.742   6.738   1.266
 8819TIP3    H126398   3.728   6.816   1.211
 8819TIP3    H226399   3.730   6.770   1.355
 8820TIP3   OH226400   2.620   5.881   4.664
 8820TIP3    H126401   2.582   5.948   4.721
 8820TIP3    H226402   2.545   5.833   4.629
 8821TIP3   OH226403   4.544   5.423   5.233
 8821TIP3    H126404   4.555   5.339   5.280
 8821TIP3    H226405   4.500   5.399   5.152
 8822TIP3   OH226406   6.163   3.190   1.700
 8822TIP3    H126407   6.071   3.218   1.707
 8822TIP3    H226408   6.185   3.207   1.608
 8823TIP3   OH226409   6.986   6.915   0.596
 8823TIP3    H126410   6.897   6.947   0.614
 8823TIP3    H226411   6.973   6.841   0.536
 8824TIP3   OH226412   2.670   7.850   0.317
 8824TIP3    H126413   2.732   7.789   0.276
 8824TIP3    H226414   2.654   7.916   0.250
 8825TIP3   OH226415   7.498   2.637   5.355
 8825TIP3    H126416   7.406   2.636   5.383
 8825TIP3    H226417   7.542   2.687   5.423
 8826TIP3   OH226418   3.579   7.680   0.247
 8826TIP3    H126419   3.513   7.613   0.261
 8826TIP3    H226420   3.588   7.724   0.332
 8827TIP3   OH226421   6.923   5.084   6.487
 8827TIP3    H126422   6.831   5.065   6.505
 8827TIP3    H226423   6.928   5.090   6.392
 8828TIP3   OH226424   5.838   6.431   2.260
 8828TIP3    H126425   5.785   6.438   2.340
 8828TIP3    H226426   5.778   6.458   2.190
 8829TIP3   OH226427   8.333   1.446   4.003
 8829TIP3    H126428   8.311   1.353   4.012
 8829TIP3    H226429   8.283   1.476   3.927
 8830TIP3   OH226430   3.096   7.424   3.642
 8830TIP3    H126431   3.088   7.368   3.566
 8830TIP3    H226432   3.122   7.509   3.607
 8831TIP3   OH226433   6.555   1.488   5.538
 8831TIP3    H126434   6.584   1.565   5.588
 8831TIP3    H226435   6.480   1.454   5.586
 8832TIP3   OH226436   6.136   3.941   3.881
 8832TIP3    H126437   6.131   4.011   3.816
 8832TIP3    H226438   6.103   3.980   3.962
 8833TIP3   OH226439   0.448   5.740   4.194
 8833TIP3    H126440   0.531   5.771   4.159
 8833TIP3    H226441   0.401   5.707   4.117
 8834TIP3   OH226442   2.805   4.544   6.408
 8834TIP3    H126443   2.792   4.532   6.313
 8834TIP3    H226444   2.805   4.455   6.443
 8835TIP3   OH226445   4.366   6.171   2.060
 8835TIP3    H126446   4.293   6.130   2.014
 8835TIP3    H226447   4.440   6.161   2.000
 8836TIP3   OH226448   7.653   3.905   0.688
 8836TIP3    H126449   7.579   3.868   0.735
 8836TIP3    H226450   7.730   3.872   0.734
 8837TIP3   OH226451   6.075   6.764   2.933
 8837TIP3    H126452   6.136   6.692   2.915
 8837TIP3    H226453   6.036   6.741   3.017
 8838TIP3   OH226454   2.721   1.982   5.512
 8838TIP3    H126455   2.657   1.925   5.470
 8838TIP3    H226456   2.669   2.038   5.570
 8839TIP3   OH226457   5.420   1.936   4.815
 8839TIP3    H126458   5.491   1.987   4.853
 8839TIP3    H226459   5.378   1.996   4.754
 8840TIP3   OH226460   8.068   0.841   6.331
 8840TIP3    H126461   8.085   0.876   6.418
 8840TIP3    H226462   7.976   0.815   6.333
 8841TIP3   OH226463   2.374   5.320   0.074
 8841TIP3    H126464   2.310   5.390   0.065
 8841TIP3    H226465   2.457   5.359   0.047
 8842TIP3   OH226466   1.469   4.818   5.644
 8842TIP3    H126467   1.550   4.806   5.595
 8842TIP3    H226468   1.455   4.913   5.644
 8843TIP3   OH226469   8.387   6.164   6.045
 8843TIP3    H126470   8.354   6.137   5.959
 8843TIP3    H226471   8.429   6.248   6.029
 8844TIP3   OH226472   1.755   1.595   6.164
 8844TIP3    H126473   1.686   1.567   6.104
 8844TIP3    H226474   1.817   1.521   6.165
 8845TIP3   OH226475   0.546   1.608   0.383
 8845TIP3    H126476   0.622   1.570   0.426
 8845TIP3    H226477   0.572   1.698   0.363
 8846TIP3   OH226478   0.421   3.977   1.647
 8846TIP3    H126479   0.451   3.887   1.657
 8846TIP3    H226480   0.430   4.016   1.734
 8847TIP3   OH226481   3.257   7.585   4.784
 8847TIP3    H126482   3.231   7.635   4.861
 8847TIP3    H226483   3.321   7.641   4.739
 8848TIP3   OH226484   6.289   7.229   2.445
 8848TIP3    H126485   6.320   7.318   2.425
 8848TIP3    H226486   6.208   7.221   2.395
 8849TIP3   OH226487   4.355   0.842   4.710
 8849TIP3    H126488   4.329   0.878   4.795
 8849TIP3    H226489   4.290   0.774   4.692
 8850TIP3   OH226490   0.889   3.690   4.975
 8850TIP3    H126491   0.971   3.719   4.933
 8850TIP3    H226492   0.918   3.637   5.049
 8851TIP3   OH226493   2.615   0.399   6.751
 8851TIP3    H126494   2.673   0.457   6.801
 8851TIP3    H226495   2.616   0.436   6.663
 8852TIP3   OH226496   3.501   0.478   1.528
 8852TIP3    H126497   3.546   0.423   1.592
 8852TIP3    H226498   3.497   0.425   1.448
 8853TIP3   OH226499   6.063   7.295   4.001
 8853TIP3    H126500   6.129   7.226   3.986
 8853TIP3    H226501   5.979   7.251   3.986
 8854TIP3   OH226502   1.495   3.282   1.683
 8854TIP3    H126503   1.466   3.193   1.664
 8854TIP3    H226504   1.419   3.337   1.664
 8855TIP3   OH226505   7.695   6.614   0.879
 8855TIP3    H126506   7.714   6.595   0.788
 8855TIP3    H226507   7.627   6.551   0.903
 8856TIP3   OH226508   1.774   6.694   1.188
 8856TIP3    H126509   1.747   6.709   1.279
 8856TIP3    H226510   1.784   6.599   1.182
 8857TIP3   OH226511   0.398   1.362   6.266
 8857TIP3    H126512   0.372   1.294   6.328
 8857TIP3    H226513   0.493   1.362   6.269
 8858TIP3   OH226514   2.254   3.408   6.252
 8858TIP3    H126515   2.200   3.475   6.295
 8858TIP3    H226516   2.197   3.371   6.184
 8859TIP3   OH226517   7.922   0.850   1.722
 8859TIP3    H126518   7.902   0.820   1.634
 8859TIP3    H226519   7.853   0.812   1.777
 8860TIP3   OH226520   7.074   2.221   1.406
 8860TIP3    H126521   7.079   2.303   1.357
 8860TIP3    H226522   7.165   2.199   1.426
 8861TIP3   OH226523   4.735   3.451   6.631
 8861TIP3    H126524   4.804   3.477   6.692
 8861TIP3    H226525   4.705   3.366   6.662
 8862TIP3   OH226526   5.028   5.947   0.518
 8862TIP3    H126527   5.079   5.876   0.479
 8862TIP3    H226528   5.018   5.921   0.610
 8863TIP3   OH226529   2.875   5.591   4.665
 8863TIP3    H126530   2.845   5.668   4.713
 8863TIP3    H226531   2.958   5.567   4.706
 8864TIP3   OH226532   2.294   3.387   4.682
 8864TIP3    H126533   2.305   3.398   4.776
 8864TIP3    H226534   2.231   3.454   4.657
 8865TIP3   OH226535   7.942   6.918   6.073
 8865TIP3    H126536   7.932   6.992   6.133
 8865TIP3    H226537   7.999   6.856   6.119
 8866TIP3   OH226538   0.665   1.578   5.115
 8866TIP3    H126539   0.575   1.587   5.147
 8866TIP3    H226540   0.656   1.557   5.023
 8867TIP3   OH226541  -0.021   7.686   0.237
 8867TIP3    H126542   0.059   7.635   0.222
 8867TIP3    H226543  -0.067   7.683   0.153
 8868TIP3   OH226544   7.914   1.039   4.296
 8868TIP3    H126545   7.964   0.968   4.336
 8868TIP3    H226546   7.927   1.026   4.202
 8869TIP3   OH226547   1.523   4.015   4.359
 8869TIP3    H126548   1.444   4.005   4.412
 8869TIP3    H226549   1.544   4.108   4.365
 8870TIP3   OH226550   6.275   7.433   6.510
 8870TIP3    H126551   6.185   7.448   6.480
 8870TIP3    H226552   6.318   7.518   6.501
 8871TIP3   OH226553   1.871   2.316   2.677
 8871TIP3    H126554   1.946   2.368   2.705
 8871TIP3    H226555   1.904   2.266   2.602
 8872TIP3   OH226556   1.880   6.205   4.350
 8872TIP3    H126557   1.943   6.264   4.392
 8872TIP3    H226558   1.803   6.207   4.407
 8873TIP3   OH226559   1.116   1.537   0.174
 8873TIP3    H126560   1.166   1.549   0.255
 8873TIP3    H226561   1.029   1.569   0.195
 8874TIP3   OH226562   5.568   3.676   0.033
 8874TIP3    H126563   5.499   3.690   0.097
 8874TIP3    H226564   5.641   3.731   0.064
 8875TIP3   OH226565   2.866   1.029   2.623
 8875TIP3    H126566   2.906   1.021   2.710
 8875TIP3    H226567   2.800   1.097   2.633
 8876TIP3   OH226568   7.591   0.146   3.586
 8876TIP3    H126569   7.645   0.070   3.563
 8876TIP3    H226570   7.572   0.188   3.502
 8877TIP3   OH226571   0.298   0.281   5.035
 8877TIP3    H126572   0.337   0.369   5.036
 8877TIP3    H226573   0.363   0.225   5.077
 8878TIP3   OH226574   0.462   5.772   3.667
 8878TIP3    H126575   0.553   5.744   3.667
 8878TIP3    H226576   0.443   5.796   3.576
 8879TIP3   OH226577   4.877   0.402   2.677
 8879TIP3    H126578   4.821   0.409   2.755
 8879TIP3    H226579   4.965   0.420   2.710
 8880TIP3   OH226580   8.343   0.275   3.773
 8880TIP3    H126581   8.305   0.205   3.827
 8880TIP3    H226582   8.375   0.339   3.835
 8881TIP3   OH226583   2.891   7.404   1.027
 8881TIP3    H126584   2.894   7.441   0.939
 8881TIP3    H226585   2.961   7.339   1.029
 8882TIP3   OH226586   0.392   3.912   5.910
 8882TIP3    H126587   0.313   3.866   5.936
 8882TIP3    H226588   0.463   3.851   5.931
 8883TIP3   OH226589   4.879   2.220   0.319
 8883TIP3    H126590   4.812   2.288   0.313
 8883TIP3    H226591   4.830   2.137   0.321
 8884TIP3   OH226592   2.906   4.709   5.054
 8884TIP3    H126593   2.993   4.705   5.015
 8884TIP3    H226594   2.921   4.701   5.148
 8885TIP3   OH226595   6.788   5.041   4.207
 8885TIP3    H126596   6.875   5.007   4.232
 8885TIP3    H226597   6.747   5.062   4.290
 8886TIP3   OH226598   7.159   1.996   2.641
 8886TIP3    H126599   7.240   1.951   2.616
 8886TIP3    H226600   7.142   1.966   2.730
 8887TIP3   OH226601   2.437   4.630   5.448
 8887TIP3    H126602   2.371   4.620   5.517
 8887TIP3    H226603   2.453   4.724   5.445
 8888TIP3   OH226604   2.873   7.907   0.847
 8888TIP3    H126605   2.852   7.908   0.753
 8888TIP3    H226606   2.931   7.983   0.858
 8889TIP3   OH226607   7.963   1.978   1.595
 8889TIP3    H126608   8.019   2.032   1.651
 8889TIP3    H226609   7.992   1.888   1.611
 8890TIP3   OH226610   3.381   3.789   6.733
 8890TIP3    H126611   3.418   3.711   6.693
 8890TIP3    H226612   3.415   3.790   6.822
 8891TIP3   OH226613   0.169   7.097   2.341
 8891TIP3    H126614   0.235   7.082   2.274
 8891TIP3    H226615   0.199   7.176   2.386
 8892TIP3   OH226616   7.647   6.890   0.284
 8892TIP3    H126617   7.730   6.843   0.295
 8892TIP3    H226618   7.671   6.971   0.240
 8893TIP3   OH226619   5.454   0.112   4.143
 8893TIP3    H126620   5.377   0.055   4.145
 8893TIP3    H226621   5.525   0.054   4.114
 8894TIP3   OH226622   5.162   4.673   5.199
 8894TIP3    H126623   5.098   4.610   5.165
 8894TIP3    H226624   5.131   4.693   5.287
 8895TIP3   OH226625   2.311   7.518   2.282
 8895TIP3    H126626   2.338   7.610   2.276
 8895TIP3    H226627   2.309   7.488   2.191
 8896TIP3   OH226628   5.894   6.245   3.382
 8896TIP3    H126629   5.848   6.300   3.445
 8896TIP3    H226630   5.825   6.193   3.340
 8897TIP3   OH226631   0.384   7.029   3.258
 8897TIP3    H126632   0.300   7.069   3.233
 8897TIP3    H226633   0.412   7.079   3.335
 8898TIP3   OH226634   0.646   5.578   2.273
 8898TIP3    H126635   0.609   5.532   2.198
 8898TIP3    H226636   0.603   5.663   2.273
 8899TIP3   OH226637   7.032   2.668   3.665
 8899TIP3    H126638   7.118   2.639   3.636
 8899TIP3    H226639   7.001   2.726   3.594
 8900TIP3   OH226640   5.173   5.152   3.928
 8900TIP3    H126641   5.115   5.083   3.962
 8900TIP3    H226642   5.141   5.233   3.968
 8901TIP3   OH226643   5.971   4.884   6.177
 8901TIP3    H126644   5.980   4.800   6.132
 8901TIP3    H226645   5.877   4.897   6.186
 8902TIP3   OH226646   6.297   4.349   3.002
 8902TIP3    H126647   6.373   4.406   3.014
 8902TIP3    H226648   6.333   4.260   3.001
 8903TIP3   OH226649   4.334   6.756   4.504
 8903TIP3    H126650   4.309   6.783   4.416
 8903TIP3    H226651   4.384   6.830   4.539
 8904TIP3   OH226652   4.775   0.139   2.722
 8904TIP3    H126653   4.824   0.185   2.789
 8904TIP3    H226654   4.779   0.197   2.645
 8905TIP3   OH226655   3.518   4.154   4.757
 8905TIP3    H126656   3.576   4.108   4.818
 8905TIP3    H226657   3.513   4.096   4.681
 8906TIP3   OH226658   7.421   4.293   4.686
 8906TIP3    H126659   7.385   4.378   4.710
 8906TIP3    H226660   7.365   4.230   4.730
 8907TIP3   OH226661   1.445   2.070   4.081
 8907TIP3    H126662   1.403   2.125   4.149
 8907TIP3    H226663   1.504   2.013   4.130
 8908TIP3   OH226664   4.662   6.813   3.830
 8908TIP3    H126665   4.727   6.769   3.776
 8908TIP3    H226666   4.594   6.748   3.844
 8909TIP3   OH226667   3.436   4.645   2.906
 8909TIP3    H126668   3.421   4.610   2.818
 8909TIP3    H226669   3.492   4.580   2.948
 8910TIP3   OH226670   3.690   1.655   6.302
 8910TIP3    H126671   3.686   1.603   6.383
 8910TIP3    H226672   3.677   1.745   6.331
 8911TIP3   OH226673   0.673   0.109   0.539
 8911TIP3    H126674   0.653   0.076   0.626
 8911TIP3    H226675   0.755   0.065   0.515
 8912TIP3   OH226676   2.807   4.296   0.612
 8912TIP3    H126677   2.758   4.376   0.596
 8912TIP3    H226678   2.751   4.226   0.578
 8913TIP3   OH226679   0.830   5.991   6.163
 8913TIP3    H126680   0.896   5.994   6.232
 8913TIP3    H226681   0.818   5.898   6.145
 8914TIP3   OH226682   0.797   2.357   6.506
 8914TIP3    H126683   0.823   2.436   6.554
 8914TIP3    H226684   0.707   2.340   6.533
 8915TIP3   OH226685   4.352   4.297   0.307
 8915TIP3    H126686   4.373   4.281   0.214
 8915TIP3    H226687   4.404   4.233   0.354
 8916TIP3   OH226688   2.206   1.486   3.121
 8916TIP3    H126689   2.189   1.392   3.129
 8916TIP3    H226690   2.149   1.527   3.186
 8917TIP3   OH226691   3.448   1.767   4.272
 8917TIP3    H126692   3.464   1.781   4.365
 8917TIP3    H226693   3.510   1.698   4.247
 8918TIP3   OH226694   6.446   5.524   1.419
 8918TIP3    H126695   6.497   5.593   1.462
 8918TIP3    H226696   6.361   5.526   1.464
 8919TIP3   OH226697   2.239   5.640   1.407
 8919TIP3    H126698   2.190   5.694   1.344
 8919TIP3    H226699   2.172   5.600   1.462
 8920TIP3   OH226700   7.372   2.120   4.972
 8920TIP3    H126701   7.343   2.127   5.063
 8920TIP3    H226702   7.444   2.182   4.964
 8921TIP3   OH226703   7.198   7.378   6.728
 8921TIP3    H126704   7.230   7.306   6.674
 8921TIP3    H226705   7.115   7.403   6.689
 8922TIP3   OH226706   4.806   6.971   5.121
 8922TIP3    H126707   4.887   6.981   5.072
 8922TIP3    H226708   4.765   7.058   5.118
 8923TIP3   OH226709   6.733   4.796   4.641
 8923TIP3    H126710   6.691   4.815   4.725
 8923TIP3    H226711   6.794   4.725   4.662
 8924TIP3   OH226712   4.331   3.477   0.901
 8924TIP3    H126713   4.269   3.456   0.831
 8924TIP3    H226714   4.324   3.404   0.962
 8925TIP3   OH226715   5.193   6.868   3.392
 8925TIP3    H126716   5.210   6.861   3.486
 8925TIP3    H226717   5.225   6.956   3.369
 8926TIP3   OH226718   0.238   2.588   2.541
 8926TIP3    H126719   0.326   2.554   2.530
 8926TIP3    H226720   0.250   2.683   2.545
 8927TIP3   OH226721   0.971   2.133   4.979
 8927TIP3    H126722   1.036   2.065   4.992
 8927TIP3    H226723   0.889   2.086   4.964
 8928TIP3   OH226724   6.391   3.768   3.097
 8928TIP3    H126725   6.346   3.832   3.043
 8928TIP3    H226726   6.394   3.807   3.184
 8929TIP3   OH226727   6.428   7.811   0.398
 8929TIP3    H126728   6.498   7.749   0.378
 8929TIP3    H226729   6.351   7.756   0.412
 8930TIP3   OH226730   2.037   4.197   5.322
 8930TIP3    H126731   2.063   4.232   5.237
 8930TIP3    H226732   1.983   4.265   5.361
 8931TIP3   OH226733   3.681   7.001   1.096
 8931TIP3    H126734   3.662   7.059   1.022
 8931TIP3    H226735   3.620   7.028   1.164
 8932TIP3   OH226736   5.078   6.471   5.806
 8932TIP3    H126737   5.086   6.377   5.791
 8932TIP3    H226738   5.055   6.507   5.720
 8933TIP3   OH226739   4.998   1.681   6.667
 8933TIP3    H126740   5.080   1.662   6.712
 8933TIP3    H226741   4.984   1.774   6.681
 8934TIP3   OH226742   2.362   2.390   3.600
 8934TIP3    H126743   2.304   2.466   3.598
 8934TIP3    H226744   2.447   2.424   3.570
 8935TIP3   OH226745   0.596   1.234   1.869
 8935TIP3    H126746   0.668   1.195   1.920
 8935TIP3    H226747   0.576   1.169   1.802
 8936TIP3   OH226748   3.668   1.221   6.742
 8936TIP3    H126749   3.598   1.286   6.740
 8936TIP3    H226750   3.623   1.137   6.739
 8937TIP3   OH226751   6.559   0.667   2.676
 8937TIP3    H126752   6.472   0.705   2.660
 8937TIP3    H226753   6.551   0.624   2.762
 8938TIP3   OH226754   7.393   7.400   4.631
 8938TIP3    H126755   7.357   7.364   4.712
 8938TIP3    H226756   7.464   7.340   4.607
 8939TIP3   OH226757   0.056   2.118   3.143
 8939TIP3    H126758  -0.011   2.118   3.212
 8939TIP3    H226759   0.039   2.037   3.094
 8940TIP3   OH226760   3.075   7.473   4.065
 8940TIP3    H126761   3.030   7.480   3.981
 8940TIP3    H226762   3.007   7.487   4.131
 8941TIP3   OH226763   5.139   1.428   0.154
 8941TIP3    H126764   5.047   1.402   0.157
 8941TIP3    H226765   5.138   1.516   0.118
 8942TIP3   OH226766   6.372   4.796   5.127
 8942TIP3    H126767   6.398   4.706   5.111
 8942TIP3    H226768   6.436   4.828   5.191
 8943TIP3   OH226769   2.622   6.528   1.671
 8943TIP3    H126770   2.681   6.487   1.608
 8943TIP3    H226771   2.650   6.491   1.756
 8944TIP3   OH226772   4.384   1.646   0.095
 8944TIP3    H126773   4.368   1.675   0.006
 8944TIP3    H226774   4.331   1.567   0.105
 8945TIP3   OH226775   6.245   2.182   1.830
 8945TIP3    H126776   6.160   2.138   1.827
 8945TIP3    H226777   6.304   2.124   1.783
 8946TIP3   OH226778   0.887   6.766   3.906
 8946TIP3    H126779   0.812   6.763   3.847
 8946TIP3    H226780   0.959   6.729   3.854
 8947TIP3   OH226781   2.482   4.798   6.717
 8947TIP3    H126782   2.522   4.712   6.701
 8947TIP3    H226783   2.434   4.787   6.799
 8948TIP3   OH226784   7.845   3.918   4.966
 8948TIP3    H126785   7.810   3.938   4.879
 8948TIP3    H226786   7.898   3.840   4.954
 8949TIP3   OH226787   2.330   2.486   2.555
 8949TIP3    H126788   2.255   2.531   2.516
 8949TIP3    H226789   2.393   2.556   2.573
 8950TIP3   OH226790   6.613   2.871   3.989
 8950TIP3    H126791   6.689   2.818   4.010
 8950TIP3    H226792   6.647   2.940   3.932
 8951TIP3   OH226793   2.089   7.830   2.121
 8951TIP3    H126794   2.009   7.872   2.151
 8951TIP3    H226795   2.147   7.902   2.097
 8952TIP3   OH226796   2.182   1.705   0.506
 8952TIP3    H126797   2.254   1.736   0.561
 8952TIP3    H226798   2.225   1.665   0.431
 8953TIP3   OH226799   5.171   6.981   1.733
 8953TIP3    H126800   5.120   7.060   1.715
 8953TIP3    H226801   5.202   6.952   1.648
 8954TIP3   OH226802   5.624   7.207   0.810
 8954TIP3    H126803   5.586   7.253   0.735
 8954TIP3    H226804   5.710   7.180   0.780
 8955TIP3   OH226805   4.024   2.402   5.866
 8955TIP3    H126806   4.064   2.476   5.912
 8955TIP3    H226807   4.099   2.349   5.837
 8956TIP3   OH226808  -0.051   7.828   1.046
 8956TIP3    H126809   0.042   7.849   1.049
 8956TIP3    H226810  -0.059   7.765   0.975
 8957TIP3   OH226811   3.199   6.226   6.409
 8957TIP3    H126812   3.220   6.184   6.493
 8957TIP3    H226813   3.163   6.156   6.355
 8958TIP3   OH226814   3.580   3.601   2.217
 8958TIP3    H126815   3.553   3.669   2.279
 8958TIP3    H226816   3.618   3.649   2.144
 8959TIP3   OH226817   3.647   7.441   1.248
 8959TIP3    H126818   3.704   7.417   1.175
 8959TIP3    H226819   3.595   7.514   1.216
 8960TIP3   OH226820   5.355   0.628   4.188
 8960TIP3    H126821   5.273   0.677   4.196
 8960TIP3    H226822   5.405   0.675   4.122
 8961TIP3   OH226823   8.059   6.012   4.470
 8961TIP3    H126824   7.989   6.053   4.522
 8961TIP3    H226825   8.107   5.959   4.534
 8962TIP3   OH226826   0.026   0.842   1.009
 8962TIP3    H126827  -0.064   0.810   1.003
 8962TIP3    H226828   0.069   0.809   0.930
 8963TIP3   OH226829   7.046   7.192   0.544
 8963TIP3    H126830   7.060   7.107   0.586
 8963TIP3    H226831   6.976   7.232   0.595
 8964TIP3   OH226832   5.158   2.165   0.692
 8964TIP3    H126833   5.176   2.137   0.603
 8964TIP3    H226834   5.062   2.170   0.696
 8965TIP3   OH226835   5.919   0.866   6.783
 8965TIP3    H126836   5.837   0.825   6.808
 8965TIP3    H226837   5.919   0.950   6.828
 8966TIP3   OH226838   1.240   5.903   3.520
 8966TIP3    H126839   1.316   5.948   3.484
 8966TIP3    H226840   1.188   5.880   3.443
 8967TIP3   OH226841   3.420   7.469   0.295
 8967TIP3    H126842   3.426   7.409   0.369
 8967TIP3    H226843   3.350   7.434   0.240
 8968TIP3   OH226844   0.646   3.980   3.654
 8968TIP3    H126845   0.687   4.024   3.579
 8968TIP3    H226846   0.587   3.916   3.615
 8969TIP3   OH226847   1.938   1.897   1.211
 8969TIP3    H126848   2.024   1.898   1.168
 8969TIP3    H226849   1.884   1.956   1.158
 8970TIP3   OH226850   4.187   1.871   6.786
 8970TIP3    H126851   4.226   1.891   6.701
 8970TIP3    H226852   4.104   1.829   6.765
 8971TIP3   OH226853   6.722   0.273   0.236
 8971TIP3    H126854   6.734   0.197   0.294
 8971TIP3    H226855   6.638   0.310   0.263
 8972TIP3   OH226856   4.742   6.781   4.546
 8972TIP3    H126857   4.692   6.857   4.574
 8972TIP3    H226858   4.734   6.719   4.619
 8973TIP3   OH226859   2.074   1.806   2.929
 8973TIP3    H126860   2.169   1.799   2.914
 8973TIP3    H226861   2.041   1.853   2.853
 8974TIP3   OH226862   4.509   5.302   6.156
 8974TIP3    H126863   4.595   5.262   6.169
 8974TIP3    H226864   4.453   5.229   6.131
 8975TIP3   OH226865   0.529   0.287   1.139
 8975TIP3    H126866   0.599   0.256   1.196
 8975TIP3    H226867   0.530   0.227   1.065
 8976TIP3   OH226868   0.176   1.253   0.199
 8976TIP3    H126869   0.109   1.231   0.264
 8976TIP3    H226870   0.219   1.331   0.235
 8977TIP3   OH226871   3.322   1.344   3.070
 8977TIP3    H126872   3.341   1.345   2.976
 8977TIP3    H226873   3.360   1.426   3.103
 8978TIP3   OH226874   1.218   4.995   1.355
 8978TIP3    H126875   1.210   5.078   1.308
 8978TIP3    H226876   1.283   4.946   1.305
 8979TIP3   OH226877   5.452   4.620   1.983
 8979TIP3    H126878   5.454   4.672   2.063
 8979TIP3    H226879   5.390   4.666   1.926
 8980TIP3   OH226880   2.215   6.391   0.071
 8980TIP3    H126881   2.288   6.336   0.099
 8980TIP3    H226882   2.201   6.367  -0.021
 8981TIP3   OH226883   0.230   1.572   3.270
 8981TIP3    H126884   0.313   1.524   3.273
 8981TIP3    H226885   0.250   1.650   3.218
 8982TIP3   OH226886   2.838   6.084   5.271
 8982TIP3    H126887   2.881   6.170   5.273
 8982TIP3    H226888   2.877   6.037   5.345
 8983TIP3   OH226889   0.186   3.033   2.750
 8983TIP3    H126890   0.192   3.117   2.704
 8983TIP3    H226891   0.097   3.032   2.785
 8984TIP3   OH226892   5.957   1.506   6.684
 8984TIP3    H126893   5.985   1.483   6.773
 8984TIP3    H226894   5.915   1.427   6.651
 8985TIP3   OH226895   0.841   0.321   4.408
 8985TIP3    H126896   0.930   0.331   4.442
 8985TIP3    H226897   0.790   0.292   4.483
 8986TIP3   OH226898   8.128   3.575   6.768
 8986TIP3    H126899   8.104   3.625   6.846
 8986TIP3    H226900   8.206   3.619   6.734
 8987TIP3   OH226901   7.174   0.419   2.073
 8987TIP3    H126902   7.183   0.515   2.068
 8987TIP3    H226903   7.090   0.406   2.116
 8988TIP3   OH226904   4.747   1.879   3.351
 8988TIP3    H126905   4.735   1.902   3.443
 8988TIP3    H226906   4.658   1.867   3.317
 8989TIP3   OH226907   1.837   2.334   3.766
 8989TIP3    H126908   1.858   2.351   3.675
 8989TIP3    H226909   1.841   2.419   3.808
 8990TIP3   OH226910   6.438   3.827   5.538
 8990TIP3    H126911   6.455   3.794   5.626
 8990TIP3    H226912   6.357   3.877   5.546
 8991TIP3   OH226913   1.705   2.594   5.152
 8991TIP3    H126914   1.653   2.570   5.229
 8991TIP3    H226915   1.777   2.647   5.186
 8992TIP3   OH226916   6.220   2.345   4.465
 8992TIP3    H126917   6.219   2.287   4.388
 8992TIP3    H226918   6.166   2.420   4.439
 8993TIP3   OH226919   5.429   2.643   1.409
 8993TIP3    H126920   5.470   2.722   1.374
 8993TIP3    H226921   5.347   2.635   1.360
 8994TIP3   OH226922   6.091   3.339   3.328
 8994TIP3    H126923   6.121   3.321   3.417
 8994TIP3    H226924   6.153   3.291   3.272
 8995TIP3   OH226925   6.847   7.894   0.631
 8995TIP3    H126926   6.843   7.881   0.536
 8995TIP3    H226927   6.909   7.828   0.662
 8996TIP3   OH226928   2.609   0.881   3.356
 8996TIP3    H126929   2.578   0.801   3.398
 8996TIP3    H226930   2.535   0.942   3.361
 8997TIP3   OH226931   4.808   3.406   4.410
 8997TIP3    H126932   4.841   3.413   4.500
 8997TIP3    H226933   4.755   3.327   4.410
 8998TIP3   OH226934   1.805   7.745   5.832
 8998TIP3    H126935   1.819   7.659   5.791
 8998TIP3    H226936   1.710   7.757   5.831
 8999TIP3   OH226937   3.500   2.146   6.420
 8999TIP3    H126938   3.503   2.120   6.328
 8999TIP3    H226939   3.563   2.088   6.463
 9000TIP3   OH226940   5.630   6.706   3.015
 9000TIP3    H126941   5.545   6.724   3.054
 9000TIP3    H226942   5.686   6.779   3.042
 9001TIP3   OH226943   6.578   5.724   3.804
 9001TIP3    H126944   6.530   5.738   3.886
 9001TIP3    H226945   6.516   5.677   3.748
 9002TIP3   OH226946   2.817   6.282   1.669
 9002TIP3    H126947   2.794   6.220   1.738
 9002TIP3    H226948   2.819   6.230   1.589
 9003TIP3   OH226949   1.277   0.803   3.856
 9003TIP3    H126950   1.338   0.837   3.922
 9003TIP3    H226951   1.223   0.740   3.903
 9004TIP3   OH226952   8.330   3.692   6.600
 9004TIP3    H126953   8.394   3.628   6.567
 9004TIP3    H226954   8.376   3.776   6.594
 9005TIP3   OH226955   7.776   1.202   5.749
 9005TIP3    H126956   7.719   1.155   5.689
 9005TIP3    H226957   7.718   1.259   5.799
 9006TIP3   OH226958   5.943   6.813   0.406
 9006TIP3    H126959   6.033   6.830   0.379
 9006TIP3    H226960   5.950   6.790   0.499
 9007TIP3   OH226961   4.247   5.597   0.321
 9007TIP3    H126962   4.307   5.544   0.269
 9007TIP3    H226963   4.302   5.639   0.387
 9008TIP3   OH226964   4.273   4.531   3.377
 9008TIP3    H126965   4.248   4.557   3.465
 9008TIP3    H226966   4.286   4.437   3.383
 9009TIP3   OH226967   5.395   7.360   0.364
 9009TIP3    H126968   5.421   7.285   0.418
 9009TIP3    H226969   5.385   7.323   0.276
 9010TIP3   OH226970   3.506   1.778   5.399
 9010TIP3    H126971   3.503   1.862   5.444
 9010TIP3    H226972   3.468   1.795   5.312
 9011TIP3   OH226973   0.321   1.168   3.256
 9011TIP3    H126974   0.358   1.139   3.340
 9011TIP3    H226975   0.373   1.122   3.190
 9012TIP3   OH226976   5.495   2.348   1.305
 9012TIP3    H126977   5.440   2.365   1.228
 9012TIP3    H226978   5.500   2.433   1.349
 9013TIP3   OH226979   2.964   0.155   0.926
 9013TIP3    H126980   3.056   0.140   0.908
 9013TIP3    H226981   2.934   0.212   0.856
 9014TIP3   OH226982   0.981   4.834   2.979
 9014TIP3    H126983   1.073   4.812   2.962
 9014TIP3    H226984   0.979   4.930   2.981
 9015TIP3   OH226985   5.963   2.871   3.771
 9015TIP3    H126986   5.944   2.807   3.702
 9015TIP3    H226987   6.024   2.826   3.829
 9016TIP3   OH226988   1.693   6.769   0.743
 9016TIP3    H126989   1.649   6.843   0.700
 9016TIP3    H226990   1.762   6.743   0.682
 9017TIP3   OH226991   5.464   2.695   1.786
 9017TIP3    H126992   5.375   2.721   1.763
 9017TIP3    H226993   5.517   2.773   1.769
 9018TIP3   OH226994   6.970   6.966   5.757
 9018TIP3    H126995   6.900   6.966   5.822
 9018TIP3    H226996   6.949   6.894   5.698
 9019TIP3   OH226997   0.063   6.201   5.379
 9019TIP3    H126998   0.044   6.241   5.464
 9019TIP3    H226999  -0.020   6.208   5.331
 9020TIP3   OH227000   4.963   0.945   3.989
 9020TIP3    H127001   5.049   0.972   3.958
 9020TIP3    H227002   4.972   0.852   4.006
 9021TIP3   OH227003   3.677   5.743   0.939
 9021TIP3    H127004   3.618   5.678   0.901
 9021TIP3    H227005   3.682   5.812   0.874
 9022TIP3   OH227006   2.920   6.611   4.908
 9022TIP3    H127007   2.853   6.621   4.976
 9022TIP3    H227008   2.870   6.612   4.826
 9023TIP3   OH227009   2.606   2.035   4.673
 9023TIP3    H127010   2.645   1.949   4.656
 9023TIP3    H227011   2.513   2.017   4.684
 9024TIP3   OH227012   3.166   3.090   0.565
 9024TIP3    H127013   3.142   3.053   0.480
 9024TIP3    H227014   3.124   3.033   0.629
 9025TIP3   OH227015   6.269   0.371   1.039
 9025TIP3    H127016   6.348   0.332   1.002
 9025TIP3    H227017   6.226   0.412   0.964
 9026TIP3   OH227018   7.599   7.261   5.921
 9026TIP3    H127019   7.556   7.329   5.973
 9026TIP3    H227020   7.688   7.292   5.909
 9027TIP3   OH227021   3.844   2.711   3.005
 9027TIP3    H127022   3.939   2.705   3.020
 9027TIP3    H227023   3.826   2.641   2.942
 9028TIP3   OH227024   0.852   4.475   5.702
 9028TIP3    H127025   0.761   4.504   5.705
 9028TIP3    H227026   0.854   4.405   5.637
 9029TIP3   OH227027   0.130   4.159   1.373
 9029TIP3    H127028   0.034   4.160   1.374
 9029TIP3    H227029   0.152   4.070   1.344
 9030TIP3   OH227030   6.292   4.083   5.589
 9030TIP3    H127031   6.277   4.062   5.681
 9030TIP3    H227032   6.346   4.162   5.591
 9031TIP3   OH227033   5.600   7.215   0.526
 9031TIP3    H127034   5.678   7.264   0.502
 9031TIP3    H227035   5.622   7.124   0.508
 9032TIP3   OH227036   7.183   2.746   0.902
 9032TIP3    H127037   7.130   2.738   0.981
 9032TIP3    H227038   7.257   2.800   0.928
 9033TIP3   OH227039   6.136   2.341   3.010
 9033TIP3    H127040   6.161   2.253   2.981
 9033TIP3    H227041   6.062   2.365   2.954
 9034TIP3   OH227042   3.562   2.395   1.619
 9034TIP3    H127043   3.479   2.441   1.606
 9034TIP3    H227044   3.621   2.460   1.656
 9035TIP3   OH227045   6.633   3.400   0.854
 9035TIP3    H127046   6.560   3.402   0.792
 9035TIP3    H227047   6.648   3.492   0.876
 9036TIP3   OH227048   5.628   6.636   3.480
 9036TIP3    H127049   5.688   6.602   3.413
 9036TIP3    H227050   5.602   6.722   3.448
 9037TIP3   OH227051   0.175   2.573   1.268
 9037TIP3    H127052   0.223   2.577   1.185
 9037TIP3    H227053   0.228   2.514   1.322
 9038TIP3   OH227054   2.600   2.975   2.775
 9038TIP3    H127055   2.634   3.051   2.729
 9038TIP3    H227056   2.554   3.011   2.851
 9039TIP3   OH227057   4.304   6.284   6.683
 9039TIP3    H127058   4.284   6.377   6.691
 9039TIP3    H227059   4.222   6.244   6.652
 9040TIP3   OH227060   6.612   0.072   5.782
 9040TIP3    H127061   6.596   0.002   5.845
 9040TIP3    H227062   6.566   0.148   5.818
 9041TIP3   OH227063   5.269   5.285   5.861
 9041TIP3    H127064   5.282   5.379   5.847
 9041TIP3    H227065   5.357   5.250   5.869
 9042TIP3   OH227066   4.707   1.985   1.628
 9042TIP3    H127067   4.669   1.900   1.608
 9042TIP3    H227068   4.644   2.048   1.593
 9043TIP3   OH227069   2.565   1.505   0.242
 9043TIP3    H127070   2.613   1.588   0.240
 9043TIP3    H227071   2.575   1.470   0.153
 9044TIP3   OH227072  -0.003   0.641   2.070
 9044TIP3    H127073   0.073   0.650   2.128
 9044TIP3    H227074   0.030   0.668   1.984
 9045TIP3   OH227075   7.520   6.371   4.858
 9045TIP3    H127076   7.476   6.288   4.875
 9045TIP3    H227077   7.470   6.411   4.786
 9046TIP3   OH227078   6.414   7.526   0.525
 9046TIP3    H127079   6.442   7.444   0.485
 9046TIP3    H227080   6.433   7.515   0.618
 9047TIP3   OH227081   3.838   4.766   5.210
 9047TIP3    H127082   3.804   4.730   5.128
 9047TIP3    H227083   3.830   4.861   5.199
 9048TIP3   OH227084   6.886   0.065   2.521
 9048TIP3    H127085   6.793   0.053   2.543
 9048TIP3    H227086   6.931  -0.005   2.568
 9049TIP3   OH227087   4.683   0.241   0.261
 9049TIP3    H127088   4.777   0.255   0.249
 9049TIP3    H227089   4.677   0.168   0.322
 9050TIP3   OH227090   5.429   6.616   2.442
 9050TIP3    H127091   5.505   6.667   2.468
 9050TIP3    H227092   5.379   6.675   2.385
 9051TIP3   OH227093   4.732   4.708   0.358
 9051TIP3    H127094   4.665   4.760   0.402
 9051TIP3    H227095   4.753   4.638   0.419
 9052TIP3   OH227096   7.679   7.627   6.173
 9052TIP3    H127097   7.636   7.638   6.258
 9052TIP3    H227098   7.700   7.716   6.145
 9053TIP3   OH227099   2.805   7.103   4.485
 9053TIP3    H127100   2.846   7.189   4.472
 9053TIP3    H227101   2.798   7.066   4.397
 9054TIP3   OH227102   7.058   0.783   1.309
 9054TIP3    H127103   7.132   0.726   1.331
 9054TIP3    H227104   6.983   0.724   1.307
 9055TIP3   OH227105   3.795   0.956   1.010
 9055TIP3    H127106   3.831   0.871   0.987
 9055TIP3    H227107   3.864   1.018   0.985
 9056TIP3   OH227108   6.401   3.398   4.205
 9056TIP3    H127109   6.400   3.461   4.133
 9056TIP3    H227110   6.442   3.445   4.277
 9057TIP3   OH227111   7.098   1.528   2.254
 9057TIP3    H127112   7.036   1.577   2.200
 9057TIP3    H227113   7.127   1.456   2.198
 9058TIP3   OH227114   4.296   5.908   1.885
 9058TIP3    H127115   4.324   5.957   1.808
 9058TIP3    H227116   4.377   5.892   1.934
 9059TIP3   OH227117   3.427   5.840   4.066
 9059TIP3    H127118   3.433   5.774   3.997
 9059TIP3    H227119   3.516   5.872   4.077
 9060TIP3   OH227120   1.154   2.536   3.399
 9060TIP3    H127121   1.175   2.601   3.465
 9060TIP3    H227122   1.089   2.479   3.440
 9061TIP3   OH227123   7.359   5.149   5.784
 9061TIP3    H127124   7.370   5.184   5.873
 9061TIP3    H227125   7.271   5.176   5.759
 9062TIP3   OH227126   7.644   4.263   2.044
 9062TIP3    H127127   7.564   4.256   2.097
 9062TIP3    H227128   7.703   4.316   2.096
 9063TIP3   OH227129   6.451   3.758   2.460
 9063TIP3    H127130   6.397   3.814   2.404
 9063TIP3    H227131   6.395   3.685   2.483
 9064TIP3   OH227132   7.064   4.961   4.237
 9064TIP3    H127133   7.041   4.943   4.328
 9064TIP3    H227134   7.143   5.016   4.243
 9065TIP3   OH227135   7.146   4.082   0.768
 9065TIP3    H127136   7.177   4.022   0.836
 9065TIP3    H227137   7.059   4.048   0.744
 9066TIP3   OH227138   3.728   4.611   4.976
 9066TIP3    H127139   3.741   4.664   4.897
 9066TIP3    H227140   3.658   4.550   4.953
 9067TIP3   OH227141   0.192   0.173   1.240
 9067TIP3    H127142   0.142   0.213   1.311
 9067TIP3    H227143   0.132   0.107   1.203
 9068TIP3   OH227144   4.486   6.116   4.376
 9068TIP3    H127145   4.543   6.122   4.300
 9068TIP3    H227146   4.408   6.167   4.352
 9069TIP3   OH227147   1.336   2.386   1.295
 9069TIP3    H127148   1.294   2.411   1.212
 9069TIP3    H227149   1.357   2.293   1.283
 9070TIP3   OH227150   3.668   7.388   6.823
 9070TIP3    H127151   3.673   7.478   6.855
 9070TIP3    H227152   3.581   7.381   6.784
 9071TIP3   OH227153   5.049   0.173   2.399
 9071TIP3    H127154   5.091   0.087   2.402
 9071TIP3    H227155   4.959   0.154   2.371
 9072TIP3   OH227156   7.132   5.003   6.648
 9072TIP3    H127157   7.142   4.909   6.664
 9072TIP3    H227158   7.060   5.009   6.586
 9073TIP3   OH227159   1.984   3.303   5.074
 9073TIP3    H127160   2.057   3.241   5.080
 9073TIP3    H227161   1.945   3.286   4.989
 9074TIP3   OH227162   5.946   3.443   4.955
 9074TIP3    H127163   5.948   3.348   4.958
 9074TIP3    H227164   5.884   3.463   4.884
 9075TIP3   OH227165   2.518   5.623   3.767
 9075TIP3    H127166   2.598   5.590   3.807
 9075TIP3    H227167   2.493   5.697   3.822
 9076TIP3   OH227168   8.132   0.296   4.587
 9076TIP3    H127169   8.225   0.307   4.608
 9076TIP3    H227170   8.123   0.331   4.499
 9077TIP3   OH227171   1.105   1.015   5.929
 9077TIP3    H127172   1.053   0.940   5.901
 9077TIP3    H227173   1.195   0.992   5.905
 9078TIP3   OH227174   7.920   1.905   6.713
 9078TIP3    H127175   7.871   1.823   6.722
 9078TIP3    H227176   7.946   1.907   6.621
 9079TIP3   OH227177   1.833   3.019   1.473
 9079TIP3    H127178   1.794   2.962   1.407
 9079TIP3    H227179   1.840   3.104   1.430
 9080TIP3   OH227180   4.807   3.247   0.635
 9080TIP3    H127181   4.713   3.230   0.649
 9080TIP3    H227182   4.821   3.335   0.669
 9081TIP3   OH227183   6.158   2.577   3.817
 9081TIP3    H127184   6.169   2.624   3.735
 9081TIP3    H227185   6.137   2.645   3.882
 9082TIP3   OH227186   5.050   0.689   0.554
 9082TIP3    H127187   4.973   0.642   0.586
 9082TIP3    H227188   5.117   0.621   0.544
 9083TIP3   OH227189   7.234   4.228   4.459
 9083TIP3    H127190   7.305   4.234   4.395
 9083TIP3    H227191   7.263   4.282   4.532
 9084TIP3   OH227192   5.652   7.787   1.646
 9084TIP3    H127193   5.591   7.796   1.720
 9084TIP3    H227194   5.738   7.806   1.683
 9085TIP3   OH227195   3.802   0.615   5.690
 9085TIP3    H127196   3.750   0.682   5.734
 9085TIP3    H227197   3.846   0.661   5.618
 9086TIP3   OH227198   2.951   1.726   5.201
 9086TIP3    H127199   2.917   1.806   5.240
 9086TIP3    H227200   2.918   1.656   5.257
 9087TIP3   OH227201   7.566   7.661   6.429
 9087TIP3    H127202   7.624   7.723   6.472
 9087TIP3    H227203   7.553   7.591   6.493
 9088TIP3   OH227204   1.296   7.638   0.767
 9088TIP3    H127205   1.359   7.570   0.792
 9088TIP3    H227206   1.339   7.685   0.695
 9089TIP3   OH227207   5.550   5.856   6.335
 9089TIP3    H127208   5.525   5.949   6.331
 9089TIP3    H227209   5.513   5.818   6.256
 9090TIP3   OH227210   5.105   2.776   6.503
 9090TIP3    H127211   5.150   2.739   6.579
 9090TIP3    H227212   5.080   2.865   6.531
 9091TIP3   OH227213   1.551   5.995   1.971
 9091TIP3    H127214   1.573   5.928   2.037
 9091TIP3    H227215   1.491   6.054   2.016
 9092TIP3   OH227216   1.562   2.143   3.331
 9092TIP3    H127217   1.581   2.127   3.239
 9092TIP3    H227218   1.569   2.238   3.340
 9093TIP3   OH227219   0.666   6.071   5.853
 9093TIP3    H127220   0.626   6.063   5.940
 9093TIP3    H227221   0.751   6.111   5.870
 9094TIP3   OH227222   7.572   7.191   3.508
 9094TIP3    H127223   7.577   7.147   3.423
 9094TIP3    H227224   7.572   7.120   3.572
 9095TIP3   OH227225   2.169   6.093   2.733
 9095TIP3    H127226   2.142   6.122   2.821
 9095TIP3    H227227   2.187   6.000   2.744
 9096TIP3   OH227228   4.615   4.660   0.644
 9096TIP3    H127229   4.658   4.645   0.728
 9096TIP3    H227230   4.559   4.736   0.659
 9097TIP3   OH227231   7.760   5.747   5.149
 9097TIP3    H127232   7.697   5.702   5.206
 9097TIP3    H227233   7.815   5.678   5.114
 9098TIP3   OH227234   5.457   4.360   0.536
 9098TIP3    H127235   5.486   4.435   0.587
 9098TIP3    H227236   5.478   4.284   0.591
 9099TIP3   OH227237   7.447   0.109   3.028
 9099TIP3    H127238   7.422   0.158   2.950
 9099TIP3    H227239   7.543   0.112   3.029
 9100TIP3   OH227240   6.269   7.134   3.902
 9100TIP3    H127241   6.343   7.073   3.912
 9100TIP3    H227242   6.237   7.118   3.813
 9101TIP3   OH227243   1.749   4.183   5.700
 9101TIP3    H127244   1.694   4.163   5.624
 9101TIP3    H227245   1.833   4.212   5.662
 9102TIP3   OH227246   0.901   4.223   0.611
 9102TIP3    H127247   0.809   4.231   0.586
 9102TIP3    H227248   0.931   4.143   0.568
 9103TIP3   OH227249   3.971   0.981   0.208
 9103TIP3    H127250   3.980   0.899   0.258
 9103TIP3    H227251   3.964   1.049   0.275
 9104TIP3   OH227252   7.873   6.769   1.361
 9104TIP3    H127253   7.954   6.817   1.343
 9104TIP3    H227254   7.857   6.718   1.282
 9105TIP3   OH227255   6.573   6.340   0.033
 9105TIP3    H127256   6.481   6.334   0.058
 9105TIP3    H227257   6.602   6.424   0.069
 9106TIP3   OH227258   2.535   3.605   3.272
 9106TIP3    H127259   2.620   3.634   3.307
 9106TIP3    H227260   2.540   3.510   3.272
 9107TIP3   OH227261   7.872   4.022   3.446
 9107TIP3    H127262   7.817   4.081   3.498
 9107TIP3    H227263   7.958   4.028   3.486
 9108TIP3   OH227264   4.068   3.201   0.902
 9108TIP3    H127265   4.041   3.118   0.864
 9108TIP3    H227266   4.140   3.231   0.846
 9109TIP3   OH227267   2.625   1.546   2.744
 9109TIP3    H127268   2.545   1.504   2.775
 9109TIP3    H227269   2.595   1.617   2.688
 9110TIP3   OH227270   1.868   0.466   3.184
 9110TIP3    H127271   1.932   0.454   3.114
 9110TIP3    H227272   1.858   0.561   3.191
 9111TIP3   OH227273   7.839   3.613   0.509
 9111TIP3    H127274   7.844   3.551   0.436
 9111TIP3    H227275   7.766   3.582   0.562
 9112TIP3   OH227276   7.015   6.274   6.420
 9112TIP3    H127277   7.104   6.272   6.455
 9112TIP3    H227278   6.968   6.334   6.478
 9113TIP3   OH227279   2.125   7.508   2.069
 9113TIP3    H127280   2.089   7.582   2.118
 9113TIP3    H227281   2.181   7.548   2.002
 9114TIP3   OH227282   3.590   4.116   5.953
 9114TIP3    H127283   3.568   4.207   5.935
 9114TIP3    H227284   3.551   4.098   6.039
 9115TIP3   OH227285   0.845   1.952   0.423
 9115TIP3    H127286   0.817   1.902   0.346
 9115TIP3    H227287   0.810   2.040   0.408
 9116TIP3   OH227288   3.293   2.766   0.740
 9116TIP3    H127289   3.211   2.718   0.726
 9116TIP3    H227290   3.303   2.769   0.835
 9117TIP3   OH227291   1.875   1.309   1.912
 9117TIP3    H127292   1.960   1.271   1.933
 9117TIP3    H227293   1.817   1.233   1.903
 9118TIP3   OH227294   5.832   4.938   5.804
 9118TIP3    H127295   5.806   4.875   5.872
 9118TIP3    H227296   5.925   4.955   5.822
 9119TIP3   OH227297   0.247   3.848   5.269
 9119TIP3    H127298   0.252   3.937   5.305
 9119TIP3    H227299   0.320   3.843   5.207
 9120TIP3   OH227300   3.687   2.999   3.765
 9120TIP3    H127301   3.613   2.952   3.726
 9120TIP3    H227302   3.692   3.080   3.714
 9121TIP3   OH227303   6.736   1.758   3.695
 9121TIP3    H127304   6.709   1.841   3.656
 9121TIP3    H227305   6.660   1.701   3.683
 9122TIP3   OH227306   6.284   7.599   5.719
 9122TIP3    H127307   6.375   7.626   5.732
 9122TIP3    H227308   6.234   7.650   5.783
 9123TIP3   OH227309   1.894   6.603   4.215
 9123TIP3    H127310   1.945   6.683   4.202
 9123TIP3    H227311   1.822   6.629   4.272
 9124TIP3   OH227312   5.037   0.089   0.776
 9124TIP3    H127313   4.950   0.120   0.801
 9124TIP3    H227314   5.097   0.152   0.817
 9125TIP3   OH227315   4.423   6.032   1.656
 9125TIP3    H127316   4.429   5.971   1.583
 9125TIP3    H227317   4.474   6.108   1.629
 9126TIP3   OH227318   6.777   4.045   5.940
 9126TIP3    H127319   6.839   3.978   5.968
 9126TIP3    H227320   6.831   4.124   5.927
 9127TIP3   OH227321   4.664   1.778   2.419
 9127TIP3    H127322   4.678   1.734   2.503
 9127TIP3    H227323   4.570   1.790   2.413
 9128TIP3   OH227324   0.254   7.841   0.100
 9128TIP3    H127325   0.285   7.755   0.126
 9128TIP3    H227326   0.254   7.893   0.180
 9129TIP3   OH227327   4.522   7.117   6.540
 9129TIP3    H127328   4.514   7.038   6.593
 9129TIP3    H227329   4.615   7.138   6.542
 9130TIP3   OH227330   4.089   3.288   3.592
 9130TIP3    H127331   4.134   3.274   3.508
 9130TIP3    H227332   4.120   3.373   3.622
 9131TIP3   OH227333   1.755   7.765   5.186
 9131TIP3    H127334   1.722   7.779   5.275
 9131TIP3    H227335   1.843   7.804   5.187
 9132TIP3   OH227336   0.602   2.869   2.719
 9132TIP3    H127337   0.531   2.869   2.655
 9132TIP3    H227338   0.642   2.782   2.711
 9133TIP3   OH227339   7.278   0.398   6.458
 9133TIP3    H127340   7.204   0.395   6.397
 9133TIP3    H227341   7.253   0.464   6.522
 9134TIP3   OH227342   1.089   4.497   5.594
 9134TIP3    H127343   1.008   4.497   5.644
 9134TIP3    H227344   1.138   4.572   5.627
 9135TIP3   OH227345   3.088   4.252   3.191
 9135TIP3    H127346   3.135   4.260   3.274
 9135TIP3    H227347   3.007   4.302   3.205
 9136TIP3   OH227348   7.565   1.931   1.101
 9136TIP3    H127349   7.651   1.963   1.075
 9136TIP3    H227350   7.514   2.010   1.118
 9137TIP3   OH227351   3.796  -0.081   3.848
 9137TIP3    H127352   3.741  -0.115   3.778
 9137TIP3    H227353   3.752  -0.109   3.929
 9138TIP3   OH227354   7.977   7.592   4.860
 9138TIP3    H127355   8.051   7.637   4.819
 9138TIP3    H227356   7.989   7.500   4.838
 9139TIP3   OH227357   2.525   1.662   5.838
 9139TIP3    H127358   2.440   1.706   5.826
 9139TIP3    H227359   2.573   1.681   5.758
 9140TIP3   OH227360   7.537   3.979   5.319
 9140TIP3    H127361   7.500   3.962   5.405
 9140TIP3    H227362   7.538   4.074   5.311
 9141TIP3   OH227363   6.145   6.581   3.534
 9141TIP3    H127364   6.155   6.655   3.474
 9141TIP3    H227365   6.159   6.618   3.621
 9142TIP3   OH227366   2.795   3.098   5.900
 9142TIP3    H127367   2.800   3.182   5.946
 9142TIP3    H227368   2.752   3.040   5.963
 9143TIP3   OH227369   5.405   6.304   1.617
 9143TIP3    H127370   5.396   6.308   1.522
 9143TIP3    H227371   5.351   6.229   1.643
 9144TIP3   OH227372   3.075   1.536   6.438
 9144TIP3    H127373   3.026   1.522   6.357
 9144TIP3    H227374   3.080   1.631   6.447
 9145TIP3   OH227375   0.556   2.224   6.753
 9145TIP3    H127376   0.486   2.289   6.748
 9145TIP3    H227377   0.565   2.204   6.846
 9146TIP3   OH227378   4.536   6.854   1.330
 9146TIP3    H127379   4.569   6.771   1.365
 9146TIP3    H227380   4.604   6.884   1.270
 9147TIP3   OH227381   1.446   4.240   1.346
 9147TIP3    H127382   1.377   4.271   1.288
 9147TIP3    H227383   1.414   4.259   1.434
 9148TIP3   OH227384   1.211   5.711   1.531
 9148TIP3    H127385   1.165   5.757   1.602
 9148TIP3    H227386   1.144   5.697   1.464
 9149TIP3   OH227387   2.606   6.605   4.156
 9149TIP3    H127388   2.648   6.569   4.234
 9149TIP3    H227389   2.548   6.535   4.126
 9150TIP3   OH227390   7.799   0.713   4.925
 9150TIP3    H127391   7.888   0.693   4.952
 9150TIP3    H227392   7.791   0.677   4.837
 9151TIP3   OH227393   1.088   2.956   1.758
 9151TIP3    H127394   1.179   2.951   1.731
 9151TIP3    H227395   1.063   2.866   1.778
 9152TIP3   OH227396   2.978   6.850   5.974
 9152TIP3    H127397   2.985   6.770   6.025
 9152TIP3    H227398   3.064   6.890   5.980
 9153TIP3   OH227399   7.636   2.582   3.230
 9153TIP3    H127400   7.722   2.603   3.267
 9153TIP3    H227401   7.652   2.574   3.136
 9154TIP3   OH227402   8.336   6.222   2.698
 9154TIP3    H127403   8.351   6.298   2.642
 9154TIP3    H227404   8.249   6.190   2.672
 9155TIP3   OH227405   4.575   0.384   5.774
 9155TIP3    H127406   4.610   0.296   5.788
 9155TIP3    H227407   4.500   0.390   5.834
 9156TIP3   OH227408   4.853   1.874   4.006
 9156TIP3    H127409   4.902   1.820   4.068
 9156TIP3    H227410   4.886   1.963   4.019
 9157TIP3   OH227411   0.437   3.876   2.401
 9157TIP3    H127412   0.487   3.802   2.437
 9157TIP3    H227413   0.464   3.951   2.453
 9158TIP3   OH227414   7.739   2.953   5.546
 9158TIP3    H127415   7.799   2.959   5.620
 9158TIP3    H227416   7.706   2.863   5.549
 9159TIP3   OH227417   4.033   3.725   6.095
 9159TIP3    H127418   3.999   3.755   6.179
 9159TIP3    H227419   4.090   3.796   6.065
 9160TIP3   OH227420   1.158   7.442   6.629
 9160TIP3    H127421   1.146   7.532   6.600
 9160TIP3    H227422   1.096   7.392   6.576
 9161TIP3   OH227423   1.612   2.521   4.015
 9161TIP3    H127424   1.706   2.532   4.004
 9161TIP3    H227425   1.600   2.510   4.109
 9162TIP3   OH227426   8.020   0.460   0.037
 9162TIP3    H127427   8.008   0.412  -0.045
 9162TIP3    H227428   7.932   0.466   0.074
 9163TIP3   OH227429   5.012   2.502   6.095
 9163TIP3    H127430   4.954   2.525   6.167
 9163TIP3    H227431   5.083   2.567   6.101
 9164TIP3   OH227432   6.583   0.947   0.459
 9164TIP3    H127433   6.543   0.861   0.446
 9164TIP3    H227434   6.604   0.977   0.370
 9165TIP3   OH227435   0.799   5.852   5.746
 9165TIP3    H127436   0.876   5.908   5.735
 9165TIP3    H227437   0.728   5.913   5.767
 9166TIP3   OH227438   1.985   1.956   6.153
 9166TIP3    H127439   1.996   2.050   6.168
 9166TIP3    H227440   2.060   1.915   6.197
 9167TIP3   OH227441   0.317   7.092   4.502
 9167TIP3    H127442   0.272   7.147   4.565
 9167TIP3    H227443   0.382   7.044   4.554
 9168TIP3   OH227444   7.506   5.563   1.406
 9168TIP3    H127445   7.572   5.547   1.474
 9168TIP3    H227446   7.557   5.570   1.325
 9169TIP3   OH227447   4.955   6.146   0.305
 9169TIP3    H127448   4.903   6.147   0.386
 9169TIP3    H227449   5.031   6.091   0.326
 9170TIP3   OH227450   6.341   6.232   4.147
 9170TIP3    H127451   6.311   6.203   4.061
 9170TIP3    H227452   6.332   6.327   4.145
 9171TIP3   OH227453   3.758   4.029   4.874
 9171TIP3    H127454   3.799   4.056   4.957
 9171TIP3    H227455   3.831   4.021   4.813
 9172TIP3   OH227456   4.055   1.764   4.547
 9172TIP3    H127457   4.103   1.745   4.467
 9172TIP3    H227458   4.115   1.741   4.617
 9173TIP3   OH227459   8.224   6.242   0.050
 9173TIP3    H127460   8.174   6.262   0.129
 9173TIP3    H227461   8.203   6.151   0.031
 9174TIP3   OH227462   6.933   4.805   4.903
 9174TIP3    H127463   6.990   4.866   4.950
 9174TIP3    H227464   6.844   4.835   4.921
 9175TIP3   OH227465   0.822   5.235   2.213
 9175TIP3    H127466   0.858   5.265   2.296
 9175TIP3    H227467   0.780   5.152   2.233
 9176TIP3   OH227468   0.074   4.613   3.308
 9176TIP3    H127469  -0.016   4.581   3.312
 9176TIP3    H227470   0.120   4.564   3.377
 9177TIP3   OH227471   1.304   1.658   5.766
 9177TIP3    H127472   1.273   1.645   5.856
 9177TIP3    H227473   1.359   1.581   5.749
 9178TIP3   OH227474   5.181   4.702   3.961
 9178TIP3    H127475   5.265   4.740   3.934
 9178TIP3    H227476   5.189   4.609   3.940
 9179TIP3   OH227477   5.716   3.593   6.659
 9179TIP3    H127478   5.804   3.626   6.676
 9179TIP3    H227479   5.698   3.618   6.568
 9180TIP3   OH227480   4.530   1.266   4.453
 9180TIP3    H127481   4.470   1.203   4.493
 9180TIP3    H227482   4.474   1.337   4.423
 9181TIP3   OH227483   7.611   4.967   4.809
 9181TIP3    H127484   7.681   4.928   4.862
 9181TIP3    H227485   7.580   4.895   4.754
 9182TIP3   OH227486   1.356   1.471   5.221
 9182TIP3    H127487   1.443   1.508   5.237
 9182TIP3    H227488   1.371   1.376   5.218
 9183TIP3   OH227489   6.686   1.139   6.122
 9183TIP3    H127490   6.752   1.189   6.171
 9183TIP3    H227491   6.637   1.205   6.073
 9184TIP3   OH227492   7.572   2.685   3.786
 9184TIP3    H127493   7.534   2.706   3.872
 9184TIP3    H227494   7.598   2.593   3.793
 9185TIP3   OH227495   0.624   7.058   4.007
 9185TIP3    H127496   0.622   6.962   4.010
 9185TIP3    H227497   0.715   7.081   4.028
 9186TIP3   OH227498   6.066   0.922   1.600
 9186TIP3    H127499   6.142   0.902   1.546
 9186TIP3    H227500   6.017   0.840   1.606
 9187TIP3   OH227501   2.724   6.509   6.331
 9187TIP3    H127502   2.725   6.583   6.270
 9187TIP3    H227503   2.810   6.512   6.372
 9188TIP3   OH227504   7.071   0.088   0.012
 9188TIP3    H127505   7.121   0.017  -0.026
 9188TIP3    H227506   7.120   0.113   0.091
 9189TIP3   OH227507   5.688   7.792   2.293
 9189TIP3    H127508   5.641   7.867   2.327
 9189TIP3    H227509   5.748   7.829   2.228
 9190TIP3   OH227510   1.897   3.742   1.718
 9190TIP3    H127511   1.908   3.808   1.787
 9190TIP3    H227512   1.986   3.718   1.693
 9191TIP3   OH227513   7.839   0.692   6.349
 9191TIP3    H127514   7.820   0.633   6.423
 9191TIP3    H227515   7.851   0.633   6.275
 9192TIP3   OH227516   6.806   0.773   5.715
 9192TIP3    H127517   6.753   0.739   5.787
 9192TIP3    H227518   6.832   0.861   5.742
 9193TIP3   OH227519   6.393   0.554   3.953
 9193TIP3    H127520   6.394   0.521   3.863
 9193TIP3    H227521   6.365   0.646   3.944
 9194TIP3   OH227522   6.619   2.955   2.771
 9194TIP3    H127523   6.704   2.969   2.813
 9194TIP3    H227524   6.598   2.864   2.788
 9195TIP3   OH227525   7.423   3.325   6.867
 9195TIP3    H127526   7.342   3.335   6.918
 9195TIP3    H227527   7.423   3.400   6.807
 9196TIP3   OH227528   5.786   6.579   3.257
 9196TIP3    H127529   5.736   6.600   3.178
 9196TIP3    H227530   5.877   6.599   3.233
 9197TIP3   OH227531   7.467   0.321   1.718
 9197TIP3    H127532   7.413   0.373   1.776
 9197TIP3    H227533   7.481   0.376   1.641
 9198TIP3   OH227534   5.183   2.980   3.022
 9198TIP3    H127535   5.181   2.885   3.006
 9198TIP3    H227536   5.276   3.002   3.021
 9199TIP3   OH227537   3.602   0.300   2.883
 9199TIP3    H127538   3.626   0.333   2.970
 9199TIP3    H227539   3.526   0.245   2.898
 9200TIP3   OH227540   2.205   2.912   5.277
 9200TIP3    H127541   2.132   2.960   5.315
 9200TIP3    H227542   2.229   2.847   5.343
 9201TIP3   OH227543   1.938   0.148   1.587
 9201TIP3    H127544   1.881   0.173   1.514
 9201TIP3    H227545   1.981   0.230   1.613
 9202TIP3   OH227546   5.155   2.339   2.425
 9202TIP3    H127547   5.176   2.407   2.361
 9202TIP3    H227548   5.064   2.316   2.405
 9203TIP3   OH227549   0.610   6.521   6.815
 9203TIP3    H127550   0.534   6.537   6.761
 9203TIP3    H227551   0.599   6.431   6.847
 9204TIP3   OH227552   2.172   0.759   2.944
 9204TIP3    H127553   2.237   0.698   2.909
 9204TIP3    H227554   2.189   0.841   2.898
 9205TIP3   OH227555   0.593   3.338   0.602
 9205TIP3    H127556   0.590   3.243   0.592
 9205TIP3    H227557   0.682   3.362   0.578
 9206TIP3   OH227558   0.222   4.450   4.981
 9206TIP3    H127559   0.247   4.360   4.961
 9206TIP3    H227560   0.229   4.457   5.077
 9207TIP3   OH227561   6.243   0.111   6.104
 9207TIP3    H127562   6.295   0.160   6.040
 9207TIP3    H227563   6.207   0.178   6.162
 9208TIP3   OH227564   4.850   2.351   5.922
 9208TIP3    H127565   4.874   2.259   5.911
 9208TIP3    H227566   4.923   2.389   5.970
 9209TIP3   OH227567   0.375   4.308   3.405
 9209TIP3    H127568   0.369   4.215   3.427
 9209TIP3    H227569   0.357   4.354   3.487
 9210TIP3   OH227570   4.432   7.702   5.934
 9210TIP3    H127571   4.450   7.637   5.866
 9210TIP3    H227572   4.501   7.687   6.000
 9211TIP3   OH227573   0.139   6.985   2.778
 9211TIP3    H127574   0.205   6.937   2.827
 9211TIP3    H227575   0.149   6.954   2.688
 9212TIP3   OH227576   0.883   7.607   3.144
 9212TIP3    H127577   0.816   7.586   3.209
 9212TIP3    H227578   0.931   7.681   3.182
 9213TIP3   OH227579   0.727   5.771   4.092
 9213TIP3    H127580   0.783   5.723   4.031
 9213TIP3    H227581   0.755   5.742   4.179
 9214TIP3   OH227582   5.870   3.191   1.688
 9214TIP3    H127583   5.843   3.159   1.602
 9214TIP3    H227584   5.891   3.113   1.738
 9215TIP3   OH227585   7.808   6.676   4.959
 9215TIP3    H127586   7.738   6.713   4.905
 9215TIP3    H227587   7.764   6.614   5.017
 9216TIP3   OH227588   1.956   5.194   0.622
 9216TIP3    H127589   2.035   5.194   0.568
 9216TIP3    H227590   1.944   5.286   0.646
 9217TIP3   OH227591   0.516   2.649   2.538
 9217TIP3    H127592   0.487   2.738   2.517
 9217TIP3    H227593   0.582   2.629   2.472
 9218TIP3   OH227594   0.237   3.842   3.714
 9218TIP3    H127595   0.317   3.831   3.662
 9218TIP3    H227596   0.166   3.818   3.655
 9219TIP3   OH227597   5.947   2.802   4.232
 9219TIP3    H127598   5.877   2.867   4.218
 9219TIP3    H227599   5.901   2.720   4.245
 9220TIP3   OH227600   1.415   7.899   0.750
 9220TIP3    H127601   1.355   7.878   0.822
 9220TIP3    H227602   1.497   7.856   0.774
 9221TIP3   OH227603   6.513   5.111   0.766
 9221TIP3    H127604   6.555   5.187   0.806
 9221TIP3    H227605   6.450   5.081   0.832
 9222TIP3   OH227606   7.481   5.383   2.800
 9222TIP3    H127607   7.530   5.331   2.737
 9222TIP3    H227608   7.542   5.450   2.830
 9223TIP3   OH227609   3.728   7.198   6.405
 9223TIP3    H127610   3.778   7.117   6.400
 9223TIP3    H227611   3.654   7.177   6.462
 9224TIP3   OH227612   7.744   6.040   1.178
 9224TIP3    H127613   7.677   5.985   1.218
 9224TIP3    H227614   7.818   5.981   1.164
 9225TIP3   OH227615   4.858   4.898   2.558
 9225TIP3    H127616   4.942   4.917   2.515
 9225TIP3    H227617   4.823   4.824   2.509
 9226TIP3   OH227618   7.091   0.873   3.508
 9226TIP3    H127619   7.178   0.839   3.489
 9226TIP3    H227620   7.102   0.928   3.585
 9227TIP3   OH227621   0.191   6.773   1.886
 9227TIP3    H127622   0.282   6.749   1.870
 9227TIP3    H227623   0.146   6.757   1.803
 9228TIP3   OH227624   1.418   3.629   0.628
 9228TIP3    H127625   1.357   3.560   0.605
 9228TIP3    H227626   1.504   3.597   0.599
 9229TIP3   OH227627   2.067   5.877   6.022
 9229TIP3    H127628   2.056   5.871   6.117
 9229TIP3    H227629   1.985   5.845   5.986
 9230TIP3   OH227630   6.413   6.662   2.311
 9230TIP3    H127631   6.347   6.680   2.379
 9230TIP3    H227632   6.486   6.622   2.359
 9231TIP3   OH227633   7.179   3.731   4.347
 9231TIP3    H127634   7.250   3.772   4.298
 9231TIP3    H227635   7.219   3.703   4.429
 9232TIP3   OH227636   7.928   1.117   5.975
 9232TIP3    H127637   7.907   1.023   5.980
 9232TIP3    H227638   7.872   1.151   5.906
 9233TIP3   OH227639   1.815   4.314   1.713
 9233TIP3    H127640   1.758   4.247   1.750
 9233TIP3    H227641   1.881   4.330   1.780
 9234TIP3   OH227642   7.343   5.096   4.283
 9234TIP3    H127643   7.425   5.146   4.284
 9234TIP3    H227644   7.275   5.161   4.266
 9235TIP3   OH227645   2.191   5.617   3.442
 9235TIP3    H127646   2.102   5.587   3.427
 9235TIP3    H227647   2.212   5.588   3.531
 9236TIP3   OH227648   2.935   0.797   6.145
 9236TIP3    H127649   3.003   0.739   6.180
 9236TIP3    H227650   2.934   0.779   6.051
 9237TIP3   OH227651   1.508   3.798   1.884
 9237TIP3    H127652   1.457   3.855   1.826
 9237TIP3    H227653   1.570   3.754   1.825
 9238TIP3   OH227654   7.595   6.093   4.646
 9238TIP3    H127655   7.646   6.137   4.714
 9238TIP3    H227656   7.600   6.000   4.668
 9239TIP3   OH227657   6.744   7.388   0.944
 9239TIP3    H127658   6.805   7.443   0.995
 9239TIP3    H227659   6.658   7.408   0.981
 9240TIP3   OH227660   5.113   5.734   4.641
 9240TIP3    H127661   5.025   5.697   4.648
 9240TIP3    H227662   5.154   5.713   4.725
 9241TIP3   OH227663   3.800   0.884   6.695
 9241TIP3    H127664   3.707   0.904   6.684
 9241TIP3    H227665   3.844   0.969   6.685
 9242TIP3   OH227666   1.823   5.241   0.099
 9242TIP3    H127667   1.889   5.177   0.127
 9242TIP3    H227668   1.802   5.290   0.179
 9243TIP3   OH227669   0.404   5.609   6.395
 9243TIP3    H127670   0.328   5.587   6.448
 9243TIP3    H227671   0.415   5.703   6.406
 9244TIP3   OH227672   2.721   1.804   3.058
 9244TIP3    H127673   2.756   1.885   3.094
 9244TIP3    H227674   2.776   1.786   2.982
 9245TIP3   OH227675   7.384   7.001   4.930
 9245TIP3    H127676   7.344   7.071   4.980
 9245TIP3    H227677   7.320   6.980   4.862
 9246TIP3   OH227678   3.491   0.237   6.105
 9246TIP3    H127679   3.481   0.185   6.025
 9246TIP3    H227680   3.401   0.258   6.131
 9247TIP3   OH227681   2.660   0.577   5.367
 9247TIP3    H127682   2.679   0.657   5.318
 9247TIP3    H227683   2.587   0.537   5.321
 9248TIP3   OH227684   5.143   0.843   0.772
 9248TIP3    H127685   5.098   0.815   0.852
 9248TIP3    H227686   5.097   0.797   0.702
 9249TIP3   OH227687   0.641   5.741   0.769
 9249TIP3    H127688   0.593   5.792   0.835
 9249TIP3    H227689   0.642   5.652   0.805
 9250TIP3   OH227690   4.323   3.441   6.744
 9250TIP3    H127691   4.328   3.483   6.830
 9250TIP3    H227692   4.249   3.483   6.701
 9251TIP3   OH227693   0.141   2.755   0.792
 9251TIP3    H127694   0.208   2.757   0.860
 9251TIP3    H227695   0.181   2.707   0.720
 9252TIP3   OH227696   5.569   5.805   3.654
 9252TIP3    H127697   5.598   5.768   3.571
 9252TIP3    H227698   5.473   5.798   3.651
 9253TIP3   OH227699   0.905   6.364   5.094
 9253TIP3    H127700   0.919   6.298   5.026
 9253TIP3    H227701   0.963   6.436   5.070
 9254TIP3   OH227702   7.580   2.822   4.600
 9254TIP3    H127703   7.572   2.916   4.589
 9254TIP3    H227704   7.647   2.796   4.537
 9255TIP3   OH227705   0.782   0.910   4.964
 9255TIP3    H127706   0.687   0.894   4.961
 9255TIP3    H227707   0.790   1.005   4.967
 9256TIP3   OH227708   0.775   3.430   3.516
 9256TIP3    H127709   0.698   3.413   3.463
 9256TIP3    H227710   0.806   3.516   3.487
 9257TIP3   OH227711   4.925   5.850   0.255
 9257TIP3    H127712   4.896   5.938   0.280
 9257TIP3    H227713   4.845   5.802   0.237
 9258TIP3   OH227714   1.298   1.185   5.657
 9258TIP3    H127715   1.236   1.221   5.594
 9258TIP3    H227716   1.334   1.262   5.702
 9259TIP3   OH227717   7.425   6.752   4.435
 9259TIP3    H127718   7.419   6.844   4.462
 9259TIP3    H227719   7.389   6.703   4.509
 9260TIP3   OH227720   5.091   0.292   5.971
 9260TIP3    H127721   5.000   0.267   5.988
 9260TIP3    H227722   5.138   0.269   6.051
 9261TIP3   OH227723   1.221   1.097   1.944
 9261TIP3    H127724   1.200   1.190   1.947
 9261TIP3    H227725   1.291   1.086   2.008
 9262TIP3   OH227726   4.717   1.574   0.212
 9262TIP3    H127727   4.711   1.520   0.291
 9262TIP3    H227728   4.781   1.643   0.234
 9263TIP3   OH227729   1.705   4.324   0.934
 9263TIP3    H127730   1.789   4.311   0.978
 9263TIP3    H227731   1.640   4.318   1.003
 9264TIP3   OH227732   4.567   4.037   4.948
 9264TIP3    H127733   4.523   4.075   5.024
 9264TIP3    H227734   4.569   3.943   4.965
 9265TIP3   OH227735   2.364   6.399   4.074
 9265TIP3    H127736   2.344   6.447   3.994
 9265TIP3    H227737   2.434   6.338   4.049
 9266TIP3   OH227738   6.813   1.914   2.684
 9266TIP3    H127739   6.811   1.825   2.720
 9266TIP3    H227740   6.808   1.902   2.590
 9267TIP3   OH227741   8.259   1.476   3.315
 9267TIP3    H127742   8.203   1.462   3.392
 9267TIP3    H227743   8.342   1.434   3.338
 9268TIP3   OH227744   5.052   1.005   6.775
 9268TIP3    H127745   5.012   0.959   6.848
 9268TIP3    H227746   5.087   1.086   6.813
 9269TIP3   OH227747   2.293   6.994   4.559
 9269TIP3    H127748   2.356   7.040   4.503
 9269TIP3    H227749   2.211   7.043   4.547
 9270TIP3   OH227750   3.566   7.015   0.334
 9270TIP3    H127751   3.566   6.920   0.332
 9270TIP3    H227752   3.545   7.041   0.244
 9271TIP3   OH227753   6.467   5.259   1.387
 9271TIP3    H127754   6.465   5.353   1.371
 9271TIP3    H227755   6.384   5.227   1.352
 9272TIP3   OH227756   1.745   6.472   4.017
 9272TIP3    H127757   1.787   6.452   3.933
 9272TIP3    H227758   1.806   6.530   4.061
 9273TIP3   OH227759   2.866   1.574   6.648
 9273TIP3    H127760   2.862   1.668   6.633
 9273TIP3    H227761   2.949   1.547   6.608
 9274TIP3   OH227762   6.207   5.178   2.562
 9274TIP3    H127763   6.128   5.209   2.517
 9274TIP3    H227764   6.270   5.162   2.492
 9275TIP3   OH227765   5.354   0.108   5.356
 9275TIP3    H127766   5.373   0.093   5.263
 9275TIP3    H227767   5.344   0.203   5.363
 9276TIP3   OH227768   1.632   4.056   1.764
 9276TIP3    H127769   1.596   4.051   1.853
 9276TIP3    H227770   1.629   3.966   1.732
 9277TIP3   OH227771   1.217   4.987   4.134
 9277TIP3    H127772   1.134   4.968   4.090
 9277TIP3    H227773   1.271   4.909   4.118
 9278TIP3   OH227774   0.463   7.164   1.591
 9278TIP3    H127775   0.494   7.155   1.681
 9278TIP3    H227776   0.391   7.101   1.584
 9279TIP3   OH227777   2.568   7.287   3.513
 9279TIP3    H127778   2.620   7.232   3.454
 9279TIP3    H227779   2.597   7.376   3.494
 9280TIP3   OH227780   5.834   0.223   3.493
 9280TIP3    H127781   5.752   0.249   3.536
 9280TIP3    H227782   5.901   0.271   3.541
 9281TIP3   OH227783   4.375   7.313   1.544
 9281TIP3    H127784   4.374   7.408   1.544
 9281TIP3    H227785   4.464   7.290   1.517
 9282TIP3   OH227786   5.815   4.227   6.791
 9282TIP3    H127787   5.813   4.311   6.836
 9282TIP3    H227788   5.850   4.166   6.856
 9283TIP3   OH227789   7.344   5.261   5.088
 9283TIP3    H127790   7.372   5.350   5.110
 9283TIP3    H227791   7.301   5.269   5.003
 9284TIP3   OH227792   3.420   6.991   2.440
 9284TIP3    H127793   3.496   6.996   2.497
 9284TIP3    H227794   3.352   7.041   2.486
 9285TIP3   OH227795   3.356   5.187   4.847
 9285TIP3    H127796   3.327   5.239   4.771
 9285TIP3    H227797   3.275   5.163   4.891
 9286TIP3   OH227798   5.886   1.324   1.757
 9286TIP3    H127799   5.914   1.304   1.846
 9286TIP3    H227800   5.942   1.398   1.731
 9287TIP3   OH227801   1.795   5.747   1.492
 9287TIP3    H127802   1.702   5.747   1.514
 9287TIP3    H227803   1.805   5.824   1.435
 9288TIP3   OH227804   6.561   1.313   1.328
 9288TIP3    H127805   6.477   1.313   1.373
 9288TIP3    H227806   6.592   1.403   1.336
 9289TIP3   OH227807   7.955   3.247   0.631
 9289TIP3    H127808   7.900   3.257   0.553
 9289TIP3    H227809   7.967   3.152   0.640
 9290TIP3   OH227810   1.488   6.810   1.350
 9290TIP3    H127811   1.448   6.744   1.408
 9290TIP3    H227812   1.455   6.789   1.263
 9291TIP3   OH227813   0.704   0.849   6.208
 9291TIP3    H127814   0.676   0.865   6.298
 9291TIP3    H227815   0.699   0.934   6.165
 9292TIP3   OH227816   3.872   1.144   1.951
 9292TIP3    H127817   3.931   1.219   1.957
 9292TIP3    H227818   3.927   1.072   1.919
 9293TIP3   OH227819   0.615   7.032   3.561
 9293TIP3    H127820   0.692   7.045   3.506
 9293TIP3    H227821   0.608   7.111   3.613
 9294TIP3   OH227822   5.623   6.881   1.898
 9294TIP3    H127823   5.684   6.931   1.845
 9294TIP3    H227824   5.633   6.791   1.868
 9295TIP3   OH227825   4.018   1.384   3.845
 9295TIP3    H127826   4.012   1.439   3.923
 9295TIP3    H227827   3.981   1.300   3.872
 9296TIP3   OH227828   5.018   7.150   0.281
 9296TIP3    H127829   5.106   7.114   0.270
 9296TIP3    H227830   5.031   7.244   0.291
 9297TIP3   OH227831   3.047   7.388   2.302
 9297TIP3    H127832   2.957   7.396   2.334
 9297TIP3    H227833   3.043   7.418   2.211
 9298TIP3   OH227834   5.748   7.657   2.856
 9298TIP3    H127835   5.828   7.670   2.906
 9298TIP3    H227836   5.746   7.730   2.794
 9299TIP3   OH227837   1.176   4.009   5.978
 9299TIP3    H127838   1.086   4.033   6.000
 9299TIP3    H227839   1.193   3.930   6.030
 9300TIP3   OH227840   2.977   2.233   1.523
 9300TIP3    H127841   2.921   2.308   1.542
 9300TIP3    H227842   2.931   2.159   1.563
 9301TIP3   OH227843   4.037   7.496   2.004
 9301TIP3    H127844   4.009   7.518   2.092
 9301TIP3    H227845   3.956   7.471   1.959
 9302TIP3   OH227846   6.460   3.617   1.853
 9302TIP3    H127847   6.432   3.707   1.840
 9302TIP3    H227848   6.490   3.588   1.767
 9303TIP3   OH227849   0.799   3.680   6.844
 9303TIP3    H127850   0.774   3.591   6.819
 9303TIP3    H227851   0.799   3.679   6.940
 9304TIP3   OH227852   1.461   7.900   5.378
 9304TIP3    H127853   1.386   7.859   5.336
 9304TIP3    H227854   1.491   7.967   5.316
 9305TIP3   OH227855   8.063   5.001   6.266
 9305TIP3    H127856   7.970   4.993   6.289
 9305TIP3    H227857   8.103   4.921   6.301
 9306TIP3   OH227858   2.053   0.887   5.409
 9306TIP3    H127859   2.008   0.891   5.493
 9306TIP3    H227860   2.123   0.952   5.416
 9307TIP3   OH227861   5.474   0.140   1.663
 9307TIP3    H127862   5.410   0.156   1.731
 9307TIP3    H227863   5.424   0.103   1.590
 9308TIP3   OH227864   0.768   3.987   4.511
 9308TIP3    H127865   0.762   4.013   4.419
 9308TIP3    H227866   0.857   3.951   4.519
 9309TIP3   OH227867   5.743   3.791   2.757
 9309TIP3    H127868   5.829   3.776   2.795
 9309TIP3    H227869   5.752   3.764   2.666
 9310TIP3   OH227870   3.275   6.245   4.026
 9310TIP3    H127871   3.302   6.183   4.094
 9310TIP3    H227872   3.185   6.220   4.005
 9311TIP3   OH227873   6.221   1.683   4.473
 9311TIP3    H127874   6.250   1.662   4.385
 9311TIP3    H227875   6.203   1.777   4.471
 9312TIP3   OH227876   3.175   6.367   4.853
 9312TIP3    H127877   3.102   6.319   4.815
 9312TIP3    H227878   3.149   6.459   4.848
 9313TIP3   OH227879   4.251   6.929   6.348
 9313TIP3    H127880   4.239   6.958   6.438
 9313TIP3    H227881   4.246   7.010   6.296
 9314TIP3   OH227882   3.433   0.635   6.898
 9314TIP3    H127883   3.484   0.554   6.901
 9314TIP3    H227884   3.499   0.704   6.895
 9315TIP3   OH227885   5.922   5.214   6.650
 9315TIP3    H127886   5.974   5.137   6.627
 9315TIP3    H227887   5.837   5.178   6.678
 9316TIP3   OH227888   2.717   6.632   2.206
 9316TIP3    H127889   2.669   6.587   2.136
 9316TIP3    H227890   2.756   6.561   2.258
 9317TIP3   OH227891   1.450   7.531   2.048
 9317TIP3    H127892   1.464   7.614   2.003
 9317TIP3    H227893   1.531   7.482   2.034
 9318TIP3   OH227894   7.229   3.574   6.467
 9318TIP3    H127895   7.283   3.538   6.397
 9318TIP3    H227896   7.147   3.526   6.462
 9319TIP3   OH227897   0.600   7.033   2.023
 9319TIP3    H127898   0.684   7.002   2.057
 9319TIP3    H227899   0.619   7.057   1.932
 9320TIP3   OH227900   7.967   1.942   3.674
 9320TIP3    H127901   8.027   1.882   3.717
 9320TIP3    H227902   7.985   2.027   3.716
 9321TIP3   OH227903   0.199   7.515   0.214
 9321TIP3    H127904   0.228   7.518   0.305
 9321TIP3    H227905   0.266   7.465   0.168
 9322TIP3   OH227906   1.915   2.984   5.392
 9322TIP3    H127907   1.903   3.079   5.385
 9322TIP3    H227908   1.901   2.965   5.485
 9323TIP3   OH227909   7.545   0.724   6.750
 9323TIP3    H127910   7.458   0.751   6.778
 9323TIP3    H227911   7.585   0.686   6.829
 9324TIP3   OH227912   6.235   3.698   6.332
 9324TIP3    H127913   6.225   3.639   6.407
 9324TIP3    H227914   6.271   3.778   6.370
 9325TIP3   OH227915   5.415   3.982   1.110
 9325TIP3    H127916   5.452   3.991   1.197
 9325TIP3    H227917   5.476   4.027   1.052
 9326TIP3   OH227918   5.403   6.620   6.755
 9326TIP3    H127919   5.316   6.652   6.732
 9326TIP3    H227920   5.418   6.655   6.843
 9327TIP3   OH227921   6.699   0.700   4.149
 9327TIP3    H127922   6.773   0.761   4.154
 9327TIP3    H227923   6.714   0.651   4.069
 9328TIP3   OH227924   0.626   4.737   1.055
 9328TIP3    H127925   0.551   4.757   1.111
 9328TIP3    H227926   0.686   4.688   1.111
 9329TIP3   OH227927   7.033   5.675   2.590
 9329TIP3    H127928   7.111   5.645   2.543
 9329TIP3    H227929   7.068   5.728   2.662
 9330TIP3   OH227930   6.995   6.664   5.439
 9330TIP3    H127931   6.954   6.689   5.522
 9330TIP3    H227932   6.942   6.708   5.372
 9331TIP3   OH227933   0.133   3.390   1.973
 9331TIP3    H127934   0.077   3.455   1.930
 9331TIP3    H227935   0.154   3.429   2.058
 9332TIP3   OH227936   4.808   3.140   0.911
 9332TIP3    H127937   4.900   3.139   0.884
 9332TIP3    H227938   4.782   3.231   0.902
 9333TIP3   OH227939   0.939   6.885   4.536
 9333TIP3    H127940   0.939   6.797   4.573
 9333TIP3    H227941   0.972   6.873   4.447
 9334TIP3   OH227942   1.521   0.673   3.137
 9334TIP3    H127943   1.560   0.743   3.189
 9334TIP3    H227944   1.592   0.643   3.080
 9335TIP3   OH227945   0.084   5.786   3.732
 9335TIP3    H127946   0.146   5.751   3.667
 9335TIP3    H227947   0.060   5.872   3.699
 9336TIP3   OH227948   4.035   6.133   2.204
 9336TIP3    H127949   4.065   6.212   2.250
 9336TIP3    H227950   3.980   6.167   2.133
 9337TIP3   OH227951   6.261   5.169   6.417
 9337TIP3    H127952   6.321   5.095   6.422
 9337TIP3    H227953   6.187   5.144   6.472
 9338TIP3   OH227954   2.698   1.220   2.710
 9338TIP3    H127955   2.733   1.255   2.792
 9338TIP3    H227956   2.603   1.230   2.718
 9339TIP3   OH227957   1.651   3.786   5.773
 9339TIP3    H127958   1.618   3.837   5.699
 9339TIP3    H227959   1.711   3.723   5.733
 9340TIP3   OH227960   0.707   4.573   4.482
 9340TIP3    H127961   0.760   4.643   4.442
 9340TIP3    H227962   0.637   4.620   4.528
 9341TIP3   OH227963   7.713   1.706   6.492
 9341TIP3    H127964   7.692   1.742   6.406
 9341TIP3    H227965   7.629   1.678   6.527
 9342TIP3   OH227966   0.216   5.474   6.559
 9342TIP3    H127967   0.120   5.483   6.561
 9342TIP3    H227968   0.232   5.394   6.509
 9343TIP3   OH227969   2.978   7.785   2.813
 9343TIP3    H127970   3.031   7.730   2.871
 9343TIP3    H227971   3.041   7.831   2.759
 9344TIP3   OH227972   5.423   4.960   6.456
 9344TIP3    H127973   5.363   4.942   6.529
 9344TIP3    H227974   5.371   5.016   6.397
 9345TIP3   OH227975   7.466   4.439   5.542
 9345TIP3    H127976   7.557   4.460   5.523
 9345TIP3    H227977   7.465   4.344   5.553
 9346TIP3   OH227978   4.587   6.532   5.554
 9346TIP3    H127979   4.634   6.552   5.636
 9346TIP3    H227980   4.580   6.437   5.554
 9347TIP3   OH227981   5.681   7.369   3.435
 9347TIP3    H127982   5.625   7.399   3.364
 9347TIP3    H227983   5.629   7.303   3.481
 9348TIP3   OH227984   5.608   7.708   3.742
 9348TIP3    H127985   5.640   7.763   3.671
 9348TIP3    H227986   5.515   7.730   3.749
 9349TIP3   OH227987   2.668   3.530   3.004
 9349TIP3    H127988   2.633   3.528   3.093
 9349TIP3    H227989   2.707   3.617   2.995
 9350TIP3   OH227990   7.738   4.086   0.168
 9350TIP3    H127991   7.813   4.139   0.192
 9350TIP3    H227992   7.743   4.010   0.226
 9351TIP3   OH227993   5.980   3.007   5.625
 9351TIP3    H127994   5.951   3.098   5.622
 9351TIP3    H227995   6.065   3.010   5.670
 9352TIP3   OH227996   0.674   1.753   3.818
 9352TIP3    H127997   0.592   1.767   3.866
 9352TIP3    H227998   0.742   1.778   3.880
 9353TIP3   OH227999   1.007   7.220   3.195
 9353TIP3    H128000   0.939   7.156   3.171
 9353TIP3    H228001   0.996   7.291   3.132
 9354TIP3   OH228002   4.695   7.859   5.127
 9354TIP3    H128003   4.757   7.914   5.080
 9354TIP3    H228004   4.637   7.826   5.058
 9355TIP3   OH228005   2.196   1.308   0.187
 9355TIP3    H128006   2.243   1.296   0.105
 9355TIP3    H228007   2.237   1.247   0.248
 9356TIP3   OH228008   8.205   6.435   5.960
 9356TIP3    H128009   8.178   6.354   6.002
 9356TIP3    H228010   8.128   6.492   5.965
 9357TIP3   OH228011   1.023   6.098   2.994
 9357TIP3    H128012   0.939   6.108   2.949
 9357TIP3    H228013   1.077   6.048   2.933
 9358TIP3   OH228014   8.174   1.153   5.150
 9358TIP3    H128015   8.106   1.087   5.165
 9358TIP3    H228016   8.228   1.149   5.229
 9359TIP3   OH228017   6.594   0.809   4.486
 9359TIP3    H128018   6.662   0.818   4.419
 9359TIP3    H228019   6.634   0.841   4.566
 9360TIP3   OH228020   4.877   5.909   3.268
 9360TIP3    H128021   4.887   5.894   3.174
 9360TIP3    H228022   4.793   5.869   3.290
 9361TIP3   OH228023   1.911   6.696   0.499
 9361TIP3    H128024   1.860   6.618   0.480
 9361TIP3    H228025   1.998   6.677   0.463
 9362TIP3   OH228026   2.960   3.411   2.657
 9362TIP3    H128027   2.882   3.386   2.707
 9362TIP3    H228028   2.930   3.413   2.566
 9363TIP3   OH228029   2.811   4.226   0.300
 9363TIP3    H128030   2.729   4.182   0.324
 9363TIP3    H228031   2.854   4.243   0.384
 9364TIP3   OH228032   4.732   4.043   0.505
 9364TIP3    H128033   4.649   3.998   0.489
 9364TIP3    H228034   4.753   4.085   0.421
 9365TIP3   OH228035   4.040   7.714   2.349
 9365TIP3    H128036   4.011   7.678   2.433
 9365TIP3    H228037   3.960   7.745   2.306
 9366TIP3   OH228038   2.237   0.723   3.691
 9366TIP3    H128039   2.327   0.702   3.667
 9366TIP3    H228040   2.207   0.782   3.622
 9367TIP3   OH228041   3.856   4.348   2.583
 9367TIP3    H128042   3.896   4.386   2.505
 9367TIP3    H228043   3.909   4.380   2.656
 9368TIP3   OH228044   0.656   4.667   4.084
 9368TIP3    H128045   0.669   4.705   4.170
 9368TIP3    H228046   0.744   4.645   4.053
 9369TIP3   OH228047   7.718   3.265   6.608
 9369TIP3    H128048   7.759   3.200   6.664
 9369TIP3    H228049   7.761   3.348   6.632
 9370TIP3   OH228050   1.854   3.149   4.072
 9370TIP3    H128051   1.798   3.212   4.118
 9370TIP3    H228052   1.793   3.081   4.043
 9371TIP3   OH228053   5.367   7.476   5.953
 9371TIP3    H128054   5.368   7.421   6.031
 9371TIP3    H228055   5.345   7.417   5.881
 9372TIP3   OH228056   7.214   7.300   4.858
 9372TIP3    H128057   7.155   7.258   4.921
 9372TIP3    H228058   7.167   7.294   4.774
 9373TIP3   OH228059   7.565   4.764   2.646
 9373TIP3    H128060   7.497   4.706   2.611
 9373TIP3    H228061   7.647   4.722   2.620
 9374TIP3   OH228062   5.104   3.774   1.218
 9374TIP3    H128063   5.038   3.717   1.177
 9374TIP3    H228064   5.097   3.755   1.311
 9375TIP3   OH228065   6.407   6.521   2.073
 9375TIP3    H128066   6.405   6.567   2.157
 9375TIP3    H228067   6.433   6.588   2.010
 9376TIP3   OH228068   1.720   1.304   4.496
 9376TIP3    H128069   1.753   1.225   4.455
 9376TIP3    H228070   1.767   1.309   4.580
 9377TIP3   OH228071   1.906   1.138   0.454
 9377TIP3    H128072   1.830   1.196   0.461
 9377TIP3    H228073   1.889   1.069   0.518
 9378TIP3   OH228074   2.671   7.642   4.747
 9378TIP3    H128075   2.766   7.655   4.760
 9378TIP3    H228076   2.639   7.730   4.725
 9379TIP3   OH228077   5.647   6.936   2.221
 9379TIP3    H128078   5.638   6.921   2.127
 9379TIP3    H228079   5.714   6.874   2.249
 9380TIP3   OH228080   5.541   6.851   3.330
 9380TIP3    H128081   5.559   6.916   3.262
 9380TIP3    H228082   5.472   6.796   3.292
 9381TIP3   OH228083   2.550   2.773   6.076
 9381TIP3    H128084   2.479   2.746   6.134
 9381TIP3    H228085   2.506   2.821   6.005
 9382TIP3   OH228086   1.899   7.077   5.190
 9382TIP3    H128087   1.982   7.088   5.142
 9382TIP3    H228088   1.869   7.166   5.206
 9383TIP3   OH228089   0.302   0.935   4.232
 9383TIP3    H128090   0.265   0.968   4.314
 9383TIP3    H228091   0.382   0.986   4.220
 9384TIP3   OH228092   0.143   6.538   6.262
 9384TIP3    H128093   0.052   6.560   6.245
 9384TIP3    H228094   0.168   6.593   6.336
 9385TIP3   OH228095   8.030   4.924   4.593
 9385TIP3    H128096   7.982   4.996   4.634
 9385TIP3    H228097   8.121   4.956   4.590
 9386TIP3   OH228098   5.314   3.711   2.393
 9386TIP3    H128099   5.325   3.622   2.360
 9386TIP3    H228100   5.399   3.753   2.380
 9387TIP3   OH228101   3.225   0.984   4.907
 9387TIP3    H128102   3.206   0.916   4.971
 9387TIP3    H228103   3.281   0.941   4.843
 9388TIP3   OH228104   3.088  -0.002   2.432
 9388TIP3    H128105   3.127  -0.074   2.383
 9388TIP3    H228106   3.017  -0.042   2.481
 9389TIP3   OH228107   3.676   2.099   1.636
 9389TIP3    H128108   3.648   2.170   1.694
 9389TIP3    H228109   3.709   2.032   1.695
 9390TIP3   OH228110   7.684   7.611   2.064
 9390TIP3    H128111   7.739   7.669   2.011
 9390TIP3    H228112   7.737   7.593   2.142
 9391TIP3   OH228113   4.875   3.396   2.292
 9391TIP3    H128114   4.802   3.387   2.232
 9391TIP3    H228115   4.836   3.427   2.374
 9392TIP3   OH228116   4.732   3.436   4.154
 9392TIP3    H128117   4.759   3.356   4.110
 9392TIP3    H228118   4.760   3.424   4.245
 9393TIP3   OH228119   3.225   6.200   5.974
 9393TIP3    H128120   3.315   6.225   5.955
 9393TIP3    H228121   3.232   6.112   6.012
 9394TIP3   OH228122   5.930   4.120   6.546
 9394TIP3    H128123   5.895   4.181   6.610
 9394TIP3    H228124   5.990   4.065   6.596
 9395TIP3   OH228125   5.596   6.947   6.760
 9395TIP3    H128126   5.672   6.896   6.789
 9395TIP3    H228127   5.551   6.971   6.841
 9396TIP3   OH228128   1.202   5.858   4.665
 9396TIP3    H128129   1.124   5.810   4.693
 9396TIP3    H228130   1.238   5.806   4.593
 9397TIP3   OH228131   6.918   5.532   3.425
 9397TIP3    H128132   6.898   5.522   3.332
 9397TIP3    H228133   6.833   5.527   3.468
 9398TIP3   OH228134   3.771   0.228   6.483
 9398TIP3    H128135   3.705   0.169   6.520
 9398TIP3    H228136   3.841   0.230   6.548
 9399TIP3   OH228137   7.203   1.140   5.056
 9399TIP3    H128138   7.214   1.136   4.961
 9399TIP3    H228139   7.149   1.218   5.070
 9400TIP3   OH228140   3.520   0.875   1.810
 9400TIP3    H128141   3.511   0.955   1.759
 9400TIP3    H228142   3.592   0.892   1.870
 9401TIP3   OH228143   1.895   1.235   0.092
 9401TIP3    H128144   1.912   1.319   0.048
 9401TIP3    H228145   1.977   1.216   0.138
 9402TIP3   OH228146   5.099   6.176   2.995
 9402TIP3    H128147   5.175   6.154   3.049
 9402TIP3    H228148   5.084   6.269   3.012
 9403TIP3   OH228149   2.425   0.513   3.086
 9403TIP3    H128150   2.402   0.510   3.179
 9403TIP3    H228151   2.487   0.586   3.080
 9404TIP3   OH228152   4.528   7.534   6.557
 9404TIP3    H128153   4.465   7.465   6.535
 9404TIP3    H228154   4.475   7.614   6.561
 9405TIP3   OH228155   1.563   4.914   5.936
 9405TIP3    H128156   1.531   4.853   5.869
 9405TIP3    H228157   1.581   4.995   5.888
 9406TIP3   OH228158   7.495   0.266   6.712
 9406TIP3    H128159   7.539   0.304   6.636
 9406TIP3    H228160   7.565   0.228   6.765
 9407TIP3   OH228161   1.174   0.391   6.329
 9407TIP3    H128162   1.163   0.463   6.266
 9407TIP3    H228163   1.152   0.312   6.280
 9408TIP3   OH228164   5.839   5.988   3.865
 9408TIP3    H128165   5.816   5.991   3.772
 9408TIP3    H228166   5.910   6.051   3.875
 9409TIP3   OH228167   5.446   1.694   3.146
 9409TIP3    H128168   5.354   1.667   3.149
 9409TIP3    H228169   5.445   1.777   3.097
 9410TIP3   OH228170   5.659   7.352   1.404
 9410TIP3    H128171   5.655   7.338   1.499
 9410TIP3    H228172   5.585   7.303   1.369
 9411TIP3   OH228173   4.647   6.590   4.337
 9411TIP3    H128174   4.736   6.582   4.303
 9411TIP3    H228175   4.656   6.642   4.416
 9412TIP3   OH228176   6.610   3.297   2.801
 9412TIP3    H128177   6.612   3.334   2.889
 9412TIP3    H228178   6.517   3.300   2.776
 9413TIP3   OH228179   4.637   7.327   4.815
 9413TIP3    H128180   4.640   7.420   4.790
 9413TIP3    H228181   4.719   7.290   4.783
 9414TIP3   OH228182   6.013   5.780   3.642
 9414TIP3    H128183   6.072   5.711   3.674
 9414TIP3    H228184   5.926   5.741   3.646
 9415TIP3   OH228185   4.267   1.125   1.047
 9415TIP3    H128186   4.330   1.091   0.983
 9415TIP3    H228187   4.188   1.141   0.996
 9416TIP3   OH228188   4.063   1.395   5.286
 9416TIP3    H128189   4.016   1.337   5.226
 9416TIP3    H228190   3.999   1.462   5.309
 9417TIP3   OH228191   1.267   2.656   2.625
 9417TIP3    H128192   1.266   2.597   2.701
 9417TIP3    H228193   1.177   2.687   2.618
 9418TIP3   OH228194   2.106   2.139   2.816
 9418TIP3    H128195   2.114   2.197   2.741
 9418TIP3    H228196   2.053   2.066   2.785
 9419TIP3   OH228197   4.843   4.003   2.801
 9419TIP3    H128198   4.828   4.043   2.716
 9419TIP3    H228199   4.757   3.971   2.829
 9420TIP3   OH228200   5.115   7.650   6.161
 9420TIP3    H128201   5.175   7.576   6.157
 9420TIP3    H228202   5.169   7.726   6.142
 9421TIP3   OH228203   0.613   1.004   1.731
 9421TIP3    H128204   0.622   0.944   1.805
 9421TIP3    H228205   0.689   0.985   1.676
 9422TIP3   OH228206   4.942   0.118   6.431
 9422TIP3    H128207   4.877   0.051   6.451
 9422TIP3    H228208   5.025   0.070   6.430
 9423TIP3   OH228209   6.248   5.623   6.064
 9423TIP3    H128210   6.162   5.584   6.053
 9423TIP3    H228211   6.246   5.701   6.009
 9424TIP3   OH228212   7.797   6.004   1.463
 9424TIP3    H128213   7.867   5.963   1.411
 9424TIP3    H228214   7.841   6.034   1.542
 9425TIP3   OH228215   3.167   5.922   0.589
 9425TIP3    H128216   3.228   5.870   0.641
 9425TIP3    H228217   3.160   6.005   0.637
 9426TIP3   OH228218   1.961   0.991   6.091
 9426TIP3    H128219   1.942   0.957   6.178
 9426TIP3    H228220   1.893   1.056   6.075
 9427TIP3   OH228221   0.190   5.344   3.628
 9427TIP3    H128222   0.236   5.355   3.712
 9427TIP3    H228223   0.134   5.421   3.622
 9428TIP3   OH228224   7.314   5.222   3.761
 9428TIP3    H128225   7.340   5.131   3.744
 9428TIP3    H228226   7.280   5.253   3.677
 9429TIP3   OH228227   2.289   3.649   6.448
 9429TIP3    H128228   2.351   3.722   6.455
 9429TIP3    H228229   2.264   3.630   6.538
 9430TIP3   OH228230   4.882   2.152   0.734
 9430TIP3    H128231   4.858   2.236   0.772
 9430TIP3    H228232   4.825   2.088   0.778
 9431TIP3   OH228233   6.689   6.108   3.953
 9431TIP3    H128234   6.659   6.120   4.043
 9431TIP3    H228235   6.768   6.056   3.960
 9432TIP3   OH228236   2.378   2.168   5.283
 9432TIP3    H128237   2.289   2.201   5.269
 9432TIP3    H228238   2.373   2.123   5.368
 9433TIP3   OH228239   2.425   6.532   6.480
 9433TIP3    H128240   2.446   6.535   6.386
 9433TIP3    H228241   2.460   6.615   6.514
 9434TIP3   OH228242   6.448   5.466   2.865
 9434TIP3    H128243   6.405   5.441   2.947
 9434TIP3    H228244   6.516   5.528   2.891
 9435TIP3   OH228245   7.999   2.032   5.828
 9435TIP3    H128246   7.996   2.116   5.874
 9435TIP3    H228247   7.911   2.021   5.793
 9436TIP3   OH228248   5.869   2.356   4.293
 9436TIP3    H128249   5.867   2.385   4.202
 9436TIP3    H228250   5.917   2.425   4.339
 9437TIP3   OH228251   4.962   3.345   0.261
 9437TIP3    H128252   5.008   3.364   0.179
 9437TIP3    H228253   5.006   3.398   0.327
 9438TIP3   OH228254   5.389   3.373   6.109
 9438TIP3    H128255   5.442   3.415   6.042
 9438TIP3    H228256   5.379   3.282   6.078
 9439TIP3   OH228257   5.237   7.483   3.046
 9439TIP3    H128258   5.158   7.445   3.006
 9439TIP3    H228259   5.222   7.577   3.043
 9440TIP3   OH228260   0.863   5.684   5.929
 9440TIP3    H128261   0.840   5.593   5.909
 9440TIP3    H228262   0.863   5.727   5.844
 9441TIP3   OH228263   0.032   5.792   2.477
 9441TIP3    H128264   0.077   5.876   2.486
 9441TIP3    H228265   0.091   5.729   2.520
 9442TIP3   OH228266   7.278   6.177   0.693
 9442TIP3    H128267   7.311   6.217   0.612
 9442TIP3    H228268   7.246   6.091   0.666
 9443TIP3   OH228269   3.002   2.369   4.050
 9443TIP3    H128270   3.096   2.372   4.070
 9443TIP3    H228271   2.998   2.340   3.959
 9444TIP3   OH228272   7.759   0.185   1.028
 9444TIP3    H128273   7.759   0.152   0.938
 9444TIP3    H228274   7.697   0.257   1.028
 9445TIP3   OH228275   6.912   0.304   3.500
 9445TIP3    H128276   6.935   0.389   3.538
 9445TIP3    H228277   6.975   0.292   3.429
 9446TIP3   OH228278   1.253   1.542   2.109
 9446TIP3    H128279   1.347   1.562   2.118
 9446TIP3    H228280   1.215   1.623   2.074
 9447TIP3   OH228281   6.113   7.030   4.315
 9447TIP3    H128282   6.202   7.042   4.280
 9447TIP3    H228283   6.114   7.078   4.398
 9448TIP3   OH228284   3.615   4.354   1.458
 9448TIP3    H128285   3.674   4.341   1.384
 9448TIP3    H228286   3.564   4.273   1.462
 9449TIP3   OH228287   4.082   6.236   5.149
 9449TIP3    H128288   4.085   6.225   5.054
 9449TIP3    H228289   4.145   6.172   5.182
 9450TIP3   OH228290   0.111   3.779   3.951
 9450TIP3    H128291   0.152   3.697   3.977
 9450TIP3    H228292   0.157   3.805   3.871
 9451TIP3   OH228293   2.326   3.728   0.403
 9451TIP3    H128294   2.306   3.807   0.453
 9451TIP3    H228295   2.246   3.675   0.408
 9452TIP3   OH228296   0.953   0.460   2.577
 9452TIP3    H128297   1.039   0.432   2.547
 9452TIP3    H228298   0.970   0.535   2.634
 9453TIP3   OH228299   4.065   6.820   3.200
 9453TIP3    H128300   3.976   6.853   3.190
 9453TIP3    H228301   4.058   6.753   3.268
 9454TIP3   OH228302   2.774   7.923   6.506
 9454TIP3    H128303   2.691   7.879   6.488
 9454TIP3    H228304   2.749   8.011   6.535
 9455TIP3   OH228305   0.362   4.439   5.276
 9455TIP3    H128306   0.304   4.509   5.306
 9455TIP3    H228307   0.448   4.462   5.312
 9456TIP3   OH228308   3.451   1.998   4.024
 9456TIP3    H128309   3.471   1.915   3.980
 9456TIP3    H228310   3.475   1.983   4.115
 9457TIP3   OH228311   0.062   6.558   0.652
 9457TIP3    H128312   0.117   6.634   0.633
 9457TIP3    H228313   0.118   6.482   0.635
 9458TIP3   OH228314   7.283   1.132   1.092
 9458TIP3    H128315   7.196   1.156   1.061
 9458TIP3    H228316   7.275   1.127   1.187
 9459TIP3   OH228317   7.387   2.960   6.619
 9459TIP3    H128318   7.353   2.872   6.603
 9459TIP3    H228319   7.310   3.016   6.616
 9460TIP3   OH228320   0.956   4.162   3.165
 9460TIP3    H128321   0.862   4.182   3.162
 9460TIP3    H228322   0.968   4.092   3.101
 9461TIP3   OH228323   0.821   6.585   6.114
 9461TIP3    H128324   0.833   6.663   6.168
 9461TIP3    H228325   0.742   6.544   6.149
 9462TIP3   OH228326   2.980   6.401   3.329
 9462TIP3    H128327   2.907   6.431   3.384
 9462TIP3    H228328   2.954   6.424   3.240
 9463TIP3   OH228329   0.763  -0.007   2.492
 9463TIP3    H128330   0.833  -0.068   2.518
 9463TIP3    H228331   0.776   0.069   2.548
 9464TIP3   OH228332   1.301   7.775   2.492
 9464TIP3    H128333   1.325   7.687   2.521
 9464TIP3    H228334   1.310   7.830   2.570
 9465TIP3   OH228335   4.665   7.383   1.594
 9465TIP3    H128336   4.666   7.287   1.587
 9465TIP3    H228337   4.649   7.399   1.687
 9466TIP3   OH228338   0.924   3.803   2.476
 9466TIP3    H128339   1.005   3.789   2.428
 9466TIP3    H228340   0.886   3.883   2.439
 9467TIP3   OH228341   3.601   4.245   2.042
 9467TIP3    H128342   3.660   4.279   2.110
 9467TIP3    H228343   3.636   4.280   1.960
 9468TIP3   OH228344   3.142   7.370   0.691
 9468TIP3    H128345   3.071   7.421   0.730
 9468TIP3    H228346   3.099   7.290   0.660
 9469TIP3   OH228347   6.592   0.613   3.178
 9469TIP3    H128348   6.605   0.527   3.218
 9469TIP3    H228349   6.658   0.669   3.220
 9470TIP3   OH228350   2.996   2.549   0.444
 9470TIP3    H128351   2.946   2.513   0.370
 9470TIP3    H228352   2.946   2.625   0.472
 9471TIP3   OH228353   1.763   3.419   0.376
 9471TIP3    H128354   1.786   3.494   0.321
 9471TIP3    H228355   1.677   3.391   0.343
 9472TIP3   OH228356   4.861   5.907   6.276
 9472TIP3    H128357   4.898   5.923   6.363
 9472TIP3    H228358   4.774   5.945   6.279
 9473TIP3   OH228359   7.105   5.766   6.434
 9473TIP3    H128360   7.085   5.711   6.510
 9473TIP3    H228361   7.138   5.847   6.472
 9474TIP3   OH228362   3.542   2.902   2.276
 9474TIP3    H128363   3.500   2.973   2.226
 9474TIP3    H228364   3.607   2.866   2.215
 9475TIP3   OH228365   3.581   2.746   0.922
 9475TIP3    H128366   3.522   2.753   0.846
 9475TIP3    H228367   3.574   2.831   0.966
 9476TIP3   OH228368   6.268   0.952   0.282
 9476TIP3    H128369   6.232   0.865   0.302
 9476TIP3    H228370   6.333   0.936   0.213
 9477TIP3   OH228371   5.278   7.725   5.817
 9477TIP3    H128372   5.372   7.735   5.807
 9477TIP3    H228373   5.267   7.673   5.896
 9478TIP3   OH228374   3.145   4.346   0.304
 9478TIP3    H128375   3.135   4.253   0.287
 9478TIP3    H228376   3.235   4.355   0.337
 9479TIP3   OH228377   0.188   5.682   1.223
 9479TIP3    H128378   0.150   5.604   1.182
 9479TIP3    H228379   0.282   5.673   1.210
 9480TIP3   OH228380   0.687   5.185   5.855
 9480TIP3    H128381   0.650   5.202   5.941
 9480TIP3    H228382   0.672   5.091   5.840
 9481TIP3   OH228383   0.584   5.363   0.526
 9481TIP3    H128384   0.567   5.271   0.503
 9481TIP3    H228385   0.500   5.407   0.512
 9482TIP3   OH228386   1.699   3.675   3.784
 9482TIP3    H128387   1.715   3.672   3.879
 9482TIP3    H228388   1.785   3.666   3.745
 9483TIP3   OH228389   0.956   3.899   3.302
 9483TIP3    H128390   1.032   3.882   3.247
 9483TIP3    H228391   0.956   3.994   3.314
 9484TIP3   OH228392   1.512   3.111   6.786
 9484TIP3    H128393   1.481   3.201   6.796
 9484TIP3    H228394   1.606   3.116   6.803
 9485TIP3   OH228395   3.468   0.229   5.808
 9485TIP3    H128396   3.447   0.322   5.804
 9485TIP3    H228397   3.563   0.225   5.798
 9486TIP3   OH228398   4.857   2.737   4.659
 9486TIP3    H128399   4.916   2.671   4.695
 9486TIP3    H228400   4.770   2.696   4.662
 9487TIP3   OH228401   3.709   1.860   2.714
 9487TIP3    H128402   3.786   1.895   2.667
 9487TIP3    H228403   3.643   1.850   2.646
 9488TIP3   OH228404   1.903   0.852   6.346
 9488TIP3    H128405   1.842   0.894   6.407
 9488TIP3    H228406   1.869   0.763   6.335
 9489TIP3   OH228407   4.862   0.107   3.753
 9489TIP3    H128408   4.911   0.061   3.822
 9489TIP3    H228409   4.876   0.054   3.675
 9490TIP3   OH228410   7.888   3.853   6.361
 9490TIP3    H128411   7.911   3.932   6.411
 9490TIP3    H228412   7.964   3.795   6.373
 9491TIP3   OH228413   2.584   5.419   1.294
 9491TIP3    H128414   2.583   5.443   1.387
 9491TIP3    H228415   2.546   5.495   1.250
 9492TIP3   OH228416   1.771   0.228   1.400
 9492TIP3    H128417   1.700   0.218   1.337
 9492TIP3    H228418   1.755   0.312   1.442
 9493TIP3   OH228419   5.505   6.815   4.779
 9493TIP3    H128420   5.493   6.847   4.868
 9493TIP3    H228421   5.597   6.833   4.759
 9494TIP3   OH228422   4.766   4.756   4.150
 9494TIP3    H128423   4.724   4.670   4.147
 9494TIP3    H228424   4.850   4.741   4.192
 9495TIP3   OH228425   1.584   3.031   0.888
 9495TIP3    H128426   1.509   2.982   0.854
 9495TIP3    H228427   1.660   2.978   0.864
 9496TIP3   OH228428   4.347   3.076   5.578
 9496TIP3    H128429   4.260   3.036   5.584
 9496TIP3    H228430   4.406   3.003   5.563
 9497TIP3   OH228431   5.083   6.895   4.315
 9497TIP3    H128432   5.173   6.926   4.304
 9497TIP3    H228433   5.086   6.838   4.392
 9498TIP3   OH228434   1.796   3.199   0.096
 9498TIP3    H128435   1.701   3.206   0.101
 9498TIP3    H228436   1.823   3.175   0.185
 9499TIP3   OH228437   1.031   3.012   2.255
 9499TIP3    H128438   1.098   3.038   2.193
 9499TIP3    H228439   1.075   2.952   2.315
 9500TIP3   OH228440   3.766   2.404   5.684
 9500TIP3    H128441   3.815   2.352   5.747
 9500TIP3    H228442   3.780   2.494   5.711
 9501TIP3   OH228443   2.462   6.001   1.865
 9501TIP3    H128444   2.405   6.005   1.943
 9501TIP3    H228445   2.404   5.977   1.794
 9502TIP3   OH228446   3.679   5.513   5.934
 9502TIP3    H128447   3.629   5.454   5.878
 9502TIP3    H228448   3.616   5.545   5.999
 9503TIP3   OH228449   1.383   2.173   2.098
 9503TIP3    H128450   1.431   2.096   2.067
 9503TIP3    H228451   1.295   2.162   2.063
 9504TIP3   OH228452   1.752   3.708   4.839
 9504TIP3    H128453   1.749   3.624   4.795
 9504TIP3    H228454   1.783   3.689   4.927
 9505TIP3   OH228455   0.541   2.307   3.867
 9505TIP3    H128456   0.550   2.267   3.954
 9505TIP3    H228457   0.622   2.283   3.822
 9506TIP3   OH228458   3.442   3.031   0.356
 9506TIP3    H128459   3.479   3.040   0.268
 9506TIP3    H228460   3.420   3.121   0.381
 9507TIP3   OH228461   1.217   6.104   3.746
 9507TIP3    H128462   1.309   6.113   3.721
 9507TIP3    H228463   1.188   6.026   3.698
 9508TIP3   OH228464   6.994   0.660   1.675
 9508TIP3    H128465   6.934   0.734   1.686
 9508TIP3    H228466   6.937   0.583   1.684
 9509TIP3   OH228467   7.971   0.577   4.345
 9509TIP3    H128468   7.963   0.624   4.262
 9509TIP3    H228469   8.022   0.499   4.324
 9510TIP3   OH228470   3.421   0.338   3.477
 9510TIP3    H128471   3.413   0.246   3.500
 9510TIP3    H228472   3.347   0.355   3.419
 9511TIP3   OH228473   0.712   5.990   2.650
 9511TIP3    H128474   0.731   5.979   2.557
 9511TIP3    H228475   0.622   6.023   2.652
 9512TIP3   OH228476   3.935   3.383   2.853
 9512TIP3    H128477   3.901   3.470   2.874
 9512TIP3    H228478   3.888   3.325   2.913
 9513TIP3   OH228479   1.672   1.327   5.370
 9513TIP3    H128480   1.668   1.231   5.376
 9513TIP3    H228481   1.629   1.357   5.450
 9514TIP3   OH228482   4.761   6.388   1.282
 9514TIP3    H128483   4.799   6.311   1.323
 9514TIP3    H228484   4.670   6.389   1.312
 9515TIP3   OH228485   4.787   1.813   0.003
 9515TIP3    H128486   4.805   1.719   0.001
 9515TIP3    H228487   4.799   1.838   0.094
 9516TIP3   OH228488   6.592   4.104   2.822
 9516TIP3    H128489   6.576   4.071   2.734
 9516TIP3    H228490   6.671   4.158   2.813
 9517TIP3   OH228491   5.109   5.583   2.939
 9517TIP3    H128492   5.058   5.512   2.978
 9517TIP3    H228493   5.191   5.541   2.914
 9518TIP3   OH228494   5.547   1.141   5.674
 9518TIP3    H128495   5.549   1.066   5.615
 9518TIP3    H228496   5.638   1.168   5.682
 9519TIP3   OH228497   0.572   0.926   0.687
 9519TIP3    H128498   0.662   0.894   0.686
 9519TIP3    H228499   0.519   0.848   0.704
 9520TIP3   OH228500   2.002   4.068   3.101
 9520TIP3    H128501   1.982   4.162   3.099
 9520TIP3    H228502   2.001   4.046   3.194
 9521TIP3   OH228503   6.567   6.727   5.696
 9521TIP3    H128504   6.484   6.764   5.727
 9521TIP3    H228505   6.547   6.634   5.681
 9522TIP3   OH228506   4.449   2.149   4.822
 9522TIP3    H128507   4.499   2.085   4.771
 9522TIP3    H228508   4.410   2.098   4.893
 9523TIP3   OH228509   2.404   2.784   2.707
 9523TIP3    H128510   2.323   2.784   2.757
 9523TIP3    H228511   2.446   2.868   2.728
 9524TIP3   OH228512   7.314   0.649   1.369
 9524TIP3    H128513   7.339   0.704   1.295
 9524TIP3    H228514   7.342   0.698   1.446
 9525TIP3   OH228515   1.083   7.239   5.924
 9525TIP3    H128516   1.134   7.298   5.868
 9525TIP3    H228517   1.024   7.297   5.972
 9526TIP3   OH228518   1.982   5.643   2.309
 9526TIP3    H128519   1.905   5.591   2.289
 9526TIP3    H228520   2.008   5.615   2.397
 9527TIP3   OH228521   2.262   3.323   0.903
 9527TIP3    H128522   2.332   3.309   0.967
 9527TIP3    H228523   2.292   3.399   0.852
 9528TIP3   OH228524   2.194   1.235   3.446
 9528TIP3    H128525   2.158   1.287   3.375
 9528TIP3    H228526   2.253   1.295   3.492
 9529TIP3   OH228527   6.738   4.532   4.147
 9529TIP3    H128528   6.753   4.571   4.233
 9529TIP3    H228529   6.823   4.496   4.122
 9530TIP3   OH228530   0.171   5.213   1.501
 9530TIP3    H128531   0.087   5.259   1.509
 9530TIP3    H228532   0.198   5.228   1.410
 9531TIP3   OH228533   5.869   0.736   3.121
 9531TIP3    H128534   5.839   0.826   3.133
 9531TIP3    H228535   5.952   0.731   3.168
 9532TIP3   OH228536   2.820   0.581   4.966
 9532TIP3    H128537   2.739   0.598   4.918
 9532TIP3    H228538   2.857   0.668   4.983
 9533TIP3   OH228539   0.736   3.962   6.599
 9533TIP3    H128540   0.734   3.876   6.641
 9533TIP3    H228541   0.825   3.993   6.613
 9534TIP3   OH228542   3.572   0.480   4.157
 9534TIP3    H128543   3.574   0.575   4.168
 9534TIP3    H228544   3.664   0.454   4.163
 9535TIP3   OH228545   8.294   0.146   1.626
 9535TIP3    H128546   8.330   0.133   1.714
 9535TIP3    H228547   8.339   0.224   1.594
 9536TIP3   OH228548   7.960   7.117   4.238
 9536TIP3    H128549   8.009   7.072   4.169
 9536TIP3    H228550   7.868   7.095   4.221
 9537TIP3   OH228551   6.178   1.758   1.164
 9537TIP3    H128552   6.190   1.726   1.075
 9537TIP3    H228553   6.226   1.696   1.219
 9538TIP3   OH228554   3.938   5.819   0.412
 9538TIP3    H128555   4.025   5.852   0.437
 9538TIP3    H228556   3.948   5.793   0.321
 9539TIP3   OH228557   3.922   6.116   3.208
 9539TIP3    H128558   3.970   6.134   3.127
 9539TIP3    H228559   3.850   6.178   3.208
 9540TIP3   OH228560   1.912   7.692   2.427
 9540TIP3    H128561   1.871   7.724   2.508
 9540TIP3    H228562   1.841   7.653   2.377
 9541TIP3   OH228563   0.436   2.039   3.479
 9541TIP3    H128564   0.414   1.979   3.550
 9541TIP3    H228565   0.352   2.067   3.444
 9542TIP3   OH228566   5.882   2.529   4.085
 9542TIP3    H128567   5.808   2.589   4.089
 9542TIP3    H228568   5.873   2.485   4.001
 9543TIP3   OH228569   0.002   7.594   5.691
 9543TIP3    H128570   0.051   7.520   5.654
 9543TIP3    H228571   0.051   7.671   5.664
 9544TIP3   OH228572   0.196   7.780   3.921
 9544TIP3    H128573   0.262   7.813   3.983
 9544TIP3    H228574   0.193   7.686   3.937
 9545TIP3   OH228575   4.155   7.667   1.830
 9545TIP3    H128576   4.121   7.627   1.911
 9545TIP3    H228577   4.111   7.619   1.760
 9546TIP3   OH228578   3.032   0.638   2.475
 9546TIP3    H128579   2.948   0.591   2.472
 9546TIP3    H228580   3.032   0.690   2.394
 9547TIP3   OH228581   6.899   6.544   4.527
 9547TIP3    H128582   6.891   6.465   4.473
 9547TIP3    H228583   6.972   6.525   4.586
 9548TIP3   OH228584   2.650   7.405   5.642
 9548TIP3    H128585   2.607   7.384   5.559
 9548TIP3    H228586   2.636   7.328   5.697
 9549TIP3   OH228587   2.151   1.891   3.357
 9549TIP3    H128588   2.111   1.876   3.443
 9549TIP3    H228589   2.243   1.870   3.370
 9550TIP3   OH228590   0.855   6.286   6.699
 9550TIP3    H128591   0.935   6.260   6.652
 9550TIP3    H228592   0.871   6.377   6.724
 9551TIP3   OH228593   1.786   1.418   1.699
 9551TIP3    H128594   1.838   1.377   1.768
 9551TIP3    H228595   1.707   1.364   1.693
 9552TIP3   OH228596   0.562   0.253   0.814
 9552TIP3    H128597   0.651   0.275   0.788
 9552TIP3    H228598   0.508   0.320   0.774
 9553TIP3   OH228599   7.080   1.679   4.235
 9553TIP3    H128600   7.008   1.651   4.292
 9553TIP3    H228601   7.123   1.750   4.283
 9554TIP3   OH228602   5.993   3.209   1.356
 9554TIP3    H128603   6.010   3.121   1.387
 9554TIP3    H228604   5.903   3.228   1.384
 9555TIP3   OH228605   2.803   7.020   4.096
 9555TIP3    H128606   2.742   7.093   4.100
 9555TIP3    H228607   2.890   7.060   4.096
 9556TIP3   OH228608   6.636   6.543   0.216
 9556TIP3    H128609   6.589   6.579   0.291
 9556TIP3    H228610   6.723   6.581   0.222
 9557TIP3   OH228611   4.328   2.458   1.353
 9557TIP3    H128612   4.251   2.424   1.307
 9557TIP3    H228613   4.390   2.479   1.283
 9558TIP3   OH228614   3.096   5.244   4.361
 9558TIP3    H128615   3.118   5.152   4.349
 9558TIP3    H228616   3.057   5.249   4.448
 9559TIP3   OH228617   4.384   3.131   6.032
 9559TIP3    H128618   4.309   3.098   5.982
 9559TIP3    H228619   4.381   3.226   6.021
 9560TIP3   OH228620   8.001   3.797   3.663
 9560TIP3    H128621   7.906   3.795   3.658
 9560TIP3    H228622   8.021   3.876   3.715
 9561TIP3   OH228623   7.037   4.552   6.528
 9561TIP3    H128624   7.065   4.589   6.445
 9561TIP3    H228625   7.063   4.618   6.593
 9562TIP3   OH228626   2.701   2.333   6.500
 9562TIP3    H128627   2.780   2.360   6.546
 9562TIP3    H228628   2.732   2.304   6.414
 9563TIP3   OH228629   2.091   3.195   3.681
 9563TIP3    H128630   2.115   3.135   3.752
 9563TIP3    H228631   2.042   3.140   3.619
 9564TIP3   OH228632   0.477   0.808   3.195
 9564TIP3    H128633   0.532   0.770   3.264
 9564TIP3    H228634   0.390   0.773   3.211
 9565TIP3   OH228635   0.103   2.370   1.935
 9565TIP3    H128636   0.143   2.291   1.971
 9565TIP3    H228637   0.169   2.406   1.876
 9566TIP3   OH228638   3.640   3.470   3.943
 9566TIP3    H128639   3.637   3.403   4.012
 9566TIP3    H228640   3.718   3.450   3.892
 9567TIP3   OH228641   0.582   5.124   2.916
 9567TIP3    H128642   0.674   5.151   2.910
 9567TIP3    H228643   0.578   5.071   2.996
 9568TIP3   OH228644   6.146   6.700   0.953
 9568TIP3    H128645   6.233   6.734   0.977
 9568TIP3    H228646   6.164   6.611   0.920
 9569TIP3   OH228647   2.517   3.578   2.625
 9569TIP3    H128648   2.468   3.531   2.692
 9569TIP3    H228649   2.473   3.557   2.543
 9570TIP3   OH228650   7.269   4.003   3.240
 9570TIP3    H128651   7.210   4.047   3.179
 9570TIP3    H228652   7.294   3.922   3.195
 9571TIP3   OH228653   1.659   5.861   5.650
 9571TIP3    H128654   1.726   5.793   5.652
 9571TIP3    H228655   1.674   5.907   5.567
 9572TIP3   OH228656   3.645   4.489   4.083
 9572TIP3    H128657   3.625   4.437   4.005
 9572TIP3    H228658   3.704   4.434   4.135
 9573TIP3   OH228659   3.179   3.168   6.637
 9573TIP3    H128660   3.108   3.218   6.677
 9573TIP3    H228661   3.199   3.099   6.700
 9574TIP3   OH228662   1.499   2.461   4.286
 9574TIP3    H128663   1.567   2.397   4.265
 9574TIP3    H228664   1.419   2.408   4.295
 9575TIP3   OH228665   4.725   4.538   2.658
 9575TIP3    H128666   4.668   4.498   2.724
 9575TIP3    H228667   4.794   4.581   2.709
 9576TIP3   OH228668   8.342   5.106   4.271
 9576TIP3    H128669   8.248   5.091   4.284
 9576TIP3    H228670   8.360   5.185   4.321
 9577TIP3   OH228671   4.053   3.414   6.435
 9577TIP3    H128672   3.997   3.417   6.357
 9577TIP3    H228673   4.060   3.321   6.455
 9578TIP3   OH228674   1.158   6.102   4.778
 9578TIP3    H128675   1.214   6.169   4.738
 9578TIP3    H228676   1.190   6.019   4.742
 9579TIP3   OH228677   7.623   2.402   3.450
 9579TIP3    H128678   7.601   2.465   3.382
 9579TIP3    H228679   7.539   2.369   3.481
 9580TIP3   OH228680   1.728   4.967   3.344
 9580TIP3    H128681   1.759   4.929   3.426
 9580TIP3    H228682   1.646   4.922   3.325
 9581TIP3   OH228683   6.669   3.920   2.445
 9581TIP3    H128684   6.598   3.856   2.453
 9581TIP3    H228685   6.700   3.910   2.355
 9582TIP3   OH228686   2.517   5.044   6.577
 9582TIP3    H128687   2.608   5.072   6.587
 9582TIP3    H228688   2.514   4.958   6.618
 9583TIP3   OH228689   5.240   3.861   4.874
 9583TIP3    H128690   5.151   3.886   4.852
 9583TIP3    H228691   5.238   3.765   4.878
 9584TIP3   OH228692   0.847   7.169   4.320
 9584TIP3    H128693   0.780   7.111   4.355
 9584TIP3    H228694   0.802   7.223   4.256
 9585TIP3   OH228695   4.187   0.377   1.383
 9585TIP3    H128696   4.114   0.408   1.438
 9585TIP3    H228697   4.252   0.446   1.388
 9586TIP3   OH228698   1.131   2.075   5.993
 9586TIP3    H128699   1.153   1.997   6.044
 9586TIP3    H228700   1.169   2.058   5.906
 9587TIP3   OH228701   4.092   6.544   4.726
 9587TIP3    H128702   4.185   6.553   4.705
 9587TIP3    H228703   4.070   6.623   4.774
 9588TIP3   OH228704   6.089   2.314   3.925
 9588TIP3    H128705   6.001   2.332   3.892
 9588TIP3    H228706   6.140   2.390   3.898
 9589TIP3   OH228707   3.203   1.912   0.803
 9589TIP3    H128708   3.180   2.003   0.818
 9589TIP3    H228709   3.133   1.877   0.748
 9590TIP3   OH228710   3.477   1.214   2.059
 9590TIP3    H128711   3.552   1.237   2.005
 9590TIP3    H228712   3.487   1.268   2.138
 9591TIP3   OH228713   3.427   1.160   4.115
 9591TIP3    H128714   3.349   1.106   4.105
 9591TIP3    H228715   3.419   1.196   4.204
 9592TIP3   OH228716   2.654   5.145   6.866
 9592TIP3    H128717   2.695   5.061   6.887
 9592TIP3    H228718   2.586   5.123   6.803
 9593TIP3   OH228719   0.481   3.669   3.289
 9593TIP3    H128720   0.390   3.645   3.276
 9593TIP3    H228721   0.492   3.749   3.236
 9594TIP3   OH228722   2.034   3.534   3.992
 9594TIP3    H128723   2.110   3.524   3.935
 9594TIP3    H228724   1.968   3.475   3.955
 9595TIP3   OH228725   6.704   6.738   1.376
 9595TIP3    H128726   6.623   6.706   1.336
 9595TIP3    H228727   6.696   6.833   1.373
 9596TIP3   OH228728   7.612   3.805   0.947
 9596TIP3    H128729   7.607   3.884   1.000
 9596TIP3    H228730   7.526   3.764   0.957
 9597TIP3   OH228731   3.567   1.186   0.018
 9597TIP3    H128732   3.478   1.160   0.039
 9597TIP3    H228733   3.618   1.105   0.020
 9598TIP3   OH228734   2.340   2.778   1.424
 9598TIP3    H128735   2.260   2.779   1.476
 9598TIP3    H228736   2.327   2.846   1.358
 9599TIP3   OH228737   7.576   1.063   6.098
 9599TIP3    H128738   7.543   0.989   6.149
 9599TIP3    H228739   7.655   1.030   6.055
 9600TIP3   OH228740   7.310   1.136   3.239
 9600TIP3    H128741   7.215   1.146   3.250
 9600TIP3    H228742   7.330   1.052   3.281
 9601TIP3   OH228743   7.018   1.036   4.592
 9601TIP3    H128744   7.082   0.965   4.587
 9601TIP3    H228745   7.005   1.064   4.501
 9602TIP3   OH228746   4.196   5.927   0.545
 9602TIP3    H128747   4.146   5.935   0.626
 9602TIP3    H228748   4.256   5.854   0.561
 9603TIP3   OH228749   4.148   4.362   1.124
 9603TIP3    H128750   4.228   4.352   1.073
 9603TIP3    H228751   4.137   4.278   1.169
 9604TIP3   OH228752   0.025   3.856   5.064
 9604TIP3    H128753   0.091   3.857   5.133
 9604TIP3    H228754   0.001   3.948   5.052
 9605TIP3   OH228755   8.341   7.549   3.017
 9605TIP3    H128756   8.403   7.577   3.084
 9605TIP3    H228757   8.356   7.455   3.008
 9606TIP3   OH228758   7.230   0.475   3.946
 9606TIP3    H128759   7.303   0.430   3.903
 9606TIP3    H228760   7.172   0.404   3.974
 9607TIP3   OH228761   2.855   4.614   4.195
 9607TIP3    H128762   2.790   4.683   4.211
 9607TIP3    H228763   2.937   4.662   4.181
 9608TIP3   OH228764   7.192   4.566   5.559
 9608TIP3    H128765   7.200   4.659   5.537
 9608TIP3    H228766   7.276   4.528   5.533
 9609TIP3   OH228767   7.186   3.084   1.190
 9609TIP3    H128768   7.138   3.164   1.208
 9609TIP3    H228769   7.161   3.024   1.260
 9610TIP3   OH228770   1.506   4.467   5.455
 9610TIP3    H128771   1.574   4.427   5.509
 9610TIP3    H228772   1.553   4.521   5.392
 9611TIP3   OH228773   7.042   0.380   2.541
 9611TIP3    H128774   7.021   0.311   2.604
 9611TIP3    H228775   6.967   0.382   2.481
 9612TIP3   OH228776   8.034   6.382   4.517
 9612TIP3    H128777   7.991   6.310   4.471
 9612TIP3    H228778   8.102   6.341   4.570
 9613TIP3   OH228779   3.919   1.608   2.233
 9613TIP3    H128780   3.888   1.678   2.290
 9613TIP3    H228781   3.971   1.552   2.291
 9614TIP3   OH228782   4.933   1.554   3.932
 9614TIP3    H128783   4.980   1.473   3.950
 9614TIP3    H228784   4.843   1.526   3.913
 9615TIP3   OH228785   5.303   2.464   2.200
 9615TIP3    H128786   5.306   2.414   2.118
 9615TIP3    H228787   5.392   2.496   2.212
 9616TIP3   OH228788   0.905   4.363   0.859
 9616TIP3    H128789   0.902   4.293   0.793
 9616TIP3    H228790   0.906   4.444   0.807
 9617TIP3   OH228791   4.605   6.776   6.680
 9617TIP3    H128792   4.661   6.843   6.720
 9617TIP3    H228793   4.666   6.716   6.636
 9618TIP3   OH228794   7.117   6.176   0.998
 9618TIP3    H128795   7.093   6.240   0.931
 9618TIP3    H228796   7.200   6.138   0.968
 9619TIP3   OH228797   1.331   6.344   0.772
 9619TIP3    H128798   1.376   6.403   0.712
 9619TIP3    H228799   1.272   6.400   0.821
 9620TIP3   OH228800   0.767   2.250   5.405
 9620TIP3    H128801   0.695   2.247   5.341
 9620TIP3    H228802   0.776   2.159   5.434
 9621TIP3   OH228803   1.385   7.176   0.512
 9621TIP3    H128804   1.297   7.176   0.549
 9621TIP3    H228805   1.381   7.240   0.441
 9622TIP3   OH228806   3.600   6.996   4.143
 9622TIP3    H128807   3.552   6.918   4.113
 9622TIP3    H228808   3.618   7.044   4.063
 9623TIP3   OH228809   3.414   3.229   0.615
 9623TIP3    H128810   3.469   3.160   0.651
 9623TIP3    H228811   3.330   3.186   0.599
 9624TIP3   OH228812   2.036   4.450   2.331
 9624TIP3    H128813   2.026   4.544   2.315
 9624TIP3    H228814   1.950   4.423   2.362
 9625TIP3   OH228815   2.300   5.226   4.758
 9625TIP3    H128816   2.238   5.299   4.761
 9625TIP3    H228817   2.379   5.258   4.801
 9626TIP3   OH228818   7.795   1.455   1.332
 9626TIP3    H128819   7.802   1.524   1.267
 9626TIP3    H228820   7.776   1.376   1.282
 9627TIP3   OH228821   5.770   3.011   0.930
 9627TIP3    H128822   5.856   2.973   0.914
 9627TIP3    H228823   5.763   3.082   0.866
 9628TIP3   OH228824   0.141   5.747   0.782
 9628TIP3    H128825   0.070   5.699   0.824
 9628TIP3    H228826   0.105   5.775   0.698
 9629TIP3   OH228827   5.620   6.447   6.355
 9629TIP3    H128828   5.665   6.390   6.292
 9629TIP3    H228829   5.543   6.479   6.308
 9630TIP3   OH228830   0.795   4.391   1.771
 9630TIP3    H128831   0.796   4.480   1.806
 9630TIP3    H228832   0.705   4.361   1.783
 9631TIP3   OH228833   4.264   6.248   2.551
 9631TIP3    H128834   4.324   6.195   2.499
 9631TIP3    H228835   4.287   6.229   2.641
 9632TIP3   OH228836   3.115   0.894   2.559
 9632TIP3    H128837   3.110   0.804   2.528
 9632TIP3    H228838   3.025   0.917   2.581
 9633TIP3   OH228839   2.750   6.903   3.682
 9633TIP3    H128840   2.709   6.883   3.766
 9633TIP3    H228841   2.818   6.967   3.704
 9634TIP3   OH228842   5.447   4.918   2.098
 9634TIP3    H128843   5.404   4.997   2.064
 9634TIP3    H228844   5.528   4.911   2.048
 9635TIP3   OH228845   3.130   3.468   0.423
 9635TIP3    H128846   3.123   3.562   0.404
 9635TIP3    H228847   3.047   3.431   0.395
 9636TIP3   OH228848   3.476   6.376   4.782
 9636TIP3    H128849   3.384   6.356   4.798
 9636TIP3    H228850   3.501   6.432   4.856
 9637TIP3   OH228851   7.228   6.916   5.942
 9637TIP3    H128852   7.301   6.947   5.996
 9637TIP3    H228853   7.158   6.898   6.004
 9638TIP3   OH228854   2.693   5.679   4.079
 9638TIP3    H128855   2.761   5.701   4.142
 9638TIP3    H228856   2.696   5.750   4.015
 9639TIP3   OH228857   4.807   2.853   3.288
 9639TIP3    H128858   4.825   2.811   3.204
 9639TIP3    H228859   4.834   2.944   3.275
 9640TIP3   OH228860   8.095   2.200   3.621
 9640TIP3    H128861   8.004   2.226   3.635
 9640TIP3    H228862   8.145   2.281   3.636
 9641TIP3   OH228863   2.984   2.352   5.573
 9641TIP3    H128864   2.936   2.430   5.600
 9641TIP3    H228865   2.937   2.280   5.615
 9642TIP3   OH228866   3.060   0.791   1.430
 9642TIP3    H128867   3.136   0.740   1.400
 9642TIP3    H228868   3.077   0.879   1.397
 9643TIP3   OH228869   4.417   0.437   4.044
 9643TIP3    H128870   4.493   0.495   4.033
 9643TIP3    H228871   4.372   0.472   4.121
 9644TIP3   OH228872   4.838   0.699   1.942
 9644TIP3    H128873   4.924   0.659   1.931
 9644TIP3    H228874   4.849   0.760   2.015
 9645TIP3   OH228875   5.256   6.819   2.047
 9645TIP3    H128876   5.171   6.858   2.063
 9645TIP3    H228877   5.310   6.848   2.121
 9646TIP3   OH228878   2.734   4.091   6.526
 9646TIP3    H128879   2.755   4.000   6.506
 9646TIP3    H228880   2.813   4.140   6.504
 9647TIP3   OH228881   6.902   1.717   3.169
 9647TIP3    H128882   6.822   1.664   3.169
 9647TIP3    H228883   6.877   1.799   3.211
 9648TIP3   OH228884   7.507   7.539   2.237
 9648TIP3    H128885   7.546   7.594   2.305
 9648TIP3    H228886   7.559   7.559   2.159
 9649TIP3   OH228887   5.540   1.060   3.192
 9649TIP3    H128888   5.579   1.024   3.271
 9649TIP3    H228889   5.501   0.984   3.148
 9650TIP3   OH228890   8.309   2.067   3.959
 9650TIP3    H128891   8.305   2.145   4.014
 9650TIP3    H228892   8.330   1.995   4.019
 9651TIP3   OH228893   5.540   0.800   5.771
 9651TIP3    H128894   5.605   0.870   5.775
 9651TIP3    H228895   5.465   0.839   5.725
 9652TIP3   OH228896   0.008   1.940   5.405
 9652TIP3    H128897   0.004   1.986   5.321
 9652TIP3    H228898  -0.075   1.893   5.411
 9653TIP3   OH228899   8.176   4.787   0.592
 9653TIP3    H128900   8.143   4.725   0.528
 9653TIP3    H228901   8.209   4.733   0.664
 9654TIP3   OH228902   1.433   5.661   5.740
 9654TIP3    H128903   1.502   5.712   5.782
 9654TIP3    H228904   1.363   5.658   5.805
 9655TIP3   OH228905   3.535   6.538   3.771
 9655TIP3    H128906   3.582   6.567   3.849
 9655TIP3    H228907   3.500   6.452   3.794
 9656TIP3   OH228908   3.515   7.604   5.217
 9656TIP3    H128909   3.475   7.587   5.302
 9656TIP3    H228910   3.497   7.526   5.165
 9657TIP3   OH228911   7.686   6.606   3.495
 9657TIP3    H128912   7.637   6.600   3.577
 9657TIP3    H228913   7.646   6.679   3.448
 9658TIP3   OH228914   4.504   7.677   6.846
 9658TIP3    H128915   4.453   7.645   6.773
 9658TIP3    H228916   4.468   7.764   6.865
 9659TIP3   OH228917   3.726   0.269   4.269
 9659TIP3    H128918   3.747   0.334   4.336
 9659TIP3    H228919   3.719   0.186   4.317
 9660TIP3   OH228920   0.655   0.966   6.457
 9660TIP3    H128921   0.726   0.987   6.517
 9660TIP3    H228922   0.633   1.049   6.415
 9661TIP3   OH228923   5.166   3.898   6.496
 9661TIP3    H128924   5.096   3.962   6.486
 9661TIP3    H228925   5.217   3.904   6.415
 9662TIP3   OH228926   0.206   1.212   2.459
 9662TIP3    H128927   0.236   1.206   2.550
 9662TIP3    H228928   0.118   1.174   2.460
 9663TIP3   OH228929   5.691   3.343   4.257
 9663TIP3    H128930   5.620   3.405   4.242
 9663TIP3    H228931   5.684   3.281   4.184
 9664TIP3   OH228932   2.348   1.483   6.167
 9664TIP3    H128933   2.315   1.405   6.123
 9664TIP3    H228934   2.428   1.505   6.120
 9665TIP3   OH228935   4.393   0.575   5.524
 9665TIP3    H128936   4.434   0.493   5.497
 9665TIP3    H228937   4.462   0.640   5.519
 9666TIP3   OH228938   0.576   7.238   3.806
 9666TIP3    H128939   0.585   7.175   3.877
 9666TIP3    H228940   0.492   7.280   3.822
 9667TIP3   OH228941   7.234   4.155   1.929
 9667TIP3    H128942   7.242   4.251   1.935
 9667TIP3    H228943   7.205   4.128   2.016
 9668TIP3   OH228944   1.895   5.413   2.182
 9668TIP3    H128945   1.912   5.463   2.103
 9668TIP3    H228946   1.926   5.324   2.162
 9669TIP3   OH228947   0.293   3.528   5.972
 9669TIP3    H128948   0.262   3.458   5.915
 9669TIP3    H228949   0.374   3.494   6.010
 9670TIP3   OH228950   6.703   4.864   2.618
 9670TIP3    H128951   6.780   4.833   2.570
 9670TIP3    H228952   6.656   4.784   2.642
 9671TIP3   OH228953   1.748   5.445   2.410
 9671TIP3    H128954   1.764   5.400   2.493
 9671TIP3    H228955   1.829   5.432   2.360
 9672TIP3   OH228956   0.313   0.958   6.806
 9672TIP3    H128957   0.300   0.867   6.781
 9672TIP3    H228958   0.256   1.008   6.747
 9673TIP3   OH228959   5.645   0.431   2.875
 9673TIP3    H128960   5.644   0.363   2.942
 9673TIP3    H228961   5.714   0.402   2.814
 9674TIP3   OH228962  -0.006   7.779   4.542
 9674TIP3    H128963   0.056   7.849   4.522
 9674TIP3    H228964  -0.037   7.750   4.456
 9675TIP3   OH228965   6.178   2.650   5.338
 9675TIP3    H128966   6.226   2.630   5.258
 9675TIP3    H228967   6.100   2.594   5.334
 9676TIP3   OH228968   4.716   2.722   2.608
 9676TIP3    H128969   4.739   2.629   2.608
 9676TIP3    H228970   4.758   2.756   2.529
 9677TIP3   OH228971   7.614   5.781   0.617
 9677TIP3    H128972   7.535   5.806   0.664
 9677TIP3    H228973   7.596   5.692   0.586
 9678TIP3   OH228974   7.776   0.739   1.958
 9678TIP3    H128975   7.777   0.772   2.048
 9678TIP3    H228976   7.716   0.665   1.960
 9679TIP3   OH228977   0.645   2.610   4.546
 9679TIP3    H128978   0.734   2.619   4.582
 9679TIP3    H228979   0.627   2.516   4.551
 9680TIP3   OH228980   2.696   7.284   0.161
 9680TIP3    H128981   2.620   7.228   0.144
 9680TIP3    H228982   2.660   7.360   0.206
 9681TIP3   OH228983   8.366   2.359   2.313
 9681TIP3    H128984   8.393   2.268   2.322
 9681TIP3    H228985   8.325   2.364   2.227
 9682TIP3   OH228986   1.635   4.305   4.862
 9682TIP3    H128987   1.604   4.216   4.871
 9682TIP3    H228988   1.556   4.359   4.867
 9683TIP3   OH228989   3.688   0.306   5.470
 9683TIP3    H128990   3.651   0.380   5.421
 9683TIP3    H228991   3.782   0.323   5.472
 9684TIP3   OH228992   5.209   2.660   0.030
 9684TIP3    H128993   5.285   2.641   0.086
 9684TIP3    H228994   5.133   2.645   0.086
 9685TIP3   OH228995   2.765   4.436   4.744
 9685TIP3    H128996   2.800   4.505   4.688
 9685TIP3    H228997   2.839   4.378   4.761
 9686TIP3   OH228998   8.222   4.496   5.998
 9686TIP3    H128999   8.171   4.572   6.027
 9686TIP3    H229000   8.224   4.503   5.903
 9687TIP3   OH229001   3.470   7.019   0.598
 9687TIP3    H129002   3.510   6.993   0.515
 9687TIP3    H229003   3.377   7.029   0.579
 9688TIP3   OH229004   3.864   7.557   0.652
 9688TIP3    H129005   3.853   7.646   0.686
 9688TIP3    H229006   3.954   7.554   0.620
 9689TIP3   OH229007   1.907   7.548   1.882
 9689TIP3    H129008   1.908   7.488   1.807
 9689TIP3    H229009   1.976   7.515   1.939
 9690TIP3   OH229010   2.857   6.554   0.355
 9690TIP3    H129011   2.950   6.574   0.339
 9690TIP3    H229012   2.816   6.639   0.366
 9691TIP3   OH229013   3.724   5.564   1.721
 9691TIP3    H129014   3.632   5.550   1.745
 9691TIP3    H229015   3.767   5.585   1.804
 9692TIP3   OH229016   0.130   1.365   1.103
 9692TIP3    H129017   0.077   1.291   1.074
 9692TIP3    H229018   0.218   1.345   1.073
 9693TIP3   OH229019   4.727   3.202   2.482
 9693TIP3    H129020   4.754   3.138   2.417
 9693TIP3    H229021   4.631   3.200   2.480
 9694TIP3   OH229022   4.662   0.695   6.147
 9694TIP3    H129023   4.699   0.630   6.087
 9694TIP3    H229024   4.696   0.669   6.233
 9695TIP3   OH229025   7.485   0.418   2.696
 9695TIP3    H129026   7.413   0.362   2.727
 9695TIP3    H229027   7.484   0.408   2.601
 9696TIP3   OH229028   3.720   3.803   0.657
 9696TIP3    H129029   3.781   3.796   0.583
 9696TIP3    H229030   3.697   3.713   0.679
 9697TIP3   OH229031   8.073   3.097   1.227
 9697TIP3    H129032   8.119   3.178   1.205
 9697TIP3    H229033   8.136   3.048   1.280
 9698TIP3   OH229034   5.116   0.644   2.023
 9698TIP3    H129035   5.159   0.680   1.946
 9698TIP3    H229036   5.173   0.667   2.096
 9699TIP3   OH229037   6.434   5.860   6.329
 9699TIP3    H129038   6.452   5.766   6.325
 9699TIP3    H229039   6.374   5.876   6.256
 9700TIP3   OH229040   1.577   2.415   2.454
 9700TIP3    H129041   1.548   2.481   2.518
 9700TIP3    H229042   1.539   2.333   2.486
 9701TIP3   OH229043   2.608   2.274   6.142
 9701TIP3    H129044   2.651   2.206   6.090
 9701TIP3    H229045   2.517   2.246   6.147
 9702TIP3   OH229046   3.333   3.919   4.325
 9702TIP3    H129047   3.368   3.885   4.407
 9702TIP3    H229048   3.320   4.013   4.341
 9703TIP3   OH229049   7.491   7.322   4.961
 9703TIP3    H129050   7.479   7.374   5.041
 9703TIP3    H229051   7.415   7.342   4.908
 9704TIP3   OH229052   6.199   7.011   5.875
 9704TIP3    H129053   6.131   7.017   5.941
 9704TIP3    H229054   6.159   7.047   5.796
 9705TIP3   OH229055   4.272   4.800   0.252
 9705TIP3    H129056   4.263   4.727   0.312
 9705TIP3    H229057   4.360   4.834   0.269
 9706TIP3   OH229058   2.723   6.143   2.642
 9706TIP3    H129059   2.747   6.117   2.732
 9706TIP3    H229060   2.750   6.234   2.636
 9707TIP3   OH229061   0.367   6.038   4.966
 9707TIP3    H129062   0.399   5.988   4.891
 9707TIP3    H229063   0.446   6.061   5.016
 9708TIP3   OH229064   4.927   2.486   5.042
 9708TIP3    H129065   4.863   2.416   5.031
 9708TIP3    H229066   4.887   2.547   5.104
 9709TIP3   OH229067   2.807   2.260   2.232
 9709TIP3    H129068   2.750   2.320   2.184
 9709TIP3    H229069   2.796   2.283   2.324
 9710TIP3   OH229070   6.287   3.152   3.840
 9710TIP3    H129071   6.325   3.095   3.773
 9710TIP3    H229072   6.321   3.118   3.923
 9711TIP3   OH229073   5.397   1.728   4.377
 9711TIP3    H129074   5.418   1.726   4.284
 9711TIP3    H229075   5.429   1.813   4.407
 9712TIP3   OH229076   6.765   7.695   5.740
 9712TIP3    H129077   6.795   7.605   5.732
 9712TIP3    H229078   6.696   7.692   5.807
 9713TIP3   OH229079   5.515   0.170   6.859
 9713TIP3    H129080   5.477   0.229   6.794
 9713TIP3    H229081   5.590   0.131   6.816
 9714TIP3   OH229082   2.631   0.618   1.278
 9714TIP3    H129083   2.636   0.711   1.301
 9714TIP3    H229084   2.633   0.573   1.362
 9715TIP3   OH229085   0.826   4.309   4.460
 9715TIP3    H129086   0.858   4.285   4.547
 9715TIP3    H229087   0.757   4.373   4.477
 9716TIP3   OH229088   1.585   4.548   1.714
 9716TIP3    H129089   1.678   4.543   1.690
 9716TIP3    H229090   1.540   4.569   1.632
 9717TIP3   OH229091   1.764   5.249   3.323
 9717TIP3    H129092   1.785   5.156   3.323
 9717TIP3    H229093   1.724   5.264   3.237
 9718TIP3   OH229094   1.946   3.912   3.332
 9718TIP3    H129095   1.921   3.979   3.396
 9718TIP3    H229096   1.917   3.830   3.371
 9719TIP3   OH229097   2.695   2.164   1.759
 9719TIP3    H129098   2.666   2.233   1.699
 9719TIP3    H229099   2.765   2.120   1.711
 9720TIP3   OH229100   2.661   1.442   1.625
 9720TIP3    H129101   2.659   1.475   1.535
 9720TIP3    H229102   2.673   1.348   1.616
 9721TIP3   OH229103   5.923   3.381   6.488
 9721TIP3    H129104   5.977   3.315   6.445
 9721TIP3    H229105   5.941   3.462   6.439
 9722TIP3   OH229106   4.055   2.861   4.803
 9722TIP3    H129107   4.139   2.830   4.837
 9722TIP3    H229108   4.049   2.822   4.715
 9723TIP3   OH229109   7.699   1.193   2.588
 9723TIP3    H129110   7.677   1.103   2.610
 9723TIP3    H229111   7.748   1.187   2.507
 9724TIP3   OH229112   8.030   4.557   2.781
 9724TIP3    H129113   8.013   4.650   2.768
 9724TIP3    H229114   8.124   4.551   2.798
 9725TIP3   OH229115   0.152   1.388   5.511
 9725TIP3    H129116   0.159   1.336   5.591
 9725TIP3    H229117   0.091   1.458   5.533
 9726TIP3   OH229118   2.575   6.250   0.439
 9726TIP3    H129119   2.580   6.276   0.531
 9726TIP3    H229120   2.635   6.176   0.432
 9727TIP3   OH229121   3.387   6.994   1.184
 9727TIP3    H129122   3.436   6.915   1.160
 9727TIP3    H229123   3.351   7.026   1.101
 9728TIP3   OH229124   4.854   6.267   6.418
 9728TIP3    H129125   4.838   6.297   6.507
 9728TIP3    H229126   4.846   6.172   6.423
 9729TIP3   OH229127   5.391   1.213   4.978
 9729TIP3    H129128   5.432   1.194   4.894
 9729TIP3    H229129   5.367   1.128   5.014
 9730TIP3   OH229130   0.395   4.306   6.632
 9730TIP3    H129131   0.481   4.346   6.647
 9730TIP3    H229132   0.382   4.316   6.537
 9731TIP3   OH229133   0.262   6.131   4.706
 9731TIP3    H129134   0.297   6.043   4.719
 9731TIP3    H229135   0.297   6.182   4.779
 9732TIP3   OH229136   0.606   5.334   3.374
 9732TIP3    H129137   0.639   5.423   3.365
 9732TIP3    H229138   0.531   5.330   3.314
 9733TIP3   OH229139   5.635   5.029   3.024
 9733TIP3    H129140   5.695   4.973   2.975
 9733TIP3    H229141   5.658   5.014   3.116
 9734TIP3   OH229142   0.083   6.096   3.122
 9734TIP3    H129143   0.034   6.149   3.059
 9734TIP3    H229144   0.117   6.159   3.186
 9735TIP3   OH229145   5.420   4.909   2.518
 9735TIP3    H129146   5.431   4.916   2.613
 9735TIP3    H229147   5.441   4.818   2.497
 9736TIP3   OH229148   3.310   7.648   1.200
 9736TIP3    H129149   3.379   7.628   1.264
 9736TIP3    H229150   3.300   7.743   1.205
 9737TIP3   OH229151   1.253   4.361   4.638
 9737TIP3    H129152   1.176   4.407   4.605
 9737TIP3    H229153   1.308   4.430   4.676
 9738TIP3   OH229154   5.502   7.499   1.918
 9738TIP3    H129155   5.448   7.573   1.890
 9738TIP3    H229156   5.581   7.539   1.956
 9739TIP3   OH229157   3.119   4.150   5.269
 9739TIP3    H129158   3.196   4.111   5.311
 9739TIP3    H229159   3.084   4.081   5.213
 9740TIP3   OH229160   1.369   0.998   4.889
 9740TIP3    H129161   1.447   1.049   4.911
 9740TIP3    H229162   1.403   0.920   4.845
 9741TIP3   OH229163   2.937   6.446   1.870
 9741TIP3    H129164   2.929   6.539   1.850
 9741TIP3    H229165   2.893   6.402   1.797
 9742TIP3   OH229166   6.388   7.846   1.506
 9742TIP3    H129167   6.368   7.837   1.413
 9742TIP3    H229168   6.306   7.878   1.544
 9743TIP3   OH229169   7.413   6.943   1.521
 9743TIP3    H129170   7.491   6.888   1.516
 9743TIP3    H229171   7.444   7.024   1.561
 9744TIP3   OH229172   0.772   4.603   5.176
 9744TIP3    H129173   0.678   4.616   5.186
 9744TIP3    H229174   0.811   4.651   5.249
 9745TIP3   OH229175   6.204   1.889   3.117
 9745TIP3    H129176   6.220   1.795   3.126
 9745TIP3    H229177   6.177   1.917   3.205
 9746TIP3   OH229178   1.179   1.677   3.249
 9746TIP3    H129179   1.222   1.599   3.213
 9746TIP3    H229180   1.117   1.642   3.313
 9747TIP3   OH229181   7.414   7.566   1.653
 9747TIP3    H129182   7.378   7.654   1.662
 9747TIP3    H229183   7.505   7.579   1.626
 9748TIP3   OH229184   0.601   5.265   6.106
 9748TIP3    H129185   0.659   5.246   6.180
 9748TIP3    H229186   0.515   5.233   6.134
 9749TIP3   OH229187   6.584   1.707   2.988
 9749TIP3    H129188   6.613   1.685   3.077
 9749TIP3    H229189   6.656   1.678   2.932
 9750TIP3   OH229190   4.539   1.613   4.457
 9750TIP3    H129191   4.475   1.683   4.449
 9750TIP3    H229192   4.620   1.650   4.423
 9751TIP3   OH229193   1.072   5.571   6.782
 9751TIP3    H129194   1.008   5.515   6.825
 9751TIP3    H229195   1.058   5.556   6.688
 9752TIP3   OH229196   1.508   4.488   2.520
 9752TIP3    H129197   1.549   4.516   2.438
 9752TIP3    H229198   1.477   4.569   2.560
 9753TIP3   OH229199   0.323   1.824   3.706
 9753TIP3    H129200   0.347   1.894   3.767
 9753TIP3    H229201   0.230   1.839   3.687
 9754TIP3   OH229202   3.829   5.376   2.875
 9754TIP3    H129203   3.806   5.284   2.863
 9754TIP3    H229204   3.746   5.422   2.877
 9755TIP3   OH229205   1.361   6.983   0.892
 9755TIP3    H129206   1.269   7.001   0.875
 9755TIP3    H229207   1.389   7.054   0.949
 9756TIP3   OH229208   0.595   5.379   5.060
 9756TIP3    H129209   0.657   5.422   5.001
 9756TIP3    H229210   0.524   5.441   5.071
 9757TIP3   OH229211   3.178   1.745   5.857
 9757TIP3    H129212   3.110   1.809   5.837
 9757TIP3    H229213   3.214   1.721   5.771
 9758TIP3   OH229214   0.418   1.609   0.933
 9758TIP3    H129215   0.386   1.661   1.007
 9758TIP3    H229216   0.483   1.550   0.971
 9759TIP3   OH229217   8.393   4.883   6.400
 9759TIP3    H129218   8.389   4.902   6.306
 9759TIP3    H229219   8.349   4.958   6.441
 9760TIP3   OH229220   2.653   1.662   5.097
 9760TIP3    H129221   2.609   1.661   5.012
 9760TIP3    H229222   2.727   1.602   5.086
 9761TIP3   OH229223   5.927   2.892   2.932
 9761TIP3    H129224   5.845   2.853   2.901
 9761TIP3    H229225   5.902   2.981   2.959
 9762TIP3   OH229226   8.389   5.199   0.734
 9762TIP3    H129227   8.363   5.182   0.643
 9762TIP3    H229228   8.313   5.241   0.773
 9763TIP3   OH229229   2.314   7.464   5.464
 9763TIP3    H129230   2.270   7.546   5.441
 9763TIP3    H229231   2.375   7.448   5.392
 9764TIP3   OH229232   0.180   3.986   2.267
 9764TIP3    H129233   0.140   3.939   2.195
 9764TIP3    H229234   0.269   3.952   2.272
 9765TIP3   OH229235   2.115   2.577   0.367
 9765TIP3    H129236   2.198   2.535   0.389
 9765TIP3    H229237   2.135   2.671   0.369
 9766TIP3   OH229238   8.308   2.854   5.448
 9766TIP3    H129239   8.372   2.786   5.467
 9766TIP3    H229240   8.360   2.928   5.417
 9767TIP3   OH229241   2.501   6.295   4.434
 9767TIP3    H129242   2.523   6.336   4.518
 9767TIP3    H229243   2.580   6.246   4.410
 9768TIP3   OH229244   7.201   1.838   5.133
 9768TIP3    H129245   7.224   1.853   5.225
 9768TIP3    H229246   7.107   1.822   5.134
 9769TIP3   OH229247   0.432   1.886   0.179
 9769TIP3    H129248   0.397   1.832   0.250
 9769TIP3    H229249   0.401   1.844   0.099
 9770TIP3   OH229250   6.664   3.271   4.140
 9770TIP3    H129251   6.616   3.274   4.223
 9770TIP3    H229252   6.664   3.361   4.108
 9771TIP3   OH229253   4.126   4.630   1.126
 9771TIP3    H129254   4.035   4.652   1.142
 9771TIP3    H229255   4.129   4.534   1.132
 9772TIP3   OH229256   2.474   6.742   4.749
 9772TIP3    H129257   2.505   6.651   4.746
 9772TIP3    H229258   2.554   6.794   4.752
 9773TIP3   OH229259   3.754   5.576   0.186
 9773TIP3    H129260   3.688   5.597   0.251
 9773TIP3    H229261   3.705   5.546   0.109
 9774TIP3   OH229262   5.553   7.723   5.803
 9774TIP3    H129263   5.544   7.700   5.896
 9774TIP3    H229264   5.633   7.680   5.776
 9775TIP3   OH229265   6.625   7.288   1.949
 9775TIP3    H129266   6.588   7.204   1.972
 9775TIP3    H229267   6.699   7.300   2.009
 9776TIP3   OH229268   6.851   2.755   0.991
 9776TIP3    H129269   6.756   2.751   1.000
 9776TIP3    H229270   6.877   2.830   1.045
 9777TIP3   OH229271   1.383   0.015   4.945
 9777TIP3    H129272   1.395  -0.014   4.855
 9777TIP3    H229273   1.293   0.050   4.946
 9778TIP3   OH229274   4.935   0.673   3.486
 9778TIP3    H129275   5.001   0.718   3.433
 9778TIP3    H229276   4.946   0.710   3.574
 9779TIP3   OH229277   2.201   4.757   2.672
 9779TIP3    H129278   2.156   4.806   2.741
 9779TIP3    H229279   2.263   4.819   2.634
 9780TIP3   OH229280   1.635   1.531   5.186
 9780TIP3    H129281   1.678   1.604   5.231
 9780TIP3    H229282   1.658   1.454   5.237
 9781TIP3   OH229283   0.552   0.247   4.544
 9781TIP3    H129284   0.548   0.159   4.508
 9781TIP3    H229285   0.498   0.244   4.623
 9782TIP3   OH229286   7.281   1.804   4.409
 9782TIP3    H129287   7.312   1.714   4.417
 9782TIP3    H229288   7.360   1.858   4.424
 9783TIP3   OH229289   3.250   6.347   5.102
 9783TIP3    H129290   3.156   6.340   5.118
 9783TIP3    H229291   3.257   6.376   5.011
 9784TIP3   OH229292   7.440   6.333   4.383
 9784TIP3    H129293   7.363   6.389   4.371
 9784TIP3    H229294   7.428   6.262   4.321
 9785TIP3   OH229295   0.404   5.469   1.794
 9785TIP3    H129296   0.319   5.498   1.761
 9785TIP3    H229297   0.385   5.385   1.838
 9786TIP3   OH229298   6.490   3.681   2.165
 9786TIP3    H129299   6.506   3.621   2.237
 9786TIP3    H229300   6.515   3.632   2.087
 9787TIP3   OH229301   6.225   7.647   2.307
 9787TIP3    H129302   6.179   7.638   2.223
 9787TIP3    H229303   6.156   7.673   2.369
 9788TIP3   OH229304   8.243   6.278   4.704
 9788TIP3    H129305   8.271   6.192   4.673
 9788TIP3    H229306   8.318   6.335   4.689
 9789TIP3   OH229307   2.538   1.340   6.818
 9789TIP3    H129308   2.581   1.255   6.826
 9789TIP3    H229309   2.598   1.401   6.860
 9790TIP3   OH229310   6.083   2.225   6.327
 9790TIP3    H129311   6.042   2.150   6.286
 9790TIP3    H229312   6.011   2.272   6.369
 9791TIP3   OH229313   4.147   2.524   0.550
 9791TIP3    H129314   4.091   2.574   0.490
 9791TIP3    H229315   4.118   2.553   0.637
 9792TIP3   OH229316   3.715   3.350   1.825
 9792TIP3    H129317   3.655   3.398   1.882
 9792TIP3    H229318   3.802   3.386   1.844
 9793TIP3   OH229319   8.244   4.248   0.253
 9793TIP3    H129320   8.247   4.209   0.166
 9793TIP3    H229321   8.308   4.320   0.249
 9794TIP3   OH229322   6.604   6.851   1.695
 9794TIP3    H129323   6.689   6.895   1.686
 9794TIP3    H229324   6.540   6.922   1.685
 9795TIP3   OH229325   6.282   0.732   2.656
 9795TIP3    H129326   6.294   0.818   2.615
 9795TIP3    H229327   6.221   0.747   2.728
 9796TIP3   OH229328   4.737   1.583   5.348
 9796TIP3    H129329   4.729   1.521   5.420
 9796TIP3    H229330   4.662   1.642   5.359
 9797TIP3   OH229331   7.754   7.498   3.851
 9797TIP3    H129332   7.725   7.460   3.768
 9797TIP3    H229333   7.815   7.434   3.888
 9798TIP3   OH229334   5.733   3.141   1.186
 9798TIP3    H129335   5.689   3.186   1.114
 9798TIP3    H229336   5.777   3.067   1.145
 9799TIP3   OH229337   8.283   1.095   3.290
 9799TIP3    H129338   8.373   1.125   3.300
 9799TIP3    H229339   8.232   1.152   3.348
 9800TIP3   OH229340   0.102   1.548   6.059
 9800TIP3    H129341   0.034   1.578   5.999
 9800TIP3    H229342   0.064   1.471   6.101
 9801TIP3   OH229343   3.890   0.607   3.024
 9801TIP3    H129344   3.864   0.662   3.098
 9801TIP3    H229345   3.817   0.547   3.010
 9802TIP3   OH229346   1.919   4.852   0.515
 9802TIP3    H129347   1.825   4.840   0.502
 9802TIP3    H229348   1.940   4.800   0.592
 9803TIP3   OH229349   2.708   4.341   5.000
 9803TIP3    H129350   2.621   4.375   5.017
 9803TIP3    H229351   2.741   4.394   4.927
 9804TIP3   OH229352   7.035   1.800   6.375
 9804TIP3    H129353   6.983   1.733   6.330
 9804TIP3    H229354   7.067   1.756   6.454
 9805TIP3   OH229355   5.285   0.984   0.163
 9805TIP3    H129356   5.298   1.044   0.089
 9805TIP3    H229357   5.354   1.008   0.225
 9806TIP3   OH229358   1.790   7.222   2.289
 9806TIP3    H129359   1.763   7.133   2.270
 9806TIP3    H229360   1.840   7.250   2.212
 9807TIP3   OH229361   8.098   2.783   0.887
 9807TIP3    H129362   8.037   2.837   0.937
 9807TIP3    H229363   8.181   2.792   0.933
 9808TIP3   OH229364   5.393   1.088   5.297
 9808TIP3    H129365   5.427   1.037   5.371
 9808TIP3    H229366   5.300   1.066   5.294
 9809TIP3   OH229367   1.121   1.530   4.419
 9809TIP3    H129368   1.040   1.558   4.376
 9809TIP3    H229369   1.141   1.445   4.380
 9810TIP3   OH229370   5.631   1.565   0.314
 9810TIP3    H129371   5.563   1.578   0.380
 9810TIP3    H229372   5.703   1.620   0.342
 9811TIP3   OH229373   4.488   3.846   4.045
 9811TIP3    H129374   4.446   3.765   4.074
 9811TIP3    H229375   4.459   3.912   4.107
 9812TIP3   OH229376   5.560   6.521   0.114
 9812TIP3    H129377   5.469   6.551   0.110
 9812TIP3    H229378   5.612   6.599   0.096
 9813TIP3   OH229379   3.507   3.883   0.445
 9813TIP3    H129380   3.592   3.874   0.488
 9813TIP3    H229381   3.501   3.807   0.388
 9814TIP3   OH229382   3.121   0.415   5.516
 9814TIP3    H129383   3.028   0.414   5.494
 9814TIP3    H229384   3.126   0.366   5.598
 9815TIP3   OH229385   0.391   0.116   0.511
 9815TIP3    H129386   0.424   0.096   0.423
 9815TIP3    H229387   0.468   0.106   0.568
 9816TIP3   OH229388   1.150   0.127   4.156
 9816TIP3    H129389   1.054   0.119   4.156
 9816TIP3    H229390   1.175   0.114   4.065
 9817TIP3   OH229391   4.060   5.894   2.027
 9817TIP3    H129392   4.053   5.975   2.077
 9817TIP3    H229393   4.150   5.895   1.994
 9818TIP3   OH229394   6.869   2.974   2.941
 9818TIP3    H129395   6.922   2.896   2.924
 9818TIP3    H229396   6.932   3.041   2.967
 9819TIP3   OH229397   4.633   5.779   5.176
 9819TIP3    H129398   4.542   5.785   5.148
 9819TIP3    H229399   4.661   5.692   5.149
 9820TIP3   OH229400   8.284   0.307   5.653
 9820TIP3    H129401   8.379   0.317   5.654
 9820TIP3    H229402   8.263   0.287   5.562
 9821TIP3   OH229403   5.316   5.429   2.813
 9821TIP3    H129404   5.320   5.334   2.820
 9821TIP3    H229405   5.364   5.461   2.890
 9822TIP3   OH229406   3.752   1.018   2.158
 9822TIP3    H129407   3.694   0.952   2.119
 9822TIP3    H229408   3.793   1.061   2.084
 9823TIP3   OH229409   6.319   1.310   2.749
 9823TIP3    H129410   6.369   1.321   2.830
 9823TIP3    H229411   6.379   1.264   2.690
 9824TIP3   OH229412   0.513   2.420   6.535
 9824TIP3    H129413   0.484   2.492   6.590
 9824TIP3    H229414   0.488   2.446   6.446
 9825TIP3   OH229415   0.929   7.850   5.815
 9825TIP3    H129416   0.980   7.930   5.803
 9825TIP3    H229417   0.906   7.823   5.726
 9826TIP3   OH229418   2.915   0.095   3.821
 9826TIP3    H129419   2.948   0.024   3.877
 9826TIP3    H229420   2.838   0.058   3.779
 9827TIP3   OH229421   3.334   0.523   0.794
 9827TIP3    H129422   3.312   0.616   0.804
 9827TIP3    H229423   3.309   0.502   0.704
 9828TIP3   OH229424   5.911   6.559   0.236
 9828TIP3    H129425   5.986   6.611   0.207
 9828TIP3    H229426   5.921   6.553   0.331
 9829TIP3   OH229427   7.018   6.114   0.049
 9829TIP3    H129428   6.932   6.110   0.091
 9829TIP3    H229429   7.050   6.024   0.052
 9830TIP3   OH229430   8.202   1.492   6.848
 9830TIP3    H129431   8.211   1.517   6.756
 9830TIP3    H229432   8.224   1.572   6.897
 9831TIP3   OH229433   7.679   0.457   1.996
 9831TIP3    H129434   7.667   0.443   2.090
 9831TIP3    H229435   7.593   0.488   1.965
 9832TIP3   OH229436   6.650   3.145   6.406
 9832TIP3    H129437   6.641   3.179   6.495
 9832TIP3    H229438   6.598   3.064   6.406
 9833TIP3   OH229439   1.161   1.912   1.340
 9833TIP3    H129440   1.120   1.917   1.253
 9833TIP3    H229441   1.144   1.823   1.370
 9834TIP3   OH229442   1.494   7.352   5.742
 9834TIP3    H129443   1.522   7.370   5.832
 9834TIP3    H229444   1.500   7.257   5.734
 9835TIP3   OH229445   1.504   7.844   1.358
 9835TIP3    H129446   1.555   7.804   1.428
 9835TIP3    H229447   1.421   7.795   1.357
 9836TIP3   OH229448   5.753   2.183   6.501
 9836TIP3    H129449   5.796   2.146   6.424
 9836TIP3    H229450   5.765   2.277   6.493
 9837TIP3   OH229451   6.270   5.256   0.743
 9837TIP3    H129452   6.347   5.258   0.687
 9837TIP3    H229453   6.251   5.163   0.755
 9838TIP3   OH229454   7.504   0.649   1.036
 9838TIP3    H129455   7.417   0.620   1.065
 9838TIP3    H229456   7.497   0.744   1.028
 9839TIP3   OH229457   7.716   1.192   1.245
 9839TIP3    H129458   7.639   1.244   1.222
 9839TIP3    H229459   7.683   1.124   1.303
 9840TIP3   OH229460   0.134   1.540   0.542
 9840TIP3    H129461   0.163   1.615   0.594
 9840TIP3    H229462   0.041   1.557   0.526
 9841TIP3   OH229463   3.766   3.221   3.032
 9841TIP3    H129464   3.757   3.128   3.051
 9841TIP3    H229465   3.813   3.256   3.108
 9842TIP3   OH229466   2.182   5.645   4.639
 9842TIP3    H129467   2.271   5.610   4.640
 9842TIP3    H229468   2.180   5.708   4.712
 9843TIP3   OH229469   1.080   3.616   6.444
 9843TIP3    H129470   1.105   3.537   6.398
 9843TIP3    H229471   1.152   3.633   6.505
 9844TIP3   OH229472   8.276   3.404   3.288
 9844TIP3    H129473   8.305   3.389   3.379
 9844TIP3    H229474   8.280   3.317   3.248
 9845TIP3   OH229475   7.522   4.840   0.106
 9845TIP3    H129476   7.496   4.818   0.196
 9845TIP3    H229477   7.455   4.799   0.051
 9846TIP3   OH229478   0.578   6.579   6.448
 9846TIP3    H129479   0.584   6.575   6.352
 9846TIP3    H229480   0.665   6.606   6.476
 9847TIP3   OH229481   3.774   3.408   2.606
 9847TIP3    H129482   3.842   3.397   2.672
 9847TIP3    H229483   3.709   3.464   2.648
 9848TIP3   OH229484   0.591   6.305   4.748
 9848TIP3    H129485   0.610   6.282   4.839
 9848TIP3    H229486   0.499   6.332   4.748
 9849TIP3   OH229487   2.817   1.422   5.530
 9849TIP3    H129488   2.898   1.427   5.582
 9849TIP3    H229489   2.773   1.343   5.561
 9850TIP3   OH229490   0.897   3.606   2.914
 9850TIP3    H129491   0.875   3.638   3.002
 9850TIP3    H229492   0.991   3.622   2.906
 9851TIP3   OH229493   8.063   3.587   5.844
 9851TIP3    H129494   8.020   3.501   5.843
 9851TIP3    H229495   8.011   3.640   5.904
 9852TIP3   OH229496   4.356   1.014   3.750
 9852TIP3    H129497   4.394   0.931   3.778
 9852TIP3    H229498   4.426   1.056   3.698
 9853TIP3   OH229499   6.283   4.543   3.648
 9853TIP3    H129500   6.370   4.547   3.690
 9853TIP3    H229501   6.268   4.633   3.619
 9854TIP3   OH229502   3.216   2.904   3.509
 9854TIP3    H129503   3.279   2.884   3.440
 9854TIP3    H229504   3.258   2.871   3.589
 9855TIP3   OH229505   4.288   3.970   1.652
 9855TIP3    H129506   4.194   3.951   1.658
 9855TIP3    H229507   4.292   4.064   1.634
 9856TIP3   OH229508   1.304   6.134   0.531
 9856TIP3    H129509   1.231   6.195   0.524
 9856TIP3    H229510   1.271   6.062   0.585
 9857TIP3   OH229511   1.826   6.384   1.557
 9857TIP3    H129512   1.878   6.447   1.507
 9857TIP3    H229513   1.753   6.363   1.499
 9858TIP3   OH229514   0.764   6.086   4.303
 9858TIP3    H129515   0.774   6.077   4.398
 9858TIP3    H229516   0.734   6.000   4.274
 9859TIP3   OH229517   8.189   0.846   1.757
 9859TIP3    H129518   8.212   0.900   1.681
 9859TIP3    H229519   8.095   0.858   1.768
 9860TIP3   OH229520   2.056   6.610   1.959
 9860TIP3    H129521   2.031   6.529   1.915
 9860TIP3    H229522   2.108   6.657   1.894
 9861TIP3   OH229523   1.985   1.584   1.100
 9861TIP3    H129524   1.954   1.661   1.149
 9861TIP3    H229525   1.914   1.520   1.108
 9862TIP3   OH229526   3.246   2.359   1.284
 9862TIP3    H129527   3.193   2.374   1.206
 9862TIP3    H229528   3.227   2.269   1.309
 9863TIP3   OH229529   3.425   7.604   5.466
 9863TIP3    H129530   3.488   7.558   5.521
 9863TIP3    H229531   3.339   7.580   5.501
 9864TIP3   OH229532   4.519   0.321   5.517
 9864TIP3    H129533   4.547   0.232   5.498
 9864TIP3    H229534   4.546   0.337   5.608
 9865TIP3   OH229535   0.496   6.736   3.948
 9865TIP3    H129536   0.498   6.742   4.043
 9865TIP3    H229537   0.565   6.673   3.926
 9866TIP3   OH229538   3.280   0.757   3.606
 9866TIP3    H129539   3.363   0.710   3.603
 9866TIP3    H229540   3.264   0.784   3.516
 9867TIP3   OH229541   6.427   1.285   5.402
 9867TIP3    H129542   6.464   1.250   5.320
 9867TIP3    H229543   6.405   1.375   5.381
 9868TIP3   OH229544   2.550   0.694   4.933
 9868TIP3    H129545   2.523   0.759   4.997
 9868TIP3    H229546   2.498   0.616   4.954
 9869TIP3   OH229547   5.066   0.079   2.033
 9869TIP3    H129548   5.067   0.163   2.078
 9869TIP3    H229549   5.058   0.101   1.940
 9870TIP3   OH229550   7.244   3.448   4.179
 9870TIP3    H129551   7.278   3.513   4.240
 9870TIP3    H229552   7.165   3.489   4.142
 9871TIP3   OH229553   4.945   2.915   4.049
 9871TIP3    H129554   4.910   2.964   4.123
 9871TIP3    H229555   5.020   2.966   4.019
 9872TIP3   OH229556   2.260   6.534   2.627
 9872TIP3    H129557   2.292   6.601   2.566
 9872TIP3    H229558   2.232   6.462   2.571
 9873TIP3   OH229559   6.433   0.687   0.519
 9873TIP3    H129560   6.341   0.714   0.522
 9873TIP3    H229561   6.453   0.678   0.426
 9874TIP3   OH229562   6.944   3.449   6.390
 9874TIP3    H129563   6.984   3.362   6.378
 9874TIP3    H229564   6.937   3.485   6.302
 9875TIP3   OH229565   5.386   4.834   3.006
 9875TIP3    H129566   5.377   4.766   3.073
 9875TIP3    H229567   5.435   4.904   3.049
 9876TIP3   OH229568   4.253   6.843   4.253
 9876TIP3    H129569   4.310   6.863   4.179
 9876TIP3    H229570   4.225   6.929   4.286
 9877TIP3   OH229571   3.095   2.321   1.074
 9877TIP3    H129572   3.064   2.230   1.068
 9877TIP3    H229573   3.113   2.346   0.983
 9878TIP3   OH229574   4.484   5.265   2.557
 9878TIP3    H129575   4.525   5.180   2.539
 9878TIP3    H229576   4.391   5.250   2.540
 9879TIP3   OH229577   2.820   5.363   1.164
 9879TIP3    H129578   2.734   5.397   1.187
 9879TIP3    H229579   2.811   5.268   1.173
 9880TIP3   OH229580   5.143   0.100   4.775
 9880TIP3    H129581   5.168   0.170   4.835
 9880TIP3    H229582   5.088   0.143   4.710
 9881TIP3   OH229583   2.680   0.472   0.562
 9881TIP3    H129584   2.693   0.377   0.556
 9881TIP3    H229585   2.599   0.482   0.612
 9882TIP3   OH229586   0.061   1.419   3.683
 9882TIP3    H129587   0.044   1.373   3.600
 9882TIP3    H229588   0.005   1.375   3.747
 9883TIP3   OH229589   2.038   6.272   3.488
 9883TIP3    H129590   2.063   6.298   3.577
 9883TIP3    H229591   2.120   6.264   3.441
 9884TIP3   OH229592   6.145   5.543   6.334
 9884TIP3    H129593   6.167   5.534   6.241
 9884TIP3    H229594   6.228   5.561   6.377
 9885TIP3   OH229595   7.618   2.405   4.384
 9885TIP3    H129596   7.676   2.364   4.320
 9885TIP3    H229597   7.674   2.466   4.431
 9886TIP3   OH229598   4.262   3.210   0.709
 9886TIP3    H129599   4.263   3.278   0.642
 9886TIP3    H229600   4.281   3.129   0.661
 9887TIP3   OH229601   4.736   1.987   5.115
 9887TIP3    H129602   4.786   1.919   5.160
 9887TIP3    H229603   4.656   1.997   5.168
 9888TIP3   OH229604   3.901   7.057   3.114
 9888TIP3    H129605   3.892   7.096   3.201
 9888TIP3    H229606   3.846   6.979   3.116
 9889TIP3   OH229607   6.129   6.043   5.787
 9889TIP3    H129608   6.215   6.001   5.786
 9889TIP3    H229609   6.126   6.094   5.706
 9890TIP3   OH229610   1.508   3.517   5.066
 9890TIP3    H129611   1.492   3.486   4.977
 9890TIP3    H229612   1.424   3.553   5.095
 9891TIP3   OH229613   5.909   1.131   1.510
 9891TIP3    H129614   5.962   1.060   1.547
 9891TIP3    H229615   5.907   1.198   1.579
 9892TIP3   OH229616   3.818   3.444   4.922
 9892TIP3    H129617   3.777   3.357   4.920
 9892TIP3    H229618   3.876   3.442   4.998
 9893TIP3   OH229619   2.426   4.697   1.712
 9893TIP3    H129620   2.389   4.714   1.625
 9893TIP3    H229621   2.367   4.741   1.773
 9894TIP3   OH229622   1.883   7.139   2.887
 9894TIP3    H129623   1.891   7.126   2.793
 9894TIP3    H229624   1.910   7.055   2.925
 9895TIP3   OH229625   5.295   5.482   5.297
 9895TIP3    H129626   5.358   5.420   5.333
 9895TIP3    H229627   5.233   5.428   5.248
 9896TIP3   OH229628   0.634   5.338   3.862
 9896TIP3    H129629   0.698   5.391   3.910
 9896TIP3    H229630   0.661   5.346   3.770
 9897TIP3   OH229631   3.277   6.013   5.368
 9897TIP3    H129632   3.296   5.949   5.437
 9897TIP3    H229633   3.212   6.071   5.407
 9898TIP3   OH229634   0.683   7.000   4.508
 9898TIP3    H129635   0.625   6.928   4.531
 9898TIP3    H229636   0.771   6.964   4.517
 9899TIP3   OH229637   5.818   1.561   0.689
 9899TIP3    H129638   5.795   1.608   0.770
 9899TIP3    H229639   5.818   1.628   0.621
 9900TIP3   OH229640   2.601   6.006   5.345
 9900TIP3    H129641   2.557   6.090   5.358
 9900TIP3    H229642   2.674   6.026   5.286
 9901TIP3   OH229643   3.802   5.206   2.216
 9901TIP3    H129644   3.811   5.117   2.250
 9901TIP3    H229645   3.849   5.261   2.278
 9902TIP3   OH229646   7.535   6.559   5.341
 9902TIP3    H129647   7.475   6.495   5.381
 9902TIP3    H229648   7.535   6.537   5.248
 9903TIP3   OH229649   1.161   3.243   4.711
 9903TIP3    H129650   1.118   3.279   4.788
 9903TIP3    H229651   1.123   3.155   4.701
 9904TIP3   OH229652   3.615   2.184   0.918
 9904TIP3    H129653   3.600   2.279   0.916
 9904TIP3    H229654   3.697   2.174   0.965
 9905TIP3   OH229655   2.583   0.802   5.530
 9905TIP3    H129656   2.661   0.788   5.477
 9905TIP3    H229657   2.563   0.715   5.565
 9906TIP3   OH229658   2.366   4.928   6.346
 9906TIP3    H129659   2.420   4.954   6.271
 9906TIP3    H229660   2.397   4.984   6.417
 9907TIP3   OH229661   2.695   1.061   6.474
 9907TIP3    H129662   2.605   1.076   6.445
 9907TIP3    H229663   2.713   0.970   6.449
 9908TIP3   OH229664   1.892   6.488   6.857
 9908TIP3    H129665   1.977   6.502   6.899
 9908TIP3    H229666   1.896   6.540   6.777
 9909TIP3   OH229667  -0.028   2.841   0.957
 9909TIP3    H129668   0.016   2.781   0.896
 9909TIP3    H229669   0.040   2.905   0.980
 9910TIP3   OH229670   4.073   5.857   1.597
 9910TIP3    H129671   4.034   5.942   1.618
 9910TIP3    H229672   4.010   5.817   1.537
 9911TIP3   OH229673   3.321   0.604   5.483
 9911TIP3    H129674   3.390   0.577   5.543
 9911TIP3    H229675   3.253   0.537   5.493
 9912TIP3   OH229676   4.216   7.097   4.321
 9912TIP3    H129677   4.155   7.128   4.388
 9912TIP3    H229678   4.249   7.177   4.280
 9913TIP3   OH229679   4.986   0.451   3.998
 9913TIP3    H129680   5.060   0.391   4.014
 9913TIP3    H229681   4.972   0.447   3.903
 9914TIP3   OH229682   7.071   2.478   6.476
 9914TIP3    H129683   7.115   2.453   6.395
 9914TIP3    H229684   6.984   2.507   6.448
 9915TIP3   OH229685   4.958   2.122   1.687
 9915TIP3    H129686   4.940   2.163   1.603
 9915TIP3    H229687   4.893   2.052   1.695
 9916TIP3   OH229688   0.099   7.478   5.184
 9916TIP3    H129689   0.056   7.563   5.183
 9916TIP3    H229690   0.179   7.492   5.235
 9917TIP3   OH229691   4.908   1.800   1.327
 9917TIP3    H129692   4.868   1.724   1.368
 9917TIP3    H229693   4.989   1.814   1.377
 9918TIP3   OH229694   2.204   7.068   4.215
 9918TIP3    H129695   2.179   7.098   4.127
 9918TIP3    H229696   2.290   7.108   4.230
 9919TIP3   OH229697   2.298   4.362   2.459
 9919TIP3    H129698   2.381   4.383   2.417
 9919TIP3    H229699   2.235   4.357   2.387
 9920TIP3   OH229700   3.433   0.935   5.145
 9920TIP3    H129701   3.354   0.886   5.170
 9920TIP3    H229702   3.500   0.867   5.136
 9921TIP3   OH229703   2.106   0.933   5.842
 9921TIP3    H129704   2.060   1.004   5.798
 9921TIP3    H229705   2.068   0.930   5.930
 9922TIP3   OH229706   6.989   3.599   4.498
 9922TIP3    H129707   7.015   3.508   4.481
 9922TIP3    H229708   7.058   3.651   4.456
 9923TIP3   OH229709   4.985   2.223   1.188
 9923TIP3    H129710   5.027   2.140   1.167
 9923TIP3    H229711   4.955   2.213   1.278
 9924TIP3   OH229712   7.052   6.103   5.044
 9924TIP3    H129713   6.994   6.060   5.107
 9924TIP3    H229714   7.084   6.181   5.090
 9925TIP3   OH229715   6.402   7.773   5.281
 9925TIP3    H129716   6.488   7.795   5.317
 9925TIP3    H229717   6.416   7.695   5.228
 9926TIP3   OH229718   4.744   1.348   4.287
 9926TIP3    H129719   4.666   1.307   4.323
 9926TIP3    H229720   4.770   1.291   4.215
 9927TIP3   OH229721   4.070   0.215   4.936
 9927TIP3    H129722   4.006   0.240   5.002
 9927TIP3    H229723   4.121   0.294   4.920
 9928TIP3   OH229724   1.611   3.232   5.886
 9928TIP3    H129725   1.649   3.148   5.911
 9928TIP3    H229726   1.680   3.296   5.904
 9929TIP3   OH229727   2.804   1.713   3.821
 9929TIP3    H129728   2.747   1.651   3.775
 9929TIP3    H229729   2.789   1.696   3.914
 9930TIP3   OH229730   5.658   1.512   4.688
 9930TIP3    H129731   5.663   1.602   4.656
 9930TIP3    H229732   5.575   1.507   4.734
 9931TIP3   OH229733   6.938   0.075   1.759
 9931TIP3    H129734   6.855   0.029   1.749
 9931TIP3    H229735   6.989   0.018   1.817
 9932TIP3   OH229736   7.558   0.829   4.646
 9932TIP3    H129737   7.523   0.900   4.701
 9932TIP3    H229738   7.612   0.777   4.706
 9933TIP3   OH229739   3.458   0.382   5.094
 9933TIP3    H129740   3.378   0.408   5.049
 9933TIP3    H229741   3.464   0.288   5.081
 9934TIP3   OH229742   5.822   2.406   3.803
 9934TIP3    H129743   5.765   2.349   3.855
 9934TIP3    H229744   5.765   2.476   3.773
 9935TIP3   OH229745   2.064   5.753   0.569
 9935TIP3    H129746   2.013   5.792   0.498
 9935TIP3    H229747   2.153   5.746   0.533
 9936TIP3   OH229748   0.230   3.722   3.174
 9936TIP3    H129749   0.287   3.770   3.113
 9936TIP3    H229750   0.146   3.768   3.169
 9937TIP3   OH229751   6.208   5.142   3.772
 9937TIP3    H129752   6.191   5.187   3.688
 9937TIP3    H229753   6.278   5.193   3.812
 9938TIP3   OH229754   2.128   5.385   6.459
 9938TIP3    H129755   2.148   5.472   6.424
 9938TIP3    H229756   2.085   5.340   6.387
 9939TIP3   OH229757   0.615   0.711   4.401
 9939TIP3    H129758   0.561   0.784   4.430
 9939TIP3    H229759   0.622   0.654   4.478
 9940TIP3   OH229760   4.124   5.735   6.396
 9940TIP3    H129761   4.152   5.643   6.398
 9940TIP3    H229762   4.204   5.784   6.375
 9941TIP3   OH229763   6.929   5.481   2.762
 9941TIP3    H129764   6.995   5.476   2.832
 9941TIP3    H229765   6.970   5.536   2.695
 9942TIP3   OH229766   3.477   0.329   2.142
 9942TIP3    H129767   3.464   0.285   2.226
 9942TIP3    H229768   3.494   0.420   2.164
 9943TIP3   OH229769   3.152   7.997   0.678
 9943TIP3    H129770   3.222   8.034   0.625
 9943TIP3    H229771   3.170   7.903   0.679
 9944TIP3   OH229772   7.638   0.633   5.155
 9944TIP3    H129773   7.688   0.628   5.074
 9944TIP3    H229774   7.575   0.704   5.140
 9945TIP3   OH229775   6.303   0.155   0.242
 9945TIP3    H129776   6.361   0.222   0.276
 9945TIP3    H229777   6.357   0.076   0.238
 9946TIP3   OH229778   2.963   2.778   3.610
 9946TIP3    H129779   2.964   2.720   3.686
 9946TIP3    H229780   2.999   2.725   3.539
 9947TIP3   OH229781   2.449   5.144   1.898
 9947TIP3    H129782   2.520   5.084   1.875
 9947TIP3    H229783   2.421   5.117   1.985
 9948TIP3   OH229784   4.612   1.384   2.230
 9948TIP3    H129785   4.672   1.353   2.163
 9948TIP3    H229786   4.624   1.479   2.231
 9949TIP3   OH229787   3.358   5.706   6.024
 9949TIP3    H129788   3.390   5.763   5.955
 9949TIP3    H229789   3.385   5.618   5.997
 9950TIP3   OH229790   3.464   6.017   0.946
 9950TIP3    H129791   3.551   6.010   0.984
 9950TIP3    H229792   3.460   6.106   0.912
 9951TIP3   OH229793   5.458   1.672   1.167
 9951TIP3    H129794   5.472   1.598   1.227
 9951TIP3    H229795   5.429   1.631   1.085
 9952TIP3   OH229796   4.980   7.781   0.711
 9952TIP3    H129797   4.885   7.775   0.716
 9952TIP3    H229798   5.002   7.752   0.622
 9953TIP3   OH229799   1.934   2.151   4.144
 9953TIP3    H129800   1.974   2.212   4.083
 9953TIP3    H229801   2.005   2.091   4.168
 9954TIP3   OH229802   7.008   4.465   3.028
 9954TIP3    H129803   6.928   4.519   3.026
 9954TIP3    H229804   7.069   4.516   3.081
 9955TIP3   OH229805   8.018   4.252   3.516
 9955TIP3    H129806   7.945   4.298   3.556
 9955TIP3    H229807   8.065   4.212   3.589
 9956TIP3   OH229808   2.882   2.920   4.156
 9956TIP3    H129809   2.936   2.951   4.229
 9956TIP3    H229810   2.867   2.827   4.175
 9957TIP3   OH229811   8.245   2.600   3.958
 9957TIP3    H129812   8.283   2.669   4.013
 9957TIP3    H229813   8.150   2.611   3.968
 9958TIP3   OH229814   6.571   5.764   1.202
 9958TIP3    H129815   6.555   5.670   1.206
 9958TIP3    H229816   6.604   5.786   1.288
 9959TIP3   OH229817   4.996   3.991   3.017
 9959TIP3    H129818   4.939   3.998   2.940
 9959TIP3    H229819   5.079   3.957   2.982
 9960TIP3   OH229820   0.748   1.841   5.217
 9960TIP3    H129821   0.668   1.789   5.207
 9960TIP3    H229822   0.762   1.846   5.311
 9961TIP3   OH229823   5.609   0.810   0.334
 9961TIP3    H129824   5.596   0.734   0.392
 9961TIP3    H229825   5.604   0.886   0.392
 9962TIP3   OH229826   7.718   5.472   0.748
 9962TIP3    H129827   7.682   5.424   0.674
 9962TIP3    H229828   7.706   5.413   0.823
 9963TIP3   OH229829   3.107   2.851   5.660
 9963TIP3    H129830   3.093   2.944   5.680
 9963TIP3    H229831   3.140   2.850   5.570
 9964TIP3   OH229832   5.478   0.869   3.679
 9964TIP3    H129833   5.428   0.940   3.639
 9964TIP3    H229834   5.555   0.911   3.717
 9965TIP3   OH229835   6.866   5.287   4.157
 9965TIP3    H129836   6.829   5.254   4.239
 9965TIP3    H229837   6.820   5.238   4.088
 9966TIP3   OH229838   7.613   4.325   6.595
 9966TIP3    H129839   7.620   4.275   6.514
 9966TIP3    H229840   7.540   4.385   6.580
 9967TIP3   OH229841   4.934   5.490   0.565
 9967TIP3    H129842   4.944   5.474   0.471
 9967TIP3    H229843   5.020   5.520   0.593
 9968TIP3   OH229844   0.925   4.881   4.028
 9968TIP3    H129845   0.868   4.894   3.952
 9968TIP3    H229846   0.951   4.789   4.023
 9969TIP3   OH229847   3.527   5.994   6.822
 9969TIP3    H129848   3.587   6.050   6.773
 9969TIP3    H229849   3.469   5.957   6.756
 9970TIP3   OH229850   3.673   7.740   4.807
 9970TIP3    H129851   3.737   7.737   4.736
 9970TIP3    H229852   3.682   7.656   4.852
 9971TIP3   OH229853   5.460   1.660   1.795
 9971TIP3    H129854   5.546   1.677   1.833
 9971TIP3    H229855   5.407   1.735   1.819
 9972TIP3   OH229856   3.891   2.862   2.630
 9972TIP3    H129857   3.921   2.920   2.560
 9972TIP3    H229858   3.933   2.897   2.709
 9973TIP3   OH229859   6.959   0.893   2.027
 9973TIP3    H129860   6.987   0.963   2.086
 9973TIP3    H229861   6.957   0.933   1.940
 9974TIP3   OH229862   7.830   4.073   5.266
 9974TIP3    H129863   7.770   4.122   5.209
 9974TIP3    H229864   7.823   3.983   5.235
 9975TIP3   OH229865   1.282   3.608   5.433
 9975TIP3    H129866   1.232   3.579   5.509
 9975TIP3    H229867   1.251   3.552   5.361
 9976TIP3   OH229868   4.182   2.648   6.283
 9976TIP3    H129869   4.274   2.668   6.264
 9976TIP3    H229870   4.183   2.559   6.317
 9977TIP3   OH229871   5.636   5.561   6.317
 9977TIP3    H129872   5.653   5.625   6.386
 9977TIP3    H229873   5.718   5.513   6.306
 9978TIP3   OH229874   8.012   5.180   2.564
 9978TIP3    H129875   7.935   5.124   2.555
 9978TIP3    H229876   8.066   5.137   2.630
 9979TIP3   OH229877   7.318   3.398   2.469
 9979TIP3    H129878   7.309   3.420   2.377
 9979TIP3    H229879   7.229   3.405   2.504
 9980TIP3   OH229880   1.852   6.813   1.637
 9980TIP3    H129881   1.945   6.838   1.635
 9980TIP3    H229882   1.814   6.857   1.561
 9981TIP3   OH229883   7.698   4.768   6.230
 9981TIP3    H129884   7.714   4.803   6.143
 9981TIP3    H229885   7.668   4.678   6.215
 9982TIP3   OH229886   7.048   6.264   2.099
 9982TIP3    H129887   7.109   6.218   2.041
 9982TIP3    H229888   6.965   6.218   2.087
 9983TIP3   OH229889   3.986   0.760   1.299
 9983TIP3    H129890   4.057   0.822   1.278
 9983TIP3    H229891   3.907   0.805   1.268
 9984TIP3   OH229892   4.401   6.381   0.489
 9984TIP3    H129893   4.339   6.400   0.559
 9984TIP3    H229894   4.409   6.286   0.489
 9985TIP3   OH229895   8.037   4.542   0.037
 9985TIP3    H129896   8.043   4.629  -0.003
 9985TIP3    H229897   8.125   4.505   0.029
 9986TIP3   OH229898   7.122   1.020   1.471
 9986TIP3    H129899   7.131   0.982   1.559
 9986TIP3    H229900   7.085   0.950   1.418
 9987TIP3   OH229901   4.615   6.821   0.537
 9987TIP3    H129902   4.687   6.879   0.513
 9987TIP3    H229903   4.564   6.871   0.601
 9988TIP3   OH229904   3.726   3.869   5.961
 9988TIP3    H129905   3.750   3.811   5.888
 9988TIP3    H229906   3.672   3.937   5.920
 9989TIP3   OH229907   3.186   6.662   4.882
 9989TIP3    H129908   3.104   6.617   4.906
 9989TIP3    H229909   3.174   6.687   4.790
 9990TIP3   OH229910   6.547   0.915   1.667
 9990TIP3    H129911   6.468   0.869   1.697
 9990TIP3    H229912   6.535   1.005   1.696
 9991TIP3   OH229913   5.256   2.615   5.354
 9991TIP3    H129914   5.307   2.695   5.365
 9991TIP3    H229915   5.197   2.614   5.430
 9992TIP3   OH229916   7.600   6.501   5.095
 9992TIP3    H129917   7.678   6.448   5.111
 9992TIP3    H229918   7.558   6.460   5.019
 9993TIP3   OH229919   7.913   5.286   0.283
 9993TIP3    H129920   7.824   5.308   0.311
 9993TIP3    H229921   7.903   5.258   0.192
 9994TIP3   OH229922   2.278   3.013   1.302
 9994TIP3    H129923   2.267   3.017   1.207
 9994TIP3    H229924   2.220   3.082   1.336
 9995TIP3   OH229925   7.876   3.508   6.678
 9995TIP3    H129926   7.964   3.530   6.708
 9995TIP3    H229927   7.819   3.569   6.724
 9996TIP3   OH229928   7.721   0.154   2.621
 9996TIP3    H129929   7.667   0.232   2.636
 9996TIP3    H229930   7.661   0.080   2.633
 9997TIP3   OH229931   5.876   2.867   5.983
 9997TIP3    H129932   5.793   2.820   5.983
 9997TIP3    H229933   5.911   2.854   6.071
 9998TIP3   OH229934   3.202   4.188   2.459
 9998TIP3    H129935   3.134   4.220   2.518
 9998TIP3    H229936   3.156   4.127   2.401
 9999TIP3   OH229937   1.272   5.545   2.148
 9999TIP3    H129938   1.189   5.559   2.102
 9999TIP3    H229939   1.339   5.560   2.082
10000TIP3   OH229940   6.815   5.942   4.749
10000TIP3    H129941   6.738   5.922   4.695
10000TIP3    H229942   6.838   5.858   4.790
10001TIP3   OH229943   4.774   4.025   2.048
10001TIP3    H129944   4.702   3.963   2.045
10001TIP3    H229945   4.850   3.973   2.074
10002TIP3   OH229946   1.178   0.798   6.313
10002TIP3    H129947   1.181   0.722   6.254
10002TIP3    H229948   1.088   0.799   6.345
10003TIP3   OH229949   5.170   1.875   1.418
10003TIP3    H129950   5.200   1.793   1.457
10003TIP3    H229951   5.243   1.936   1.431
10004TIP3   OH229952   1.932   3.252   5.598
10004TIP3    H129953   1.998   3.317   5.575
10004TIP3    H229954   1.865   3.262   5.531
10005TIP3   OH229955   3.841   2.219   4.368
10005TIP3    H129956   3.917   2.239   4.424
10005TIP3    H229957   3.787   2.299   4.372
10006TIP3   OH229958   2.834   2.240   3.839
10006TIP3    H129959   2.839   2.145   3.849
10006TIP3    H229960   2.907   2.262   3.782
10007TIP3   OH229961   4.328   4.520   5.812
10007TIP3    H129962   4.421   4.530   5.833
10007TIP3    H229963   4.300   4.608   5.785
10008TIP3   OH229964   8.169   6.215   1.289
10008TIP3    H129965   8.239   6.171   1.240
10008TIP3    H229966   8.128   6.273   1.225
10009TIP3   OH229967   1.875   3.371   3.852
10009TIP3    H129968   1.815   3.379   3.777
10009TIP3    H229969   1.931   3.297   3.829
10010TIP3   OH229970   2.800   1.087   1.094
10010TIP3    H129971   2.761   1.122   1.174
10010TIP3    H229972   2.891   1.118   1.097
10011TIP3   OH229973   4.253   5.668   2.520
10011TIP3    H129974   4.188   5.606   2.488
10011TIP3    H229975   4.330   5.614   2.538
10012TIP3   OH229976   5.528   2.279   4.579
10012TIP3    H129977   5.501   2.189   4.560
10012TIP3    H229978   5.562   2.276   4.668
10013TIP3   OH229979   2.038   5.559   0.978
10013TIP3    H129980   2.058   5.467   0.957
10013TIP3    H229981   2.071   5.571   1.067
10014TIP3   OH229982   6.195   0.126   0.515
10014TIP3    H129983   6.216   0.034   0.530
10014TIP3    H229984   6.207   0.138   0.421
10015TIP3   OH229985   1.275   7.469   4.059
10015TIP3    H129986   1.230   7.535   4.006
10015TIP3    H229987   1.309   7.407   3.994
10016TIP3   OH229988   3.858   2.647   0.087
10016TIP3    H129989   3.855   2.709   0.160
10016TIP3    H229990   3.925   2.584   0.112
10017TIP3   OH229991   2.006   7.355   6.521
10017TIP3    H129992   2.071   7.286   6.507
10017TIP3    H229993   1.967   7.369   6.434
10018TIP3   OH229994   6.941   4.674   2.129
10018TIP3    H129995   6.930   4.579   2.116
10018TIP3    H229996   7.036   4.686   2.139
10019TIP3   OH229997   8.132   3.916   5.245
10019TIP3    H129998   8.180   3.841   5.209
10019TIP3    H229999   8.060   3.876   5.295
10020TIP3   OH230000   8.272   1.364   6.601
10020TIP3    H130001   8.204   1.312   6.643
10020TIP3    H230002   8.341   1.301   6.579
10021TIP3   OH230003   2.822   7.297   1.281
10021TIP3    H130004   2.862   7.343   1.206
10021TIP3    H230005   2.871   7.329   1.357
10022TIP3   OH230006   4.877   0.891   2.122
10022TIP3    H130007   4.928   0.940   2.186
10022TIP3    H230008   4.836   0.821   2.172
10023TIP3   OH230009   7.053   0.395   4.443
10023TIP3    H130010   6.995   0.322   4.421
10023TIP3    H230011   6.995   0.462   4.480
10024TIP3   OH230012   5.488   4.242   4.276
10024TIP3    H130013   5.437   4.290   4.212
10024TIP3    H230014   5.572   4.226   4.233
10025TIP3   OH230015   4.158   2.935   5.222
10025TIP3    H130016   4.154   2.840   5.212
10025TIP3    H230017   4.249   2.957   5.206
10026TIP3   OH230018   4.573   0.468   5.042
10026TIP3    H130019   4.547   0.493   4.953
10026TIP3    H230020   4.643   0.529   5.065
10027TIP3   OH230021   2.737   7.608   6.687
10027TIP3    H130022   2.725   7.514   6.670
10027TIP3    H230023   2.779   7.612   6.773
10028TIP3   OH230024   6.486   3.764   3.706
10028TIP3    H130025   6.576   3.740   3.682
10028TIP3    H230026   6.431   3.719   3.641
10029TIP3   OH230027   6.483   3.168   0.465
10029TIP3    H130028   6.529   3.247   0.491
10029TIP3    H230029   6.459   3.182   0.373
10030TIP3   OH230030   3.438   6.821   5.526
10030TIP3    H130031   3.431   6.868   5.443
10030TIP3    H230032   3.394   6.737   5.509
10031TIP3   OH230033   0.404   0.061   0.244
10031TIP3    H130034   0.373   0.141   0.201
10031TIP3    H230035   0.402  -0.005   0.174
10032TIP3   OH230036   6.346   1.607   1.280
10032TIP3    H130037   6.352   1.513   1.259
10032TIP3    H230038   6.377   1.613   1.371
10033TIP3   OH230039   8.171   4.275   1.604
10033TIP3    H130040   8.108   4.218   1.558
10033TIP3    H230041   8.153   4.260   1.697
10034TIP3   OH230042   7.725   2.613   2.956
10034TIP3    H130043   7.663   2.649   2.893
10034TIP3    H230044   7.797   2.676   2.959
10035TIP3   OH230045   3.688   2.691   3.267
10035TIP3    H130046   3.672   2.601   3.296
10035TIP3    H230047   3.722   2.682   3.178
10036TIP3   OH230048   7.149   0.455   0.053
10036TIP3    H130049   7.231   0.411   0.074
10036TIP3    H230050   7.094   0.442   0.130
10037TIP3   OH230051   7.370   2.140   4.639
10037TIP3    H130052   7.298   2.099   4.687
10037TIP3    H230053   7.448   2.091   4.665
10038TIP3   OH230054   1.909   2.120   0.557
10038TIP3    H130055   1.939   2.031   0.577
10038TIP3    H230056   1.873   2.113   0.468
10039TIP3   OH230057   0.882   6.469   0.851
10039TIP3    H130058   0.924   6.494   0.933
10039TIP3    H230059   0.934   6.513   0.783
10040TIP3   OH230060   6.976   1.449   3.281
10040TIP3    H130061   6.988   1.534   3.324
10040TIP3    H230062   6.891   1.457   3.237
10041TIP3   OH230063   5.794   2.523   0.818
10041TIP3    H130064   5.849   2.521   0.740
10041TIP3    H230065   5.806   2.611   0.855
10042TIP3   OH230066   3.740   6.628   4.691
10042TIP3    H130067   3.740   6.672   4.776
10042TIP3    H230068   3.776   6.693   4.631
10043TIP3   OH230069   7.461   7.378   3.260
10043TIP3    H130070   7.504   7.336   3.334
10043TIP3    H230071   7.513   7.351   3.184
10044TIP3   OH230072   2.368   2.517   4.704
10044TIP3    H130073   2.394   2.609   4.703
10044TIP3    H230074   2.310   2.510   4.780
10045TIP3   OH230075   5.552   1.938   1.479
10045TIP3    H130076   5.489   1.995   1.435
10045TIP3    H230077   5.637   1.978   1.462
10046TIP3   OH230078   0.671   3.347   5.178
10046TIP3    H130079   0.652   3.440   5.193
10046TIP3    H230080   0.683   3.340   5.084
10047TIP3   OH230081   6.505   5.800   0.131
10047TIP3    H130082   6.493   5.868   0.064
10047TIP3    H230083   6.536   5.848   0.208
10048TIP3   OH230084   1.165   5.042   6.814
10048TIP3    H130085   1.250   5.037   6.858
10048TIP3    H230086   1.136   4.952   6.804
10049TIP3   OH230087   3.282   2.775   0.125
10049TIP3    H130088   3.370   2.807   0.107
10049TIP3    H230089   3.272   2.782   0.220
10050TIP3   OH230090   4.132   0.163   5.845
10050TIP3    H130091   4.060   0.215   5.808
10050TIP3    H230092   4.171   0.119   5.770
10051TIP3   OH230093   4.566   6.337   4.811
10051TIP3    H130094   4.574   6.284   4.732
10051TIP3    H230095   4.472   6.334   4.832
10052TIP3   OH230096   8.010   6.633   3.776
10052TIP3    H130097   8.045   6.631   3.865
10052TIP3    H230098   7.917   6.653   3.787
10053TIP3   OH230099   2.969   3.721   2.600
10053TIP3    H130100   2.897   3.713   2.662
10053TIP3    H230101   2.969   3.637   2.553
10054TIP3   OH230102   1.768   3.139   1.938
10054TIP3    H130103   1.818   3.183   1.869
10054TIP3    H230104   1.699   3.202   1.960
10055TIP3   OH230105   3.871   6.510  -0.011
10055TIP3    H130106   3.826   6.593   0.001
10055TIP3    H230107   3.964   6.534  -0.017
10056TIP3   OH230108   5.750   1.909   5.445
10056TIP3    H130109   5.736   1.967   5.370
10056TIP3    H230110   5.799   1.962   5.508
10057TIP3   OH230111   7.334   5.506   3.792
10057TIP3    H130112   7.306   5.415   3.794
10057TIP3    H230113   7.281   5.549   3.859
10058TIP3   OH230114   2.938   6.139   0.729
10058TIP3    H130115   3.018   6.156   0.780
10058TIP3    H230116   2.915   6.049   0.749
10059TIP3   OH230117   5.570   3.389   6.772
10059TIP3    H130118   5.570   3.388   6.868
10059TIP3    H230119   5.573   3.482   6.749
10060TIP3   OH230120   4.813   3.243   2.030
10060TIP3    H130121   4.732   3.240   2.081
10060TIP3    H230122   4.793   3.301   1.957
10061TIP3   OH230123   3.317   6.042   4.212
10061TIP3    H130124   3.376   5.980   4.168
10061TIP3    H230125   3.281   5.993   4.285
10062TIP3   OH230126   3.620   1.845   2.047
10062TIP3    H130127   3.565   1.831   1.970
10062TIP3    H230128   3.632   1.757   2.084
10063TIP3   OH230129   1.971   4.319   3.968
10063TIP3    H130130   1.945   4.410   3.979
10063TIP3    H230131   2.066   4.320   3.977
10064TIP3   OH230132   0.523   6.845   6.285
10064TIP3    H130133   0.480   6.780   6.229
10064TIP3    H230134   0.561   6.907   6.224
10065TIP3   OH230135   0.226   3.789   0.366
10065TIP3    H130136   0.300   3.780   0.305
10065TIP3    H230137   0.165   3.849   0.322
10066TIP3   OH230138   6.300   5.446   5.386
10066TIP3    H130139   6.220   5.465   5.337
10066TIP3    H230140   6.367   5.500   5.345
10067TIP3   OH230141   6.039   1.764   1.986
10067TIP3    H130142   6.085   1.736   1.906
10067TIP3    H230143   6.080   1.713   2.056
10068TIP3   OH230144   1.840   4.533   5.692
10068TIP3    H130145   1.772   4.553   5.757
10068TIP3    H230146   1.903   4.480   5.741
10069TIP3   OH230147   1.292   1.746   5.181
10069TIP3    H130148   1.358   1.690   5.141
10069TIP3    H230149   1.300   1.728   5.275
10070TIP3   OH230150   5.661   7.821   0.216
10070TIP3    H130151   5.674   7.916   0.210
10070TIP3    H230152   5.682   7.788   0.129
10071TIP3   OH230153   4.093   2.129   5.741
10071TIP3    H130154   4.002   2.115   5.714
10071TIP3    H230155   4.142   2.131   5.659
10072TIP3   OH230156   7.319   5.069   1.302
10072TIP3    H130157   7.250   5.112   1.353
10072TIP3    H230158   7.315   5.112   1.216
10073TIP3   OH230159   5.324   6.947   6.628
10073TIP3    H130160   5.346   6.989   6.545
10073TIP3    H230161   5.409   6.917   6.662
10074TIP3   OH230162   4.070   6.489   2.012
10074TIP3    H130163   4.084   6.576   2.049
10074TIP3    H230164   4.154   6.465   1.973
10075TIP3   OH230165   2.994   6.264   3.062
10075TIP3    H130166   3.071   6.299   3.017
10075TIP3    H230167   3.030   6.205   3.129
10076TIP3   OH230168   5.629   5.193   1.735
10076TIP3    H130169   5.621   5.102   1.708
10076TIP3    H230170   5.620   5.243   1.653
10077TIP3   OH230171   3.746   1.904   4.071
10077TIP3    H130172   3.691   1.974   4.037
10077TIP3    H230173   3.720   1.827   4.021
10078TIP3   OH230174   6.794   7.635   4.310
10078TIP3    H130175   6.770   7.643   4.402
10078TIP3    H230176   6.719   7.671   4.263
10079TIP3   OH230177   0.630   3.101   1.007
10079TIP3    H130178   0.616   3.184   0.962
10079TIP3    H230179   0.725   3.094   1.016
10080TIP3   OH230180   1.268   0.382   3.663
10080TIP3    H130181   1.282   0.321   3.735
10080TIP3    H230182   1.350   0.432   3.659
10081TIP3   OH230183   6.590   3.510   1.190
10081TIP3    H130184   6.675   3.549   1.171
10081TIP3    H230185   6.527   3.567   1.146
10082TIP3   OH230186   6.516   2.998   3.401
10082TIP3    H130187   6.603   2.959   3.407
10082TIP3    H230188   6.532   3.092   3.405
10083TIP3   OH230189   0.993   6.280   6.428
10083TIP3    H130190   1.028   6.287   6.340
10083TIP3    H230191   0.939   6.358   6.439
10084TIP3   OH230192   2.062   3.157   0.557
10084TIP3    H130193   2.077   3.139   0.650
10084TIP3    H230194   2.082   3.075   0.513
10085TIP3   OH230195   5.742   5.689   2.275
10085TIP3    H130196   5.680   5.745   2.320
10085TIP3    H230197   5.824   5.701   2.322
10086TIP3   OH230198   7.068   3.651   1.162
10086TIP3    H130199   7.148   3.599   1.163
10086TIP3    H230200   7.098   3.742   1.165
10087TIP3   OH230201   7.959   1.049   1.237
10087TIP3    H130202   7.874   1.017   1.267
10087TIP3    H230203   7.941   1.091   1.153
10088TIP3   OH230204   6.038   1.027   0.061
10088TIP3    H130205   6.106   1.061   0.119
10088TIP3    H230206   5.973   0.988   0.119
10089TIP3   OH230207   6.469   5.192   3.390
10089TIP3    H130208   6.514   5.176   3.308
10089TIP3    H230209   6.539   5.196   3.456
10090TIP3   OH230210   1.033   5.123   3.732
10090TIP3    H130211   1.127   5.123   3.746
10090TIP3    H230212   0.996   5.121   3.821
10091TIP3   OH230213   5.391   2.826   6.420
10091TIP3    H130214   5.301   2.804   6.445
10091TIP3    H230215   5.384   2.913   6.381
10092TIP3   OH230216   3.347   4.713   6.777
10092TIP3    H130217   3.322   4.795   6.819
10092TIP3    H230218   3.400   4.668   6.843
10093TIP3   OH230219   6.104   5.437   0.164
10093TIP3    H130220   6.188   5.451   0.121
10093TIP3    H230221   6.043   5.495   0.118
10094TIP3   OH230222   3.278   0.870   5.412
10094TIP3    H130223   3.372   0.862   5.432
10094TIP3    H230224   3.247   0.780   5.408
10095TIP3   OH230225   3.792   0.892   5.787
10095TIP3    H130226   3.864   0.916   5.845
10095TIP3    H230227   3.822   0.921   5.700
10096TIP3   OH230228   0.351   5.418   3.840
10096TIP3    H130229   0.433   5.373   3.857
10096TIP3    H230230   0.363   5.505   3.875
10097TIP3   OH230231   0.355   6.444   6.521
10097TIP3    H130232   0.375   6.353   6.499
10097TIP3    H230233   0.438   6.490   6.509
10098TIP3   OH230234   1.681   3.295   4.234
10098TIP3    H130235   1.649   3.206   4.223
10098TIP3    H230236   1.664   3.315   4.326
10099TIP3   OH230237   0.533   6.000   3.829
10099TIP3    H130238   0.468   5.959   3.772
10099TIP3    H230239   0.612   6.006   3.775
10100TIP3   OH230240   4.549   3.868   2.166
10100TIP3    H130241   4.619   3.870   2.231
10100TIP3    H230242   4.507   3.782   2.179
10101TIP3   OH230243   1.550   5.870   0.228
10101TIP3    H130244   1.574   5.943   0.171
10101TIP3    H230245   1.613   5.875   0.300
10102TIP3   OH230246   3.504   2.709   1.352
10102TIP3    H130247   3.412   2.729   1.339
10102TIP3    H230248   3.513   2.617   1.328
10103TIP3   OH230249   1.928   0.353   4.956
10103TIP3    H130250   1.916   0.279   4.897
10103TIP3    H230251   2.023   0.367   4.959
10104TIP3   OH230252   8.376   5.023   0.230
10104TIP3    H130253   8.319   5.081   0.180
10104TIP3    H230254   8.462   5.032   0.189
10105TIP3   OH230255   3.926   7.758   1.392
10105TIP3    H130256   3.836   7.760   1.423
10105TIP3    H230257   3.939   7.669   1.359
10106TIP3   OH230258   1.840   7.918   4.140
10106TIP3    H130259   1.770   7.868   4.097
10106TIP3    H230260   1.796   7.967   4.209
10107TIP3   OH230261   1.516   4.118   5.851
10107TIP3    H130262   1.594   4.125   5.795
10107TIP3    H230263   1.535   4.042   5.908
10108TIP3   OH230264   3.962   5.805   5.965
10108TIP3    H130265   3.895   5.826   5.900
10108TIP3    H230266   3.948   5.713   5.984
10109TIP3   OH230267   4.158   7.616   3.571
10109TIP3    H130268   4.229   7.673   3.539
10109TIP3    H230269   4.127   7.570   3.493
10110TIP3   OH230270   2.242   1.917   2.318
10110TIP3    H130271   2.271   1.896   2.230
10110TIP3    H230272   2.319   1.957   2.360
10111TIP3   OH230273   7.011   5.427   5.144
10111TIP3    H130274   7.047   5.500   5.194
10111TIP3    H230275   7.032   5.350   5.196
10112TIP3   OH230276   3.851   2.441   2.183
10112TIP3    H130277   3.848   2.402   2.095
10112TIP3    H230278   3.940   2.476   2.191
10113TIP3   OH230279   0.333   6.407   4.814
10113TIP3    H130280   0.300   6.482   4.765
10113TIP3    H230281   0.280   6.405   4.894
10114TIP3   OH230282   8.080   4.061   3.722
10114TIP3    H130283   8.021   4.127   3.758
10114TIP3    H230284   8.167   4.084   3.756
10115TIP3   OH230285   4.998   4.019   3.816
10115TIP3    H130286   4.987   4.016   3.721
10115TIP3    H230287   5.022   3.930   3.840
10116TIP3   OH230288   7.486   2.006   0.131
10116TIP3    H130289   7.424   1.964   0.191
10116TIP3    H230290   7.537   1.933   0.095
10117TIP3   OH230291   8.384   3.798   2.173
10117TIP3    H130292   8.321   3.855   2.218
10117TIP3    H230293   8.397   3.839   2.087
10118TIP3   OH230294   5.150   0.628   3.759
10118TIP3    H130295   5.103   0.551   3.725
10118TIP3    H230296   5.237   0.622   3.719
10119TIP3   OH230297   6.013   3.811   0.476
10119TIP3    H130298   5.990   3.722   0.452
10119TIP3    H230299   6.038   3.853   0.394
10120TIP3   OH230300   1.615   6.323   1.900
10120TIP3    H130301   1.547   6.341   1.964
10120TIP3    H230302   1.579   6.254   1.845
10121TIP3   OH230303   4.765   2.812   4.313
10121TIP3    H130304   4.820   2.890   4.322
10121TIP3    H230305   4.812   2.744   4.361
10122TIP3   OH230306   4.308   7.017   2.083
10122TIP3    H130307   4.278   6.972   2.161
10122TIP3    H230308   4.316   7.109   2.109
10123TIP3   OH230309   7.847   4.397   4.305
10123TIP3    H130310   7.842   4.394   4.400
10123TIP3    H230311   7.938   4.377   4.285
10124TIP3   OH230312   1.681   2.244   4.258
10124TIP3    H130313   1.642   2.158   4.276
10124TIP3    H230314   1.753   2.225   4.198
10125TIP3   OH230315   0.433   7.074   0.334
10125TIP3    H130316   0.454   7.079   0.427
10125TIP3    H230317   0.346   7.111   0.326
10126TIP3   OH230318   5.555   5.877   5.621
10126TIP3    H130319   5.464   5.904   5.610
10126TIP3    H230320   5.606   5.957   5.607
10127TIP3   OH230321   7.925   2.611   3.263
10127TIP3    H130322   7.948   2.682   3.322
10127TIP3    H230323   7.952   2.532   3.310
10128TIP3   OH230324   1.671   6.971   4.993
10128TIP3    H130325   1.650   7.049   5.044
10128TIP3    H230326   1.646   6.898   5.050
10129TIP3   OH230327   2.059   7.033   3.154
10129TIP3    H130328   1.973   7.050   3.193
10129TIP3    H230329   2.041   6.967   3.086
10130TIP3   OH230330   2.127   6.445   6.466
10130TIP3    H130331   2.085   6.383   6.527
10130TIP3    H230332   2.216   6.413   6.457
10131TIP3   OH230333   2.344   4.244   6.691
10131TIP3    H130334   2.270   4.300   6.667
10131TIP3    H230335   2.373   4.206   6.608
10132TIP3   OH230336   5.042   2.569   3.537
10132TIP3    H130337   4.992   2.596   3.614
10132TIP3    H230338   5.062   2.477   3.552
10133TIP3   OH230339   1.305   4.336   1.860
10133TIP3    H130340   1.280   4.415   1.813
10133TIP3    H230341   1.252   4.337   1.940
10134TIP3   OH230342   6.979   7.554   0.370
10134TIP3    H130343   6.999   7.545   0.463
10134TIP3    H230344   6.952   7.645   0.359
10135TIP3   OH230345   5.417   5.577   6.598
10135TIP3    H130346   5.456   5.652   6.642
10135TIP3    H230347   5.400   5.514   6.669
10136TIP3   OH230348   6.273   1.040   3.498
10136TIP3    H130349   6.281   0.945   3.506
10136TIP3    H230350   6.361   1.073   3.516
10137TIP3   OH230351   3.160   5.073   5.518
10137TIP3    H130352   3.103   5.049   5.591
10137TIP3    H230353   3.100   5.092   5.446
10138TIP3   OH230354   0.763   4.142   1.960
10138TIP3    H130355   0.814   4.192   2.024
10138TIP3    H230356   0.829   4.109   1.898
10139TIP3   OH230357   0.751   3.341   4.912
10139TIP3    H130358   0.703   3.416   4.877
10139TIP3    H230359   0.730   3.268   4.853
10140TIP3   OH230360   0.920   3.457   1.150
10140TIP3    H130361   0.831   3.435   1.121
10140TIP3    H230362   0.943   3.388   1.211
10141TIP3   OH230363   7.821   7.047   2.474
10141TIP3    H130364   7.823   7.103   2.396
10141TIP3    H230365   7.797   6.960   2.440
10142TIP3   OH230366   0.182   7.037   6.446
10142TIP3    H130367   0.230   7.066   6.368
10142TIP3    H230368   0.091   7.030   6.416
10143TIP3   OH230369   4.696   4.448   6.152
10143TIP3    H130370   4.629   4.497   6.200
10143TIP3    H230371   4.768   4.437   6.215
10144TIP3   OH230372   0.876   1.971   5.763
10144TIP3    H130373   0.917   1.894   5.723
10144TIP3    H230374   0.782   1.956   5.755
10145TIP3   OH230375   2.366   0.486   6.251
10145TIP3    H130376   2.319   0.551   6.302
10145TIP3    H230377   2.458   0.514   6.256
10146TIP3   OH230378   5.993   1.455   2.401
10146TIP3    H130379   5.907   1.423   2.426
10146TIP3    H230380   6.043   1.376   2.380
10147TIP3   OH230381   3.521   6.780   5.939
10147TIP3    H130382   3.474   6.699   5.961
10147TIP3    H230383   3.601   6.749   5.895
10148TIP3   OH230384   5.885   0.586   6.605
10148TIP3    H130385   5.892   0.547   6.518
10148TIP3    H230386   5.889   0.681   6.589
10149TIP3   OH230387   8.220   2.995   1.838
10149TIP3    H130388   8.300   3.015   1.888
10149TIP3    H230389   8.152   3.047   1.880
10150TIP3   OH230390   3.106   0.906   4.357
10150TIP3    H130391   3.136   0.816   4.340
10150TIP3    H230392   3.013   0.905   4.333
10151TIP3   OH230393   2.023   6.144   1.277
10151TIP3    H130394   2.076   6.181   1.207
10151TIP3    H230395   2.038   6.202   1.352
10152TIP3   OH230396   0.426   6.423   3.833
10152TIP3    H130397   0.480   6.479   3.889
10152TIP3    H230398   0.475   6.418   3.750
10153TIP3   OH230399   0.894   7.470   5.271
10153TIP3    H130400   0.990   7.472   5.272
10153TIP3    H230401   0.868   7.556   5.239
10154TIP3   OH230402   7.869   5.194   1.802
10154TIP3    H130403   7.812   5.129   1.760
10154TIP3    H230404   7.857   5.179   1.895
10155TIP3   OH230405   1.111   4.239   5.514
10155TIP3    H130406   1.094   4.333   5.522
10155TIP3    H230407   1.111   4.206   5.604
10156TIP3   OH230408   7.756   4.535   1.946
10156TIP3    H130409   7.739   4.442   1.931
10156TIP3    H230410   7.670   4.576   1.944
10157TIP3   OH230411   5.309   4.323   0.822
10157TIP3    H130412   5.253   4.397   0.798
10157TIP3    H230413   5.383   4.364   0.867
10158TIP3   OH230414   0.555   0.436   2.068
10158TIP3    H130415   0.469   0.433   2.026
10158TIP3    H230416   0.537   0.463   2.158
10159TIP3   OH230417   2.195   5.265   3.805
10159TIP3    H130418   2.141   5.304   3.873
10159TIP3    H230419   2.134   5.240   3.736
10160TIP3   OH230420   3.916   2.309   2.607
10160TIP3    H130421   3.858   2.315   2.532
10160TIP3    H230422   3.895   2.385   2.661
10161TIP3   OH230423   7.587   2.126   5.193
10161TIP3    H130424   7.595   2.195   5.128
10161TIP3    H230425   7.544   2.169   5.268
10162TIP3   OH230426   4.383   6.567   4.268
10162TIP3    H130427   4.475   6.549   4.290
10162TIP3    H230428   4.339   6.575   4.352
10163TIP3   OH230429   7.087   5.305   1.739
10163TIP3    H130430   7.058   5.349   1.819
10163TIP3    H230431   7.025   5.233   1.728
10164TIP3   OH230432   3.692   7.766   4.287
10164TIP3    H130433   3.658   7.737   4.371
10164TIP3    H230434   3.621   7.816   4.247
10165TIP3   OH230435   6.739   2.966   4.327
10165TIP3    H130436   6.741   3.051   4.283
10165TIP3    H230437   6.729   2.903   4.256
10166TIP3   OH230438   0.505   1.597   4.322
10166TIP3    H130439   0.416   1.626   4.297
10166TIP3    H230440   0.556   1.678   4.323
10167TIP3   OH230441   0.265   4.643   1.582
10167TIP3    H130442   0.192   4.703   1.597
10167TIP3    H230443   0.225   4.564   1.546
10168TIP3   OH230444   5.554   2.307   2.910
10168TIP3    H130445   5.601   2.283   2.990
10168TIP3    H230446   5.469   2.265   2.919
10169TIP3   OH230447   5.634   7.825   4.445
10169TIP3    H130448   5.578   7.855   4.517
10169TIP3    H230449   5.654   7.734   4.466
10170TIP3   OH230450   1.014   7.251   2.133
10170TIP3    H130451   1.061   7.287   2.208
10170TIP3    H230452   0.923   7.281   2.145
10171TIP3   OH230453   0.492   0.681   2.656
10171TIP3    H130454   0.575   0.696   2.701
10171TIP3    H230455   0.477   0.760   2.605
10172TIP3   OH230456   3.319   3.533   3.000
10172TIP3    H130457   3.304   3.623   2.969
10172TIP3    H230458   3.304   3.478   2.923
10173TIP3   OH230459   3.231   0.778   0.774
10173TIP3    H130460   3.176   0.797   0.850
10173TIP3    H230461   3.209   0.846   0.711
10174TIP3   OH230462   7.158   6.729   3.378
10174TIP3    H130463   7.065   6.744   3.364
10174TIP3    H230464   7.165   6.634   3.392
10175TIP3   OH230465   0.574   2.499   0.821
10175TIP3    H130466   0.656   2.492   0.773
10175TIP3    H230467   0.544   2.588   0.806
10176TIP3   OH230468   8.128   5.696   4.439
10176TIP3    H130469   8.206   5.731   4.483
10176TIP3    H230470   8.099   5.624   4.496
10177TIP3   OH230471   5.112   5.750   6.149
10177TIP3    H130472   5.111   5.689   6.223
10177TIP3    H230473   5.022   5.782   6.142
10178TIP3   OH230474   5.256   1.826   5.832
10178TIP3    H130475   5.243   1.731   5.838
10178TIP3    H230476   5.349   1.836   5.815
10179TIP3   OH230477   4.744   0.499   2.897
10179TIP3    H130478   4.708   0.530   2.980
10179TIP3    H230479   4.796   0.573   2.865
10180TIP3   OH230480   1.409   5.077   3.171
10180TIP3    H130481   1.461   4.996   3.161
10180TIP3    H230482   1.368   5.069   3.257
10181TIP3   OH230483   2.057   7.288   0.161
10181TIP3    H130484   1.986   7.274   0.099
10181TIP3    H230485   2.130   7.318   0.107
10182TIP3   OH230486   6.384   6.489   1.595
10182TIP3    H130487   6.476   6.494   1.572
10182TIP3    H230488   6.338   6.513   1.515
10183TIP3   OH230489   4.997   0.232   4.591
10183TIP3    H130490   4.923   0.178   4.617
10183TIP3    H230491   4.958   0.311   4.554
10184TIP3   OH230492   2.517   0.611   0.797
10184TIP3    H130493   2.500   0.637   0.887
10184TIP3    H230494   2.585   0.671   0.767
10185TIP3   OH230495   5.194   0.340   0.764
10185TIP3    H130496   5.192   0.425   0.808
10185TIP3    H230497   5.287   0.316   0.761
10186TIP3   OH230498   2.925   0.213   4.924
10186TIP3    H130499   2.958   0.276   4.860
10186TIP3    H230500   3.003   0.170   4.959
10187TIP3   OH230501   7.899   3.998   2.707
10187TIP3    H130502   7.934   3.919   2.666
10187TIP3    H230503   7.968   4.028   2.766
10188TIP3   OH230504   5.587   1.718   5.570
10188TIP3    H130505   5.637   1.789   5.529
10188TIP3    H230506   5.498   1.728   5.535
10189TIP3   OH230507   6.260   0.776   3.874
10189TIP3    H130508   6.320   0.817   3.811
10189TIP3    H230509   6.173   0.789   3.836
10190TIP3   OH230510   2.856   5.503   5.215
10190TIP3    H130511   2.859   5.410   5.240
10190TIP3    H230512   2.767   5.517   5.184
10191TIP3   OH230513   6.479   7.549   0.777
10191TIP3    H130514   6.472   7.474   0.835
10191TIP3    H230515   6.531   7.613   0.826
10192TIP3   OH230516   4.094   2.541   2.253
10192TIP3    H130517   4.102   2.629   2.216
10192TIP3    H230518   4.127   2.549   2.342
10193TIP3   OH230519   7.534   0.608   3.500
10193TIP3    H130520   7.572   0.630   3.415
10193TIP3    H230521   7.608   0.607   3.560
10194TIP3   OH230522   3.799   5.071   4.353
10194TIP3    H130523   3.730   5.005   4.346
10194TIP3    H230524   3.752   5.155   4.350
10195TIP3   OH230525   8.082   4.806   1.673
10195TIP3    H130526   8.013   4.774   1.731
10195TIP3    H230527   8.128   4.872   1.724
10196TIP3   OH230528   6.393   5.591   6.459
10196TIP3    H130529   6.369   5.642   6.536
10196TIP3    H230530   6.448   5.520   6.493
10197TIP3   OH230531   8.223   3.275   4.950
10197TIP3    H130532   8.228   3.361   4.992
10197TIP3    H230533   8.129   3.259   4.939
10198TIP3   OH230534   3.039   1.917   2.362
10198TIP3    H130535   3.070   1.965   2.439
10198TIP3    H230536   3.118   1.900   2.311
10199TIP3   OH230537   4.317   0.650   2.727
10199TIP3    H130538   4.368   0.712   2.778
10199TIP3    H230539   4.227   0.660   2.758
10200TIP3   OH230540   4.562   0.805   5.523
10200TIP3    H130541   4.608   0.779   5.602
10200TIP3    H230542   4.629   0.845   5.467
10201TIP3   OH230543   2.434   3.623   1.033
10201TIP3    H130544   2.428   3.583   0.945
10201TIP3    H230545   2.525   3.608   1.059
10202TIP3   OH230546   3.593   3.529   1.549
10202TIP3    H130547   3.575   3.557   1.638
10202TIP3    H230548   3.689   3.527   1.543
10203TIP3   OH230549   1.384   7.624   3.642
10203TIP3    H130550   1.331   7.604   3.564
10203TIP3    H230551   1.320   7.643   3.710
10204TIP3   OH230552   5.107   2.304   0.958
10204TIP3    H130553   5.127   2.254   0.879
10204TIP3    H230554   5.094   2.238   1.026
10205TIP3   OH230555   4.813   4.709   5.379
10205TIP3    H130556   4.811   4.801   5.352
10205TIP3    H230557   4.891   4.702   5.434
10206TIP3   OH230558   5.734   4.835   5.400
10206TIP3    H130559   5.709   4.910   5.453
10206TIP3    H230560   5.802   4.791   5.451
10207TIP3   OH230561   6.956   5.107   2.037
10207TIP3    H130562   6.998   5.055   1.968
10207TIP3    H230563   6.923   5.184   1.992
10208TIP3   OH230564   2.434   6.228   5.330
10208TIP3    H130565   2.349   6.227   5.286
10208TIP3    H230566   2.440   6.315   5.370
10209TIP3   OH230567   0.656   1.276   0.648
10209TIP3    H130568   0.588   1.246   0.587
10209TIP3    H230569   0.701   1.346   0.601
10210TIP3   OH230570   0.991   1.189   4.596
10210TIP3    H130571   1.078   1.155   4.576
10210TIP3    H230572   0.951   1.123   4.653
10211TIP3   OH230573   6.740   6.540   3.318
10211TIP3    H130574   6.664   6.598   3.314
10211TIP3    H230575   6.722   6.482   3.393
10212TIP3   OH230576   1.963   5.489   1.867
10212TIP3    H130577   1.972   5.583   1.854
10212TIP3    H230578   2.052   5.454   1.859
10213TIP3   OH230579   3.578   3.773   4.795
10213TIP3    H130580   3.542   3.740   4.878
10213TIP3    H230581   3.641   3.840   4.821
10214TIP3   OH230582   5.907   2.096   3.281
10214TIP3    H130583   5.992   2.070   3.318
10214TIP3    H230584   5.890   2.031   3.213
10215TIP3   OH230585   4.375   3.115   2.174
10215TIP3    H130586   4.428   3.055   2.227
10215TIP3    H230587   4.331   3.059   2.111
10216TIP3   OH230588   2.700   4.344   3.785
10216TIP3    H130589   2.707   4.356   3.690
10216TIP3    H230590   2.645   4.417   3.815
10217TIP3   OH230591   0.206   1.107   4.908
10217TIP3    H130592   0.196   1.166   4.833
10217TIP3    H230593   0.228   1.164   4.981
10218TIP3   OH230594   8.019   6.575   2.689
10218TIP3    H130595   8.065   6.548   2.768
10218TIP3    H230596   7.929   6.592   2.717
10219TIP3   OH230597   6.127   1.541   6.004
10219TIP3    H130598   6.042   1.557   5.965
10219TIP3    H230599   6.121   1.452   6.039
10220TIP3   OH230600   8.247   2.514   6.320
10220TIP3    H130601   8.213   2.425   6.326
10220TIP3    H230602   8.335   2.509   6.359
10221TIP3   OH230603   4.015   0.183   3.853
10221TIP3    H130604   4.089   0.213   3.905
10221TIP3    H230605   3.953   0.147   3.916
10222TIP3   OH230606   8.224   3.112   0.300
10222TIP3    H130607   8.141   3.072   0.326
10222TIP3    H230608   8.201   3.202   0.274
10223TIP3   OH230609   5.141   3.338   2.880
10223TIP3    H130610   5.090   3.330   2.960
10223TIP3    H230611   5.120   3.425   2.846
10224TIP3   OH230612   5.635   7.042   3.785
10224TIP3    H130613   5.611   7.101   3.856
10224TIP3    H230614   5.624   6.954   3.822
10225TIP3   OH230615   2.478   3.127   2.985
10225TIP3    H130616   2.503   3.152   3.074
10225TIP3    H230617   2.391   3.089   2.994
10226TIP3   OH230618   5.976   4.518   0.398
10226TIP3    H130619   5.967   4.604   0.359
10226TIP3    H230620   6.070   4.507   0.410
10227TIP3   OH230621   2.376   0.986   6.093
10227TIP3    H130622   2.378   0.909   6.150
10227TIP3    H230623   2.367   0.950   6.004
10228TIP3   OH230624   1.622   0.433   1.405
10228TIP3    H130625   1.574   0.462   1.482
10228TIP3    H230626   1.560   0.445   1.333
10229TIP3   OH230627   5.881   6.776   6.379
10229TIP3    H130628   5.967   6.741   6.402
10229TIP3    H230629   5.900   6.851   6.323
10230TIP3   OH230630   7.134   3.739   4.035
10230TIP3    H130631   7.116   3.760   4.126
10230TIP3    H230632   7.048   3.720   3.997
10231TIP3   OH230633   3.473   4.964   6.240
10231TIP3    H130634   3.562   4.972   6.275
10231TIP3    H230635   3.446   4.875   6.263
10232TIP3   OH230636   1.734   0.106   2.472
10232TIP3    H130637   1.781   0.065   2.400
10232TIP3    H230638   1.728   0.037   2.539
10233TIP3   OH230639   1.726   1.863   5.087
10233TIP3    H130640   1.752   1.867   5.179
10233TIP3    H230641   1.647   1.917   5.082
10234TIP3   OH230642   6.110   6.521   4.214
10234TIP3    H130643   6.204   6.539   4.202
10234TIP3    H230644   6.070   6.608   4.215
10235TIP3   OH230645   0.146   5.530   6.197
10235TIP3    H130646   0.108   5.500   6.115
10235TIP3    H230647   0.240   5.515   6.187
10236TIP3   OH230648   5.848   4.136   0.551
10236TIP3    H130649   5.771   4.108   0.501
10236TIP3    H230650   5.828   4.112   0.642
10237TIP3   OH230651   5.252   4.944   5.419
10237TIP3    H130652   5.196   4.949   5.342
10237TIP3    H230653   5.283   5.033   5.431
10238TIP3   OH230654   5.295   7.345   4.994
10238TIP3    H130655   5.277   7.391   5.076
10238TIP3    H230656   5.224   7.371   4.936
10239TIP3   OH230657   2.521   7.884   3.832
10239TIP3    H130658   2.603   7.932   3.847
10239TIP3    H230659   2.509   7.833   3.912
10240TIP3   OH230660   0.306   6.889   1.610
10240TIP3    H130661   0.250   6.884   1.532
10240TIP3    H230662   0.361   6.812   1.605
10241TIP3   OH230663   2.295   3.208   1.832
10241TIP3    H130664   2.350   3.133   1.853
10241TIP3    H230665   2.351   3.266   1.781
10242TIP3   OH230666   1.387   7.110   1.352
10242TIP3    H130667   1.419   7.020   1.344
10242TIP3    H230668   1.464   7.161   1.374
10243TIP3   OH230669   6.668   4.639   4.403
10243TIP3    H130670   6.582   4.656   4.364
10243TIP3    H230671   6.674   4.702   4.475
10244TIP3   OH230672   1.298   0.736   1.894
10244TIP3    H130673   1.311   0.772   1.982
10244TIP3    H230674   1.289   0.642   1.908
10245TIP3   OH230675   6.868   5.681   4.799
10245TIP3    H130676   6.819   5.614   4.751
10245TIP3    H230677   6.960   5.661   4.780
10246TIP3   OH230678   2.010   3.749   5.381
10246TIP3    H130679   2.007   3.713   5.292
10246TIP3    H230680   2.040   3.839   5.369
10247TIP3   OH230681   6.551   0.962   2.156
10247TIP3    H130682   6.465   0.978   2.115
10247TIP3    H230683   6.573   0.873   2.129
10248TIP3   OH230684   7.868   0.072   4.333
10248TIP3    H130685   7.836   0.114   4.253
10248TIP3    H230686   7.791   0.029   4.370
10249TIP3   OH230687   1.867   6.281   2.181
10249TIP3    H130688   1.792   6.242   2.227
10249TIP3    H230689   1.939   6.219   2.195
10250TIP3   OH230690   5.639   4.288   6.014
10250TIP3    H130691   5.580   4.219   6.045
10250TIP3    H230692   5.582   4.359   5.987
10251TIP3   OH230693   4.964   3.070   1.585
10251TIP3    H130694   4.973   3.030   1.671
10251TIP3    H230695   4.873   3.054   1.560
10252TIP3   OH230696   5.039   0.458   2.388
10252TIP3    H130697   5.127   0.492   2.372
10252TIP3    H230698   5.046   0.364   2.367
10253TIP3   OH230699   0.962   3.517   6.028
10253TIP3    H130700   1.048   3.548   6.057
10253TIP3    H230701   0.959   3.426   6.055
10254TIP3   OH230702   3.468   6.399   3.037
10254TIP3    H130703   3.554   6.381   2.998
10254TIP3    H230704   3.450   6.323   3.092
10255TIP3   OH230705   5.719   5.833   4.051
10255TIP3    H130706   5.721   5.868   3.962
10255TIP3    H230707   5.762   5.900   4.105
10256TIP3   OH230708   4.612   0.858   3.092
10256TIP3    H130709   4.631   0.902   3.174
10256TIP3    H230710   4.517   0.847   3.092
10257TIP3   OH230711   1.937   6.249   2.678
10257TIP3    H130712   1.870   6.181   2.687
10257TIP3    H230713   2.019   6.204   2.699
10258TIP3   OH230714   4.352   0.370   2.721
10258TIP3    H130715   4.338   0.465   2.722
10258TIP3    H230716   4.312   0.341   2.639
10259TIP3   OH230717   4.113   0.394   6.157
10259TIP3    H130718   4.086   0.363   6.243
10259TIP3    H230719   4.206   0.416   6.167
10260TIP3   OH230720   1.789   6.461   2.816
10260TIP3    H130721   1.701   6.471   2.780
10260TIP3    H230722   1.841   6.427   2.743
10261TIP3   OH230723   1.108   4.646   0.830
10261TIP3    H130724   1.075   4.640   0.920
10261TIP3    H230725   1.112   4.740   0.812
10262TIP3   OH230726   4.205   5.487   6.359
10262TIP3    H130727   4.169   5.442   6.282
10262TIP3    H230728   4.136   5.480   6.425
10263TIP3   OH230729   1.662   4.866   0.588
10263TIP3    H130730   1.568   4.869   0.605
10263TIP3    H230731   1.697   4.942   0.635
10264TIP3   OH230732   5.838   3.510   6.149
10264TIP3    H130733   5.872   3.552   6.229
10264TIP3    H230734   5.902   3.443   6.128
10265TIP3   OH230735   8.030   0.222   6.709
10265TIP3    H130736   8.057   0.251   6.622
10265TIP3    H230737   7.947   0.176   6.693
10266TIP3   OH230738   0.477   6.708   0.703
10266TIP3    H130739   0.539   6.693   0.631
10266TIP3    H230740   0.521   6.771   0.760
10267TIP3   OH230741   7.115   1.078   5.921
10267TIP3    H130742   7.208   1.083   5.897
10267TIP3    H230743   7.070   1.128   5.854
10268TIP3   OH230744   3.942   1.622   2.674
10268TIP3    H130745   3.914   1.662   2.756
10268TIP3    H230746   4.027   1.662   2.655
10269TIP3   OH230747   0.535   6.470   5.173
10269TIP3    H130748   0.447   6.444   5.201
10269TIP3    H230749   0.520   6.544   5.115
10270TIP3   OH230750   2.789   2.582   3.354
10270TIP3    H130751   2.830   2.645   3.295
10270TIP3    H230752   2.811   2.496   3.317
10271TIP3   OH230753   1.747   5.708   6.404
10271TIP3    H130754   1.820   5.764   6.379
10271TIP3    H230755   1.670   5.752   6.367
10272TIP3   OH230756   8.297   0.998   5.931
10272TIP3    H130757   8.247   0.931   5.977
10272TIP3    H230758   8.254   1.080   5.956
10273TIP3   OH230759   1.949   5.893   3.985
10273TIP3    H130760   2.025   5.950   3.977
10273TIP3    H230761   1.905   5.921   4.065
10274TIP3   OH230762   4.487   2.977   6.681
10274TIP3    H130763   4.496   2.948   6.772
10274TIP3    H230764   4.393   2.974   6.664
10275TIP3   OH230765   3.587   0.130   1.465
10275TIP3    H130766   3.569   0.040   1.437
10275TIP3    H230767   3.530   0.184   1.410
10276TIP3   OH230768   7.063   3.776   2.694
10276TIP3    H130769   7.051   3.855   2.745
10276TIP3    H230770   7.049   3.803   2.603
10277TIP3   OH230771   2.700   5.838   1.410
10277TIP3    H130772   2.707   5.813   1.502
10277TIP3    H230773   2.606   5.842   1.393
10278TIP3   OH230774   1.195   5.536   1.223
10278TIP3    H130775   1.150   5.614   1.257
10278TIP3    H230776   1.157   5.524   1.136
10279TIP3   OH230777   0.439   0.389   2.438
10279TIP3    H130778   0.453   0.341   2.520
10279TIP3    H230779   0.499   0.464   2.444
10280TIP3   OH230780   4.861   5.664   1.483
10280TIP3    H130781   4.944   5.615   1.482
10280TIP3    H230782   4.841   5.679   1.390
10281TIP3   OH230783   0.222   1.781   5.845
10281TIP3    H130784   0.289   1.757   5.781
10281TIP3    H230785   0.150   1.720   5.828
10282TIP3   OH230786   7.189   7.025   1.007
10282TIP3    H130787   7.258   7.003   1.070
10282TIP3    H230788   7.235   7.072   0.937
10283TIP3   OH230789   1.337   3.348   2.131
10283TIP3    H130790   1.419   3.326   2.088
10283TIP3    H230791   1.281   3.272   2.116
10284TIP3   OH230792   1.776   0.203   3.247
10284TIP3    H130793   1.824   0.284   3.231
10284TIP3    H230794   1.685   0.231   3.261
10285TIP3   OH230795   1.410   7.307   3.856
10285TIP3    H130796   1.500   7.312   3.824
10285TIP3    H230797   1.358   7.291   3.778
10286TIP3   OH230798   7.333   3.928   6.646
10286TIP3    H130799   7.390   3.990   6.601
10286TIP3    H230800   7.247   3.941   6.606
10287TIP3   OH230801   8.068   6.192   6.022
10287TIP3    H130802   7.998   6.184   5.957
10287TIP3    H230803   8.101   6.103   6.032
10288TIP3   OH230804   4.906   3.576   5.817
10288TIP3    H130805   4.816   3.593   5.790
10288TIP3    H230806   4.959   3.628   5.757
10289TIP3   OH230807   7.102   2.745   2.533
10289TIP3    H130808   7.115   2.746   2.439
10289TIP3    H230809   7.040   2.817   2.549
10290TIP3   OH230810   5.111   3.417   2.124
10290TIP3    H130811   5.107   3.340   2.067
10290TIP3    H230812   5.020   3.442   2.137
10291TIP3   OH230813   4.281   5.145   6.367
10291TIP3    H130814   4.352   5.201   6.401
10291TIP3    H230815   4.276   5.073   6.430
10292TIP3   OH230816   6.431   7.314   3.234
10292TIP3    H130817   6.360   7.371   3.204
10292TIP3    H230818   6.396   7.226   3.226
10293TIP3   OH230819   4.783   2.991   3.765
10293TIP3    H130820   4.699   3.030   3.789
10293TIP3    H230821   4.782   2.905   3.807
10294TIP3   OH230822   2.359   4.055   2.794
10294TIP3    H130823   2.344   3.967   2.829
10294TIP3    H230824   2.273   4.083   2.761
10295TIP3   OH230825   8.082   4.773   1.143
10295TIP3    H130826   8.064   4.771   1.237
10295TIP3    H230827   8.121   4.688   1.124
10296TIP3   OH230828   3.827   2.680   5.759
10296TIP3    H130829   3.921   2.680   5.780
10296TIP3    H230830   3.817   2.752   5.696
10297TIP3   OH230831   4.497   3.074   3.826
10297TIP3    H130832   4.514   3.091   3.919
10297TIP3    H230833   4.411   3.032   3.825
10298TIP3   OH230834   5.639   0.192   2.026
10298TIP3    H130835   5.600   0.277   2.008
10298TIP3    H230836   5.702   0.179   1.955
10299TIP3   OH230837   1.991   7.706   3.800
10299TIP3    H130838   2.047   7.702   3.722
10299TIP3    H230839   2.044   7.753   3.864
10300TIP3   OH230840   1.224   7.270   2.324
10300TIP3    H130841   1.242   7.248   2.415
10300TIP3    H230842   1.287   7.218   2.274
10301TIP3   OH230843   5.238   7.239   2.613
10301TIP3    H130844   5.247   7.180   2.688
10301TIP3    H230845   5.169   7.299   2.637
10302TIP3   OH230846   5.832   1.400   2.842
10302TIP3    H130847   5.837   1.484   2.886
10302TIP3    H230848   5.781   1.417   2.763
10303TIP3   OH230849   1.067   0.122   2.671
10303TIP3    H130850   0.971   0.131   2.672
10303TIP3    H230851   1.095   0.165   2.751
10304TIP3   OH230852   3.167   3.715   4.255
10304TIP3    H130853   3.209   3.801   4.257
10304TIP3    H230854   3.229   3.659   4.208
10305TIP3   OH230855   0.326   4.102   0.815
10305TIP3    H130856   0.295   4.032   0.758
10305TIP3    H230857   0.405   4.136   0.772
10306TIP3   OH230858   1.657   5.352   1.986
10306TIP3    H130859   1.628   5.365   2.076
10306TIP3    H230860   1.581   5.315   1.941
10307TIP3   OH230861   1.642   7.014   4.114
10307TIP3    H130862   1.561   7.029   4.067
10307TIP3    H230863   1.616   6.966   4.193
10308TIP3   OH230864   1.845   3.450   4.640
10308TIP3    H130865   1.784   3.489   4.577
10308TIP3    H230866   1.891   3.382   4.591
10309TIP3   OH230867   7.386   6.159   0.953
10309TIP3    H130868   7.459   6.100   0.938
10309TIP3    H230869   7.370   6.200   0.868
10310TIP3   OH230870   0.927   4.270   2.182
10310TIP3    H130871   1.004   4.298   2.232
10310TIP3    H230872   0.868   4.345   2.185
10311TIP3   OH230873   7.683   6.730   6.083
10311TIP3    H130874   7.640   6.809   6.049
10311TIP3    H230875   7.740   6.762   6.152
10312TIP3   OH230876   5.460   5.974   1.276
10312TIP3    H130877   5.422   5.902   1.327
10312TIP3    H230878   5.392   5.996   1.212
10313TIP3   OH230879   2.534   7.206   3.109
10313TIP3    H130880   2.466   7.242   3.167
10313TIP3    H230881   2.486   7.154   3.045
10314TIP3   OH230882   4.985   2.079   5.019
10314TIP3    H130883   5.062   2.023   5.016
10314TIP3    H230884   4.911   2.018   5.017
10315TIP3   OH230885   0.379   0.024   2.730
10315TIP3    H130886   0.402   0.114   2.706
10315TIP3    H230887   0.398   0.019   2.823
10316TIP3   OH230888   1.971   2.243   6.144
10316TIP3    H130889   2.019   2.326   6.154
10316TIP3    H230890   1.879   2.268   6.156
10317TIP3   OH230891   4.857   4.921   4.741
10317TIP3    H130892   4.869   4.863   4.665
10317TIP3    H230893   4.833   4.862   4.812
10318TIP3   OH230894   7.070   2.115   1.844
10318TIP3    H130895   7.067   2.074   1.931
10318TIP3    H230896   7.012   2.191   1.851
10319TIP3   OH230897   6.899   5.300   3.792
10319TIP3    H130898   6.904   5.266   3.703
10319TIP3    H230899   6.940   5.233   3.846
10320TIP3   OH230900   2.244   1.585   5.300
10320TIP3    H130901   2.281   1.658   5.250
10320TIP3    H230902   2.312   1.518   5.296
10321TIP3   OH230903   4.789   4.374   6.421
10321TIP3    H130904   4.774   4.287   6.384
10321TIP3    H230905   4.725   4.381   6.492
10322TIP3   OH230906   6.413   5.708   5.684
10322TIP3    H130907   6.404   5.803   5.683
10322TIP3    H230908   6.449   5.687   5.770
10323TIP3   OH230909   5.780   2.634   5.654
10323TIP3    H130910   5.872   2.659   5.652
10323TIP3    H230911   5.759   2.630   5.748
10324TIP3   OH230912   3.307   5.097   5.152
10324TIP3    H130913   3.361   5.158   5.203
10324TIP3    H230914   3.369   5.033   5.117
10325TIP3   OH230915   1.778   2.157   5.311
10325TIP3    H130916   1.804   2.219   5.379
10325TIP3    H230917   1.689   2.132   5.336
10326TIP3   OH230918   4.674   7.826   5.586
10326TIP3    H130919   4.641   7.861   5.503
10326TIP3    H230920   4.769   7.837   5.580
10327TIP3   OH230921   0.360   6.815   2.794
10327TIP3    H130922   0.421   6.774   2.732
10327TIP3    H230923   0.410   6.888   2.831
10328TIP3   OH230924   0.619   6.124   0.693
10328TIP3    H130925   0.631   6.163   0.780
10328TIP3    H230926   0.672   6.044   0.696
10329TIP3   OH230927   5.456   3.550   1.534
10329TIP3    H130928   5.522   3.534   1.467
10329TIP3    H230929   5.433   3.463   1.567
10330TIP3   OH230930   7.068   2.339   3.729
10330TIP3    H130931   7.035   2.284   3.799
10330TIP3    H230932   7.028   2.425   3.743
10331TIP3   OH230933   5.307   4.464   6.542
10331TIP3    H130934   5.222   4.507   6.536
10331TIP3    H230935   5.349   4.506   6.617
10332TIP3   OH230936   4.078   7.919   0.722
10332TIP3    H130937   4.132   7.951   0.795
10332TIP3    H230938   4.137   7.862   0.673
10333TIP3   OH230939   2.089   4.638   1.656
10333TIP3    H130940   1.998   4.664   1.640
10333TIP3    H230941   2.140   4.693   1.597
10334TIP3   OH230942   8.005   3.453   3.257
10334TIP3    H130943   8.095   3.454   3.289
10334TIP3    H230944   8.008   3.397   3.179
10335TIP3   OH230945   6.354   2.689   6.219
10335TIP3    H130946   6.315   2.603   6.228
10335TIP3    H230947   6.312   2.727   6.142
10336TIP3   OH230948   5.784   6.132   5.154
10336TIP3    H130949   5.848   6.204   5.158
10336TIP3    H230950   5.804   6.077   5.230
10337TIP3   OH230951   3.938   6.249   3.594
10337TIP3    H130952   3.978   6.217   3.513
10337TIP3    H230953   4.011   6.253   3.657
10338TIP3   OH230954   0.911   5.850   3.092
10338TIP3    H130955   0.851   5.880   3.023
10338TIP3    H230956   0.992   5.830   3.045
10339TIP3   OH230957   7.064   4.108   4.142
10339TIP3    H130958   7.014   4.036   4.105
10339TIP3    H230959   7.154   4.092   4.113
10340TIP3   OH230960   1.014   4.186   3.522
10340TIP3    H130961   0.957   4.200   3.447
10340TIP3    H230962   1.072   4.262   3.523
10341TIP3   OH230963   5.854   7.218   5.143
10341TIP3    H130964   5.826   7.129   5.121
10341TIP3    H230965   5.846   7.267   5.062
10342TIP3   OH230966   4.441   3.755   4.355
10342TIP3    H130967   4.360   3.750   4.405
10342TIP3    H230968   4.463   3.664   4.334
10343TIP3   OH230969   4.230   5.046   2.029
10343TIP3    H130970   4.238   5.136   2.058
10343TIP3    H230971   4.320   5.015   2.018
10344TIP3   OH230972   1.595   4.999   2.214
10344TIP3    H130973   1.667   5.014   2.275
10344TIP3    H230974   1.594   5.077   2.158
10345TIP3   OH230975   7.163   1.997   3.685
10345TIP3    H130976   7.174   1.903   3.691
10345TIP3    H230977   7.245   2.029   3.649
10346TIP3   OH230978   5.422   7.270   3.637
10346TIP3    H130979   5.482   7.199   3.614
10346TIP3    H230980   5.357   7.230   3.694
10347TIP3   OH230981   7.816   3.856   1.522
10347TIP3    H130982   7.755   3.809   1.579
10347TIP3    H230983   7.899   3.809   1.533
10348TIP3   OH230984   0.995   1.132   2.271
10348TIP3    H130985   1.087   1.149   2.290
10348TIP3    H230986   0.984   1.039   2.289
10349TIP3   OH230987   6.597   3.169   1.030
10349TIP3    H130988   6.624   3.239   0.969
10349TIP3    H230989   6.643   3.189   1.111
10350TIP3   OH230990   0.904   6.795   4.916
10350TIP3    H130991   0.966   6.779   4.844
10350TIP3    H230992   0.909   6.889   4.931
10351TIP3   OH230993   1.350   5.849   2.110
10351TIP3    H130994   1.288   5.801   2.164
10351TIP3    H230995   1.362   5.794   2.032
10352TIP3   OH230996   6.859   7.375   5.767
10352TIP3    H130997   6.816   7.341   5.846
10352TIP3    H230998   6.846   7.306   5.702
10353TIP3   OH230999   6.431   0.633   4.200
10353TIP3    H131000   6.429   0.591   4.114
10353TIP3    H231001   6.522   0.659   4.212
10354TIP3   OH231002   0.961   3.714   4.000
10354TIP3    H131003   0.987   3.655   4.071
10354TIP3    H231004   0.877   3.751   4.029
10355TIP3   OH231005   2.992   1.269   2.176
10355TIP3    H131006   3.026   1.179   2.176
10355TIP3    H231007   3.059   1.319   2.128
10356TIP3   OH231008   0.664   3.086   0.653
10356TIP3    H131009   0.697   3.032   0.581
10356TIP3    H231010   0.702   3.048   0.731
10357TIP3   OH231011   1.546   6.106   0.663
10357TIP3    H131012   1.454   6.114   0.638
10357TIP3    H231013   1.544   6.057   0.746
10358TIP3   OH231014   6.799   4.363   1.935
10358TIP3    H131015   6.847   4.372   2.018
10358TIP3    H231016   6.716   4.408   1.951
10359TIP3   OH231017   3.730   4.960   6.372
10359TIP3    H131018   3.784   5.003   6.438
10359TIP3    H231019   3.762   4.870   6.370
10360TIP3   OH231020   1.885   7.534   5.431
10360TIP3    H131021   1.895   7.452   5.382
10360TIP3    H231022   1.809   7.576   5.390
10361TIP3   OH231023   6.452   6.161   1.561
10361TIP3    H131024   6.483   6.072   1.578
10361TIP3    H231025   6.529   6.216   1.577
10362TIP3   OH231026   6.422   5.620   5.217
10362TIP3    H131027   6.507   5.616   5.173
10362TIP3    H231028   6.409   5.713   5.234
10363TIP3   OH231029   2.236   6.755   4.872
10363TIP3    H131030   2.317   6.766   4.823
10363TIP3    H231031   2.167   6.751   4.806
10364TIP3   OH231032   2.896   4.363   1.186
10364TIP3    H131033   2.946   4.327   1.114
10364TIP3    H231034   2.951   4.433   1.221
10365TIP3   OH231035   6.604   2.247   1.915
10365TIP3    H131036   6.540   2.287   1.975
10365TIP3    H231037   6.589   2.153   1.925
10366TIP3   OH231038   8.096   3.470   0.542
10366TIP3    H131039   8.086   3.380   0.573
10366TIP3    H231040   8.007   3.506   0.542
10367TIP3   OH231041   6.036   5.048   5.485
10367TIP3    H131042   5.955   4.998   5.499
10367TIP3    H231043   6.102   4.981   5.469
10368TIP3   OH231044   6.625   0.911   1.408
10368TIP3    H131045   6.543   0.889   1.364
10368TIP3    H231046   6.601   0.922   1.500
10369TIP3   OH231047   7.406   5.796   0.868
10369TIP3    H131048   7.332   5.791   0.807
10369TIP3    H231049   7.395   5.718   0.923
10370TIP3   OH231050   1.466   6.644   5.536
10370TIP3    H131051   1.394   6.654   5.598
10370TIP3    H231052   1.424   6.651   5.450
10371TIP3   OH231053   8.119   5.906   4.094
10371TIP3    H131054   8.205   5.916   4.134
10371TIP3    H231055   8.095   5.815   4.111
10372TIP3   OH231056   3.754   1.613   1.306
10372TIP3    H131057   3.815   1.658   1.248
10372TIP3    H231058   3.700   1.682   1.343
10373TIP3   OH231059   3.408   7.898   0.046
10373TIP3    H131060   3.492   7.852   0.039
10373TIP3    H231061   3.348   7.847  -0.007
10374TIP3   OH231062   1.737   3.610   2.824
10374TIP3    H131063   1.770   3.614   2.914
10374TIP3    H231064   1.792   3.544   2.782
10375TIP3   OH231065   0.611   2.475   2.300
10375TIP3    H131066   0.522   2.439   2.306
10375TIP3    H231067   0.668   2.398   2.298
10376TIP3   OH231068   4.583   2.589   4.262
10376TIP3    H131069   4.530   2.569   4.184
10376TIP3    H231070   4.631   2.668   4.239
10377TIP3   OH231071   3.042   0.319   0.213
10377TIP3    H131072   3.104   0.278   0.272
10377TIP3    H231073   2.963   0.266   0.219
10378TIP3   OH231074   4.515   3.652   6.689
10378TIP3    H131075   4.431   3.610   6.705
10378TIP3    H231076   4.577   3.579   6.683
10379TIP3   OH231077   1.540   5.765   4.275
10379TIP3    H131078   1.523   5.833   4.209
10379TIP3    H231079   1.609   5.711   4.236
10380TIP3   OH231080   6.873   7.385   4.302
10380TIP3    H131081   6.855   7.365   4.394
10380TIP3    H231082   6.858   7.480   4.295
10381TIP3   OH231083   4.346   0.260   6.308
10381TIP3    H131084   4.406   0.188   6.291
10381TIP3    H231085   4.400   0.326   6.353
10382TIP3   OH231086   0.396   1.834   6.159
10382TIP3    H131087   0.433   1.804   6.242
10382TIP3    H231088   0.394   1.756   6.104
10383TIP3   OH231089   7.013   7.519   2.272
10383TIP3    H131090   7.104   7.527   2.300
10383TIP3    H231091   7.000   7.592   2.212
10384TIP3   OH231092   2.761   5.079   1.280
10384TIP3    H131093   2.778   5.078   1.374
10384TIP3    H231094   2.670   5.106   1.272
10385TIP3   OH231095   3.111   1.357   0.542
10385TIP3    H131096   3.143   1.318   0.624
10385TIP3    H231097   3.189   1.363   0.487
10386TIP3   OH231098   0.772   0.806   1.351
10386TIP3    H131099   0.778   0.898   1.374
10386TIP3    H231100   0.679   0.790   1.338
10387TIP3   OH231101   8.296   1.764   0.668
10387TIP3    H131102   8.351   1.732   0.739
10387TIP3    H231103   8.222   1.807   0.712
10388TIP3   OH231104   6.815   3.334   3.465
10388TIP3    H131105   6.730   3.315   3.424
10388TIP3    H231106   6.791   3.372   3.550
10389TIP3   OH231107   0.111   6.290   4.102
10389TIP3    H131108   0.061   6.321   4.026
10389TIP3    H231109   0.108   6.195   4.096
10390TIP3   OH231110   6.609   1.857   0.046
10390TIP3    H131111   6.615   1.762   0.035
10390TIP3    H231112   6.626   1.871   0.139
10391TIP3   OH231113   4.394   3.694   5.782
10391TIP3    H131114   4.305   3.719   5.759
10391TIP3    H231115   4.398   3.707   5.877
10392TIP3   OH231116  -0.005   5.726   0.057
10392TIP3    H131117   0.055   5.771   0.117
10392TIP3    H231118  -0.006   5.635   0.086
10393TIP3   OH231119   0.224   3.203   3.456
10393TIP3    H131120   0.180   3.276   3.499
10393TIP3    H231121   0.165   3.129   3.468
10394TIP3   OH231122   0.938   1.822   1.149
10394TIP3    H131123   0.911   1.781   1.067
10394TIP3    H231124   0.859   1.866   1.181
10395TIP3   OH231125   8.305   5.988   2.870
10395TIP3    H131126   8.246   5.996   2.795
10395TIP3    H231127   8.253   6.016   2.945
10396TIP3   OH231128   1.267   1.092   4.645
10396TIP3    H131129   1.291   1.047   4.726
10396TIP3    H231130   1.314   1.175   4.649
10397TIP3   OH231131   6.736   7.038   3.950
10397TIP3    H131132   6.807   7.092   3.916
10397TIP3    H231133   6.708   7.082   4.030
10398TIP3   OH231134   7.841   4.331   2.694
10398TIP3    H131135   7.896   4.281   2.634
10398TIP3    H231136   7.899   4.398   2.729
10399TIP3   OH231137   7.400   1.050   5.223
10399TIP3    H131138   7.330   1.091   5.172
10399TIP3    H231139   7.457   1.123   5.247
10400TIP3   OH231140   7.331   4.047   2.803
10400TIP3    H131141   7.415   4.046   2.757
10400TIP3    H231142   7.265   4.035   2.735
10401TIP3   OH231143   5.395   2.214   1.673
10401TIP3    H131144   5.434   2.295   1.640
10401TIP3    H231145   5.458   2.181   1.737
10402TIP3   OH231146   7.832   0.332   0.449
10402TIP3    H131147   7.903   0.280   0.487
10402TIP3    H231148   7.798   0.383   0.522
10403TIP3   OH231149   8.251   2.306   2.076
10403TIP3    H131150   8.277   2.339   1.990
10403TIP3    H231151   8.271   2.213   2.072
10404TIP3   OH231152   2.717   5.401   6.101
10404TIP3    H131153   2.704   5.308   6.084
10404TIP3    H231154   2.660   5.420   6.176
10405TIP3   OH231155   8.171   6.611   0.596
10405TIP3    H131156   8.239   6.544   0.604
10405TIP3    H231157   8.208   6.688   0.639
10406TIP3   OH231158   1.040   7.728   2.309
10406TIP3    H131159   1.026   7.639   2.279
10406TIP3    H231160   0.953   7.767   2.310
10407TIP3   OH231161   2.380   0.639   2.402
10407TIP3    H131162   2.345   0.558   2.439
10407TIP3    H231163   2.469   0.645   2.436
10408TIP3   OH231164   5.618   3.224   3.446
10408TIP3    H131165   5.578   3.205   3.362
10408TIP3    H231166   5.700   3.174   3.446
10409TIP3   OH231167   6.251   4.590   0.435
10409TIP3    H131168   6.336   4.613   0.397
10409TIP3    H231169   6.267   4.509   0.484
10410TIP3   OH231170   5.582   5.557   1.186
10410TIP3    H131171   5.584   5.463   1.167
10410TIP3    H231172   5.643   5.568   1.259
10411TIP3   OH231173   0.317   0.804   6.129
10411TIP3    H131174   0.358   0.885   6.159
10411TIP3    H231175   0.256   0.832   6.060
10412TIP3   OH231176   5.197   6.381   6.201
10412TIP3    H131177   5.113   6.423   6.183
10412TIP3    H231178   5.184   6.290   6.176
10413TIP3   OH231179   0.052   1.610   1.163
10413TIP3    H131180  -0.025   1.586   1.214
10413TIP3    H231181   0.095   1.527   1.144
10414TIP3   OH231182   4.696   3.037   1.540
10414TIP3    H131183   4.665   3.097   1.607
10414TIP3    H231184   4.652   3.066   1.459
10415TIP3   OH231185   7.568   1.224   6.572
10415TIP3    H131186   7.488   1.278   6.580
10415TIP3    H231187   7.538   1.135   6.585
10416TIP3   OH231188   1.018   4.073   1.358
10416TIP3    H131189   0.945   4.036   1.408
10416TIP3    H231190   0.997   4.167   1.351
10417TIP3   OH231191   7.772   6.980   1.190
10417TIP3    H131192   7.835   6.913   1.217
10417TIP3    H231193   7.788   6.991   1.096
10418TIP3   OH231194   3.941   1.410   0.251
10418TIP3    H131195   3.953   1.443   0.340
10418TIP3    H231196   3.849   1.424   0.232
10419TIP3   OH231197   6.496   5.823   1.965
10419TIP3    H131198   6.493   5.769   2.044
10419TIP3    H231199   6.427   5.888   1.978
10420TIP3   OH231200   6.949   7.712   4.041
10420TIP3    H131201   6.986   7.701   4.129
10420TIP3    H231202   6.856   7.692   4.051
10421TIP3   OH231203   0.271   4.367   1.469
10421TIP3    H131204   0.351   4.323   1.496
10421TIP3    H231205   0.207   4.297   1.459
10422TIP3   OH231206   3.495   7.665   4.462
10422TIP3    H131207   3.412   7.692   4.423
10422TIP3    H231208   3.501   7.713   4.544
10423TIP3   OH231209   0.089   0.708   6.565
10423TIP3    H131210   0.036   0.635   6.598
10423TIP3    H231211   0.164   0.711   6.624
10424TIP3   OH231212   7.697   6.819   2.360
10424TIP3    H131213   7.726   6.785   2.276
10424TIP3    H231214   7.603   6.799   2.363
10425TIP3   OH231215   2.220   2.712   3.894
10425TIP3    H131216   2.280   2.643   3.920
10425TIP3    H231217   2.273   2.792   3.897
10426TIP3   OH231218   5.341   5.849   3.912
10426TIP3    H131219   5.378   5.921   3.861
10426TIP3    H231220   5.278   5.890   3.971
10427TIP3   OH231221   3.343   0.303   0.236
10427TIP3    H131222   3.381   0.389   0.222
10427TIP3    H231223   3.374   0.250   0.162
10428TIP3   OH231224   7.886   1.149   1.737
10428TIP3    H131225   7.794   1.174   1.729
10428TIP3    H231226   7.887   1.055   1.721
10429TIP3   OH231227   5.348   1.213   6.045
10429TIP3    H131228   5.378   1.261   5.968
10429TIP3    H231229   5.405   1.241   6.116
10430TIP3   OH231230   8.101   3.976   5.580
10430TIP3    H131231   8.080   3.884   5.599
10430TIP3    H231232   8.029   4.006   5.526
10431TIP3   OH231233   2.048   7.726   4.906
10431TIP3    H131234   2.133   7.763   4.927
10431TIP3    H231235   1.993   7.802   4.885
10432TIP3   OH231236   1.769   5.956   6.141
10432TIP3    H131237   1.787   5.993   6.055
10432TIP3    H231238   1.723   6.026   6.188
10433TIP3   OH231239   3.651   3.422   6.474
10433TIP3    H131240   3.675   3.438   6.566
10433TIP3    H231241   3.619   3.332   6.474
10434TIP3   OH231242   4.100   0.058   3.622
10434TIP3    H131243   4.187   0.024   3.641
10434TIP3    H231244   4.067   0.090   3.706
10435TIP3   OH231245   1.796   1.462   3.989
10435TIP3    H131246   1.876   1.498   3.950
10435TIP3    H231247   1.773   1.525   4.058
10436TIP3   OH231248   7.822   1.445   6.005
10436TIP3    H131249   7.776   1.517   6.049
10436TIP3    H231250   7.853   1.389   6.076
10437TIP3   OH231251   8.133   6.025   2.627
10437TIP3    H131252   8.045   6.012   2.661
10437TIP3    H231253   8.122   6.026   2.532
10438TIP3   OH231254   2.997   4.189   5.498
10438TIP3    H131255   2.974   4.096   5.505
10438TIP3    H231256   3.030   4.198   5.408
10439TIP3   OH231257   7.382   6.319  -0.052
10439TIP3    H131258   7.424   6.237  -0.026
10439TIP3    H231259   7.412   6.382   0.014
10440TIP3   OH231260   5.378   1.738   5.175
10440TIP3    H131261   5.360   1.724   5.268
10440TIP3    H231262   5.415   1.655   5.145
10441TIP3   OH231263   4.733   6.689   3.205
10441TIP3    H131264   4.724   6.782   3.182
10441TIP3    H231265   4.697   6.643   3.129
10442TIP3   OH231266   5.322   7.720   3.973
10442TIP3    H131267   5.373   7.730   4.053
10442TIP3    H231268   5.341   7.631   3.944
10443TIP3   OH231269   2.555   3.824   5.805
10443TIP3    H131270   2.535   3.767   5.730
10443TIP3    H231271   2.607   3.895   5.768
10444TIP3   OH231272   8.286   2.176   5.971
10444TIP3    H131273   8.305   2.083   5.960
10444TIP3    H231274   8.193   2.178   5.997
10445TIP3   OH231275   4.230   0.258   0.696
10445TIP3    H131276   4.210   0.169   0.667
10445TIP3    H231277   4.317   0.251   0.737
10446TIP3   OH231278   3.028   0.681   3.860
10446TIP3    H131279   2.981   0.676   3.777
10446TIP3    H231280   3.072   0.766   3.857
10447TIP3   OH231281   1.233   2.585   6.174
10447TIP3    H131282   1.234   2.681   6.171
10447TIP3    H231283   1.178   2.564   6.249
10448TIP3   OH231284   1.943   4.592   5.181
10448TIP3    H131285   1.924   4.563   5.092
10448TIP3    H231286   2.031   4.628   5.176
10449TIP3   OH231287   2.391   3.439   2.873
10449TIP3    H131288   2.335   3.476   2.941
10449TIP3    H231289   2.478   3.474   2.892
10450TIP3   OH231290   1.020   0.066   6.617
10450TIP3    H131291   0.959   0.133   6.648
10450TIP3    H231292   1.098   0.115   6.590
10451TIP3   OH231293   4.212   3.011   3.069
10451TIP3    H131294   4.294   3.058   3.051
10451TIP3    H231295   4.187   3.039   3.157
10452TIP3   OH231296   1.887   7.407   3.698
10452TIP3    H131297   1.823   7.357   3.749
10452TIP3    H231298   1.875   7.498   3.727
10453TIP3   OH231299   5.866   7.840   4.256
10453TIP3    H131300   5.794   7.874   4.310
10453TIP3    H231301   5.883   7.909   4.192
10454TIP3   OH231302   0.139   2.990   3.932
10454TIP3    H131303   0.103   3.055   3.872
10454TIP3    H231304   0.209   2.948   3.882
10455TIP3   OH231305   4.724   4.584   1.911
10455TIP3    H131306   4.649   4.525   1.904
10455TIP3    H231307   4.690   4.670   1.886
10456TIP3   OH231308   1.077   5.030   5.235
10456TIP3    H131309   1.059   4.957   5.295
10456TIP3    H231310   1.055   5.108   5.285
10457TIP3   OH231311   2.284   5.867   2.391
10457TIP3    H131312   2.295   5.814   2.470
10457TIP3    H231313   2.298   5.957   2.420
10458TIP3   OH231314   2.786   0.534   4.592
10458TIP3    H131315   2.821   0.615   4.627
10458TIP3    H231316   2.693   0.534   4.617
10459TIP3   OH231317   5.731   3.521   2.908
10459TIP3    H131318   5.668   3.584   2.873
10459TIP3    H231319   5.805   3.525   2.848
10460TIP3   OH231320   0.578   6.460   0.456
10460TIP3    H131321   0.628   6.522   0.509
10460TIP3    H231322   0.488   6.491   0.461
10461TIP3   OH231323   7.666   4.353   1.164
10461TIP3    H131324   7.692   4.345   1.073
10461TIP3    H231325   7.641   4.445   1.175
10462TIP3   OH231326   1.809   6.859   3.971
10462TIP3    H131327   1.743   6.893   4.031
10462TIP3    H231328   1.889   6.855   4.023
10463TIP3   OH231329   5.287   0.294   2.656
10463TIP3    H131330   5.280   0.217   2.712
10463TIP3    H231331   5.219   0.353   2.688
10464TIP3   OH231332   7.188   3.804   2.203
10464TIP3    H131333   7.146   3.890   2.199
10464TIP3    H231334   7.122   3.743   2.171
10465TIP3   OH231335   5.942   2.407   0.405
10465TIP3    H131336   6.015   2.366   0.359
10465TIP3    H231337   5.876   2.420   0.337
10466TIP3   OH231338   0.701   1.897   0.205
10466TIP3    H131339   0.729   1.941   0.125
10466TIP3    H231340   0.606   1.890   0.197
10467TIP3   OH231341   8.184  -0.040   3.656
10467TIP3    H131342   8.104  -0.004   3.693
10467TIP3    H231343   8.184  -0.011   3.565
10468TIP3   OH231344   6.635   6.565   0.533
10468TIP3    H131345   6.584   6.634   0.491
10468TIP3    H231346   6.722   6.603   0.546
10469TIP3   OH231347   0.477   5.687   0.544
10469TIP3    H131348   0.496   5.729   0.628
10469TIP3    H231349   0.469   5.760   0.482
10470TIP3   OH231350   6.942   7.135   6.171
10470TIP3    H131351   6.967   7.129   6.263
10470TIP3    H231352   6.848   7.119   6.170
10471TIP3   OH231353   3.681   7.408   4.675
10471TIP3    H131354   3.587   7.408   4.656
10471TIP3    H231355   3.696   7.326   4.721
10472TIP3   OH231356   7.677   3.703   1.960
10472TIP3    H131357   7.600   3.679   1.909
10472TIP3    H231358   7.664   3.661   2.045
10473TIP3   OH231359   8.332   4.655   4.405
10473TIP3    H131360   8.378   4.732   4.437
10473TIP3    H231361   8.239   4.677   4.413
10474TIP3   OH231362   2.860   2.197   6.316
10474TIP3    H131363   2.925   2.236   6.257
10474TIP3    H231364   2.786   2.176   6.260
10475TIP3   OH231365   6.260   5.990   1.198
10475TIP3    H131366   6.182   5.983   1.254
10475TIP3    H231367   6.318   5.920   1.228
10476TIP3   OH231368   2.339   5.422   0.426
10476TIP3    H131369   2.317   5.424   0.332
10476TIP3    H231370   2.428   5.456   0.430
10477TIP3   OH231371   7.630   2.602   2.378
10477TIP3    H131372   7.720   2.626   2.358
10477TIP3    H231373   7.595   2.678   2.425
10478TIP3   OH231374   7.097   2.850   2.821
10478TIP3    H131375   7.188   2.879   2.828
10478TIP3    H231376   7.074   2.863   2.729
10479TIP3   OH231377   2.875   5.216   2.201
10479TIP3    H131378   2.891   5.161   2.278
10479TIP3    H231379   2.895   5.159   2.127
10480TIP3   OH231380   2.423   5.906   6.201
10480TIP3    H131381   2.491   5.959   6.242
10480TIP3    H231382   2.456   5.816   6.204
10481TIP3   OH231383   0.683   2.028   6.615
10481TIP3    H131384   0.625   2.084   6.667
10481TIP3    H231385   0.643   2.027   6.528
10482TIP3   OH231386   5.056   4.401   6.187
10482TIP3    H131387   5.144   4.381   6.218
10482TIP3    H231388   5.000   4.386   6.264
10483TIP3   OH231389   2.496   0.975   6.765
10483TIP3    H131390   2.584   0.937   6.768
10483TIP3    H231391   2.442   0.907   6.725
10484TIP3   OH231392   8.280   4.532   2.897
10484TIP3    H131393   8.313   4.487   2.819
10484TIP3    H231394   8.308   4.477   2.970
10485TIP3   OH231395   7.115   5.904   5.946
10485TIP3    H131396   7.121   5.961   6.022
10485TIP3    H231397   7.042   5.845   5.965
10486TIP3   OH231398   6.516   7.037   3.775
10486TIP3    H131399   6.527   7.035   3.680
10486TIP3    H231400   6.604   7.025   3.810
10487TIP3   OH231401   3.710   6.140   1.487
10487TIP3    H131402   3.709   6.180   1.400
10487TIP3    H231403   3.798   6.102   1.495
10488TIP3   OH231404   3.216   5.375   1.348
10488TIP3    H131405   3.253   5.406   1.265
10488TIP3    H231406   3.151   5.310   1.322
10489TIP3   OH231407   3.927   6.243   5.889
10489TIP3    H131408   3.997   6.263   5.950
10489TIP3    H231409   3.970   6.195   5.818
10490TIP3   OH231410   6.586   3.895   1.000
10490TIP3    H131411   6.607   3.939   1.082
10490TIP3    H231412   6.672   3.878   0.960
10491TIP3   OH231413   4.999   7.826   1.566
10491TIP3    H131414   5.082   7.869   1.588
10491TIP3    H231415   5.016   7.733   1.582
10492TIP3   OH231416   6.893   0.263   5.310
10492TIP3    H131417   6.893   0.248   5.404
10492TIP3    H231418   6.913   0.178   5.272
10493TIP3   OH231419   6.967   3.071   4.785
10493TIP3    H131420   6.893   3.129   4.770
10493TIP3    H231421   6.971   3.016   4.707
10494TIP3   OH231422   1.256   3.080   6.353
10494TIP3    H131423   1.169   3.055   6.383
10494TIP3    H231424   1.313   3.063   6.428
10495TIP3   OH231425   3.254   4.234   4.843
10495TIP3    H131426   3.332   4.219   4.789
10495TIP3    H231427   3.266   4.179   4.919
10496TIP3   OH231428   5.716   4.313   2.817
10496TIP3    H131429   5.772   4.236   2.804
10496TIP3    H231430   5.729   4.336   2.909
10497TIP3   OH231431   1.795   0.668   6.567
10497TIP3    H131432   1.794   0.637   6.657
10497TIP3    H231433   1.852   0.607   6.521
10498TIP3   OH231434   4.493   2.707   5.897
10498TIP3    H131435   4.586   2.690   5.882
10498TIP3    H231436   4.491   2.793   5.940
10499TIP3   OH231437   6.790   3.762   0.840
10499TIP3    H131438   6.846   3.831   0.804
10499TIP3    H231439   6.825   3.682   0.801
10500TIP3   OH231440   5.253   4.888   6.642
10500TIP3    H131441   5.301   4.913   6.720
10500TIP3    H231442   5.167   4.929   6.652
10501TIP3   OH231443   0.682   1.904   1.080
10501TIP3    H131444   0.616   1.866   1.138
10501TIP3    H231445   0.632   1.962   1.022
10502TIP3   OH231446   2.137   5.809   2.778
10502TIP3    H131447   2.124   5.716   2.795
10502TIP3    H231448   2.054   5.850   2.800
10503TIP3   OH231449   3.158   5.090   1.325
10503TIP3    H131450   3.131   5.044   1.404
10503TIP3    H231451   3.098   5.060   1.257
10504TIP3   OH231452   4.525   3.394   4.600
10504TIP3    H131453   4.437   3.399   4.562
10504TIP3    H231454   4.580   3.363   4.528
10505TIP3   OH231455   1.148   7.784   2.999
10505TIP3    H131456   1.158   7.880   3.001
10505TIP3    H231457   1.069   7.770   2.947
10506TIP3   OH231458   0.104   2.510   4.198
10506TIP3    H131459   0.150   2.573   4.142
10506TIP3    H231460   0.141   2.526   4.286
10507TIP3   OH231461   4.726   0.943   4.248
10507TIP3    H131462   4.659   1.000   4.210
10507TIP3    H231463   4.680   0.896   4.318
10508TIP3   OH231464   1.926   3.597   5.042
10508TIP3    H131465   2.000   3.629   4.990
10508TIP3    H231466   1.938   3.502   5.044
10509TIP3   OH231467   8.322   5.462   4.509
10509TIP3    H131468   8.270   5.432   4.435
10509TIP3    H231469   8.319   5.390   4.572
10510TIP3   OH231470   4.942   3.573   3.231
10510TIP3    H131471   4.963   3.565   3.138
10510TIP3    H231472   4.896   3.656   3.239
10511TIP3   OH231473   3.003   5.134   6.320
10511TIP3    H131474   2.922   5.104   6.278
10511TIP3    H231475   2.987   5.225   6.342
10512TIP3   OH231476   6.692   4.284   1.430
10512TIP3    H131477   6.715   4.201   1.471
10512TIP3    H231478   6.602   4.271   1.399
10513TIP3   OH231479   1.581   5.545   4.968
10513TIP3    H131480   1.532   5.463   4.975
10513TIP3    H231481   1.522   5.605   4.922
10514TIP3   OH231482   1.728   0.795   5.999
10514TIP3    H131483   1.760   0.786   6.089
10514TIP3    H231484   1.796   0.755   5.945
10515TIP3   OH231485   8.216   7.666   2.795
10515TIP3    H131486   8.248   7.653   2.706
10515TIP3    H231487   8.273   7.610   2.849
10516TIP3   OH231488   5.540   1.942   0.262
10516TIP3    H131489   5.612   1.954   0.199
10516TIP3    H231490   5.486   1.873   0.223
10517TIP3   OH231491   3.353   6.615   3.201
10517TIP3    H131492   3.279   6.649   3.151
10517TIP3    H231493   3.417   6.591   3.134
10518TIP3   OH231494   3.275   0.276   4.855
10518TIP3    H131495   3.263   0.369   4.877
10518TIP3    H231496   3.312   0.277   4.767
10519TIP3   OH231497   0.973   0.172   0.423
10519TIP3    H131498   0.914   0.101   0.398
10519TIP3    H231499   0.924   0.252   0.403
10520TIP3   OH231500   4.602   1.596   6.684
10520TIP3    H131501   4.613   1.690   6.697
10520TIP3    H231502   4.602   1.585   6.589
10521TIP3   OH231503   1.286   5.600   5.062
10521TIP3    H131504   1.378   5.601   5.090
10521TIP3    H231505   1.272   5.687   5.026
10522TIP3   OH231506   2.016   6.962   0.959
10522TIP3    H131507   1.961   6.991   0.886
10522TIP3    H231508   2.009   6.867   0.959
10523TIP3   OH231509   7.623   4.287   5.979
10523TIP3    H131510   7.530   4.266   5.988
10523TIP3    H231511   7.669   4.208   6.007
10524TIP3   OH231512   3.643   7.002   4.659
10524TIP3    H131513   3.717   7.055   4.629
10524TIP3    H231514   3.654   6.997   4.754
10525TIP3   OH231515   4.236   6.279   1.184
10525TIP3    H131516   4.176   6.351   1.164
10525TIP3    H231517   4.303   6.283   1.116
10526TIP3   OH231518   0.592   3.184   6.707
10526TIP3    H131519   0.542   3.118   6.756
10526TIP3    H231520   0.551   3.187   6.621
10527TIP3   OH231521   5.131   0.957   3.603
10527TIP3    H131522   5.156   0.912   3.522
10527TIP3    H231523   5.042   0.928   3.620
10528TIP3   OH231524   3.807   4.136   5.765
10528TIP3    H131525   3.748   4.140   5.689
10528TIP3    H231526   3.762   4.186   5.833
10529TIP3   OH231527   5.715   2.100   3.487
10529TIP3    H131528   5.644   2.122   3.427
10529TIP3    H231529   5.781   2.059   3.431
10530TIP3   OH231530   6.841   7.417   6.386
10530TIP3    H131531   6.902   7.475   6.341
10530TIP3    H231532   6.835   7.340   6.329
10531TIP3   OH231533   7.562   6.552   6.662
10531TIP3    H131534   7.628   6.558   6.593
10531TIP3    H231535   7.533   6.642   6.675
10532TIP3   OH231536   0.615   2.913   4.593
10532TIP3    H131537   0.587   2.944   4.507
10532TIP3    H231538   0.651   2.826   4.577
10533TIP3   OH231539   0.171   3.464   3.307
10533TIP3    H131540   0.148   3.393   3.247
10533TIP3    H231541   0.182   3.541   3.250
10534TIP3   OH231542   6.751   1.531   3.954
10534TIP3    H131543   6.819   1.464   3.964
10534TIP3    H231544   6.790   1.597   3.896
10535TIP3   OH231545   4.144   1.346   2.947
10535TIP3    H131546   4.070   1.390   2.989
10535TIP3    H231547   4.104   1.272   2.901
10536TIP3   OH231548   0.789   3.674   0.594
10536TIP3    H131549   0.724   3.735   0.561
10536TIP3    H231550   0.829   3.720   0.669
10537TIP3   OH231551   2.211   4.452   4.690
10537TIP3    H131552   2.172   4.504   4.760
10537TIP3    H231553   2.200   4.504   4.611
10538TIP3   OH231554   0.904   7.466   0.403
10538TIP3    H131555   0.843   7.517   0.456
10538TIP3    H231556   0.986   7.468   0.452
10539TIP3   OH231557   5.219   6.758   4.924
10539TIP3    H131558   5.240   6.818   4.853
10539TIP3    H231559   5.160   6.694   4.885
10540TIP3   OH231560   2.034   3.980   6.609
10540TIP3    H131561   2.086   3.921   6.664
10540TIP3    H231562   1.943   3.961   6.631
10541TIP3   OH231563   1.850   3.286   5.328
10541TIP3    H131564   1.905   3.315   5.255
10541TIP3    H231565   1.761   3.284   5.292
10542TIP3   OH231566   7.671   1.350   3.782
10542TIP3    H131567   7.751   1.346   3.834
10542TIP3    H231568   7.620   1.421   3.823
10543TIP3   OH231569   6.686   0.197   6.653
10543TIP3    H131570   6.684   0.258   6.579
10543TIP3    H231571   6.760   0.226   6.706
10544TIP3   OH231572   4.671   6.385   1.030
10544TIP3    H131573   4.711   6.382   1.117
10544TIP3    H231574   4.705   6.464   0.990
10545TIP3   OH231575   6.570   1.692   4.553
10545TIP3    H131576   6.567   1.754   4.480
10545TIP3    H231577   6.479   1.679   4.578
10546TIP3   OH231578   4.663   5.483   2.573
10546TIP3    H131579   4.607   5.424   2.522
10546TIP3    H231580   4.676   5.437   2.656
10547TIP3   OH231581   1.251   0.002   6.330
10547TIP3    H131582   1.157   0.021   6.331
10547TIP3    H231583   1.283   0.040   6.412
10548TIP3   OH231584   0.366   4.035   3.426
10548TIP3    H131585   0.281   4.011   3.389
10548TIP3    H231586   0.400   3.954   3.465
10549TIP3   OH231587   5.250   3.558   3.932
10549TIP3    H131588   5.320   3.540   3.869
10549TIP3    H231589   5.176   3.506   3.902
10550TIP3   OH231590   4.190   6.165   1.826
10550TIP3    H131591   4.098   6.165   1.850
10550TIP3    H231592   4.203   6.081   1.781
10551TIP3   OH231593   4.638   6.215   1.642
10551TIP3    H131594   4.674   6.198   1.729
10551TIP3    H231595   4.590   6.297   1.650
10552TIP3   OH231596   6.365   2.580   4.167
10552TIP3    H131597   6.379   2.670   4.137
10552TIP3    H231598   6.450   2.553   4.203
10553TIP3   OH231599   8.174   4.278   6.674
10553TIP3    H131600   8.129   4.228   6.742
10553TIP3    H231601   8.139   4.367   6.683
10554TIP3   OH231602   4.414   7.173   4.815
10554TIP3    H131603   4.481   7.241   4.825
10554TIP3    H231604   4.413   7.127   4.899
10555TIP3   OH231605   8.131   0.971   5.510
10555TIP3    H131606   8.214   1.012   5.535
10555TIP3    H231607   8.147   0.937   5.422
10556TIP3   OH231608   6.732   3.785   0.536
10556TIP3    H131609   6.746   3.809   0.445
10556TIP3    H231610   6.642   3.751   0.539
10557TIP3   OH231611   4.614   5.190   2.049
10557TIP3    H131612   4.666   5.205   2.128
10557TIP3    H231613   4.594   5.097   2.050
10558TIP3   OH231614   2.156   6.513   1.598
10558TIP3    H131615   2.096   6.583   1.626
10558TIP3    H231616   2.242   6.554   1.597
10559TIP3   OH231617   5.099   1.854   2.006
10559TIP3    H131618   5.070   1.783   2.064
10559TIP3    H231619   5.154   1.908   2.061
10560TIP3   OH231620   3.362   3.422   3.255
10560TIP3    H131621   3.338   3.329   3.257
10560TIP3    H231622   3.358   3.446   3.163
10561TIP3   OH231623   0.814   0.173   2.718
10561TIP3    H131624   0.801   0.268   2.721
10561TIP3    H231625   0.761   0.140   2.790
10562TIP3   OH231626   4.341   5.053   1.279
10562TIP3    H131627   4.313   4.984   1.339
10562TIP3    H231628   4.404   5.105   1.328
10563TIP3   OH231629   6.885   1.942   4.477
10563TIP3    H131630   6.840   1.926   4.394
10563TIP3    H231631   6.926   2.028   4.467
10564TIP3   OH231632   3.041   7.189   5.357
10564TIP3    H131633   3.025   7.164   5.448
10564TIP3    H231634   2.994   7.272   5.347
10565TIP3   OH231635   5.207   0.580   5.010
10565TIP3    H131636   5.281   0.629   5.045
10565TIP3    H231637   5.130   0.618   5.052
10566TIP3   OH231638   2.430   2.307   2.079
10566TIP3    H131639   2.433   2.355   2.162
10566TIP3    H231640   2.342   2.324   2.046
10567TIP3   OH231641   6.608   1.075   0.209
10567TIP3    H131642   6.566   1.085   0.123
10567TIP3    H231643   6.689   1.125   0.202
10568TIP3   OH231644   4.370   2.832   0.336
10568TIP3    H131645   4.285   2.859   0.371
10568TIP3    H231646   4.373   2.737   0.351
10569TIP3   OH231647   7.605   6.071   5.222
10569TIP3    H131648   7.601   6.037   5.133
10569TIP3    H231649   7.529   6.032   5.266
10570TIP3   OH231650   2.006   2.816   2.031
10570TIP3    H131651   2.034   2.737   1.986
10570TIP3    H231652   2.083   2.873   2.031
10571TIP3   OH231653   6.036   5.793   6.615
10571TIP3    H131654   6.026   5.719   6.675
10571TIP3    H231655   6.014   5.870   6.668
10572TIP3   OH231656   7.466   3.590   5.089
10572TIP3    H131657   7.420   3.517   5.048
10572TIP3    H231658   7.410   3.616   5.163
10573TIP3   OH231659   1.800   2.730   4.192
10573TIP3    H131660   1.716   2.726   4.237
10573TIP3    H231661   1.844   2.648   4.216
10574TIP3   OH231662   0.059   5.486   0.220
10574TIP3    H131663   0.012   5.423   0.165
10574TIP3    H231664  -0.008   5.525   0.275
10575TIP3   OH231665   2.277   1.241   6.071
10575TIP3    H131666   2.232   1.192   6.140
10575TIP3    H231667   2.359   1.193   6.057
10576TIP3   OH231668   2.370   0.855   5.818
10576TIP3    H131669   2.276   0.867   5.833
10576TIP3    H231670   2.377   0.774   5.768
10577TIP3   OH231671   6.753   2.029   1.258
10577TIP3    H131672   6.836   2.041   1.213
10577TIP3    H231673   6.712   2.115   1.255
10578TIP3   OH231674   5.533   5.112   5.988
10578TIP3    H131675   5.569   5.172   6.053
10578TIP3    H231676   5.597   5.113   5.917
10579TIP3   OH231677   7.226   7.652   6.490
10579TIP3    H131678   7.133   7.655   6.515
10579TIP3    H231679   7.244   7.739   6.457
10580TIP3   OH231680   6.431   5.316   6.650
10580TIP3    H131681   6.407   5.248   6.712
10580TIP3    H231682   6.370   5.305   6.577
10581TIP3   OH231683   6.495   3.267   2.479
10581TIP3    H131684   6.589   3.265   2.462
10581TIP3    H231685   6.464   3.180   2.451
10582TIP3   OH231686   3.570   0.927   4.721
10582TIP3    H131687   3.519   1.000   4.688
10582TIP3    H231688   3.639   0.915   4.655
10583TIP3   OH231689   4.864   1.588   5.953
10583TIP3    H131690   4.785   1.538   5.972
10583TIP3    H231691   4.832   1.669   5.913
10584TIP3   OH231692   7.748   4.375   0.386
10584TIP3    H131693   7.798   4.294   0.382
10584TIP3    H231694   7.700   4.369   0.469
10585TIP3   OH231695   5.945   4.662   3.030
10585TIP3    H131696   5.981   4.574   3.031
10585TIP3    H231697   5.941   4.688   3.122
10586TIP3   OH231698   6.212   4.646   5.915
10586TIP3    H131699   6.256   4.668   5.833
10586TIP3    H231700   6.119   4.657   5.897
10587TIP3   OH231701   5.648   3.116   6.655
10587TIP3    H131702   5.558   3.146   6.671
10587TIP3    H231703   5.702   3.171   6.711
10588TIP3   OH231704   2.738   7.916   2.894
10588TIP3    H131705   2.831   7.904   2.875
10588TIP3    H231706   2.722   7.858   2.969
10589TIP3   OH231707   1.758   7.666   3.950
10589TIP3    H131708   1.766   7.582   3.995
10589TIP3    H231709   1.842   7.678   3.907
10590TIP3   OH231710   3.862   6.070   0.062
10590TIP3    H131711   3.831   5.981   0.081
10590TIP3    H231712   3.805   6.100  -0.009
10591TIP3   OH231713   1.445   1.395   5.762
10591TIP3    H131714   1.493   1.380   5.681
10591TIP3    H231715   1.506   1.443   5.818
10592TIP3   OH231716   2.491   3.039   6.874
10592TIP3    H131717   2.549   2.969   6.845
10592TIP3    H231718   2.505   3.110   6.811
10593TIP3   OH231719   6.092   4.742   1.564
10593TIP3    H131720   6.056   4.774   1.481
10593TIP3    H231721   6.015   4.719   1.616
10594TIP3   OH231722   7.225   0.352   3.513
10594TIP3    H131723   7.220   0.443   3.543
10594TIP3    H231724   7.172   0.351   3.433
10595TIP3   OH231725   4.680   1.496   3.867
10595TIP3    H131726   4.603   1.518   3.918
10595TIP3    H231727   4.662   1.408   3.832
10596TIP3   OH231728   1.673   5.198   1.112
10596TIP3    H131729   1.753   5.161   1.075
10596TIP3    H231730   1.698   5.285   1.143
10597TIP3   OH231731   7.388   4.277   2.161
10597TIP3    H131732   7.408   4.300   2.252
10597TIP3    H231733   7.298   4.245   2.163
10598TIP3   OH231734   6.406   3.038   2.979
10598TIP3    H131735   6.489   3.028   3.027
10598TIP3    H231736   6.432   3.035   2.887
10599TIP3   OH231737   2.531   3.025   1.523
10599TIP3    H131738   2.498   3.041   1.435
10599TIP3    H231739   2.515   2.932   1.538
10600TIP3   OH231740   8.296   5.643   1.394
10600TIP3    H131741   8.369   5.704   1.403
10600TIP3    H231742   8.273   5.645   1.301
10601TIP3   OH231743   3.367   1.537   1.754
10601TIP3    H131744   3.427   1.552   1.680
10601TIP3    H231745   3.354   1.442   1.755
10602TIP3   OH231746   3.276   7.282   5.791
10602TIP3    H131747   3.349   7.234   5.829
10602TIP3    H231748   3.225   7.216   5.744
10603TIP3   OH231749   2.044   1.239   2.799
10603TIP3    H131750   1.973   1.265   2.859
10603TIP3    H231751   2.107   1.311   2.805
10604TIP3   OH231752   6.226   5.277   5.029
10604TIP3    H131753   6.166   5.263   5.102
10604TIP3    H231754   6.211   5.368   5.003
10605TIP3   OH231755   3.716   7.517   4.947
10605TIP3    H131756   3.797   7.474   4.972
10605TIP3    H231757   3.659   7.445   4.917
10606TIP3   OH231758   4.514   4.544   6.379
10606TIP3    H131759   4.560   4.624   6.403
10606TIP3    H231760   4.467   4.519   6.459
10607TIP3   OH231761   2.867   7.119   0.005
10607TIP3    H131762   2.868   7.037   0.053
10607TIP3    H231763   2.839   7.184   0.069
10608TIP3   OH231764   7.351   2.401   5.617
10608TIP3    H131765   7.314   2.441   5.696
10608TIP3    H231766   7.341   2.469   5.550
10609TIP3   OH231767   5.572   0.275   3.237
10609TIP3    H131768   5.509   0.304   3.171
10609TIP3    H231769   5.650   0.251   3.188
10610TIP3   OH231770   3.411   3.610   3.444
10610TIP3    H131771   3.385   3.553   3.371
10610TIP3    H231772   3.436   3.550   3.514
10611TIP3   OH231773   7.282   4.445   4.245
10611TIP3    H131774   7.377   4.453   4.250
10611TIP3    H231775   7.249   4.512   4.305
10612TIP3   OH231776   5.934   0.429   3.162
10612TIP3    H131777   5.899   0.494   3.223
10612TIP3    H231778   5.999   0.478   3.111
10613TIP3   OH231779   4.934   4.192   0.640
10613TIP3    H131780   5.002   4.138   0.601
10613TIP3    H231781   4.853   4.143   0.627
10614TIP3   OH231782   1.606   0.217   2.268
10614TIP3    H131783   1.623   0.177   2.354
10614TIP3    H231784   1.598   0.142   2.208
10615TIP3   OH231785   4.132   3.297   3.147
10615TIP3    H131786   4.060   3.360   3.151
10615TIP3    H231787   4.114   3.235   3.218
10616TIP3   OH231788   0.837   4.092   1.583
10616TIP3    H131789   0.838   3.998   1.602
10616TIP3    H231790   0.757   4.105   1.532
10617TIP3   OH231791   1.040   5.299   0.494
10617TIP3    H131792   1.040   5.382   0.543
10617TIP3    H231793   0.947   5.282   0.477
10618TIP3   OH231794   4.659   2.003   2.680
10618TIP3    H131795   4.572   2.006   2.720
10618TIP3    H231796   4.646   1.956   2.597
10619TIP3   OH231797   6.215   6.706   6.241
10619TIP3    H131798   6.197   6.685   6.333
10619TIP3    H231799   6.162   6.643   6.192
10620TIP3   OH231800   4.019   3.689   4.493
10620TIP3    H131801   4.096   3.744   4.483
10620TIP3    H231802   3.996   3.696   4.585
10621TIP3   OH231803   7.170   1.959   0.089
10621TIP3    H131804   7.145   1.904   0.164
10621TIP3    H231805   7.218   2.032   0.128
10622TIP3   OH231806   0.714   7.796   3.018
10622TIP3    H131807   0.772   7.727   3.049
10622TIP3    H231808   0.736   7.871   3.073
10623TIP3   OH231809   8.005   3.722   1.231
10623TIP3    H131810   7.939   3.656   1.252
10623TIP3    H231811   8.075   3.707   1.294
10624TIP3   OH231812   7.640   7.055   6.127
10624TIP3    H131813   7.715   7.095   6.173
10624TIP3    H231814   7.615   7.120   6.061
10625TIP3   OH231815   3.389   4.529   2.670
10625TIP3    H131816   3.311   4.557   2.622
10625TIP3    H231817   3.443   4.485   2.604
10626TIP3   OH231818   3.048   2.050   0.485
10626TIP3    H131819   2.983   2.047   0.416
10626TIP3    H231820   3.111   2.115   0.456
10627TIP3   OH231821   7.903   2.328   0.512
10627TIP3    H131822   7.983   2.350   0.559
10627TIP3    H231823   7.836   2.320   0.579
10628TIP3   OH231824   0.165   7.036   1.791
10628TIP3    H131825   0.232   6.996   1.736
10628TIP3    H231826   0.138   6.966   1.851
10629TIP3   OH231827   5.194   6.961   4.698
10629TIP3    H131828   5.160   7.050   4.689
10629TIP3    H231829   5.260   6.953   4.629
10630TIP3   OH231830   2.177   2.835   6.194
10630TIP3    H131831   2.106   2.787   6.151
10630TIP3    H231832   2.135   2.917   6.223
10631TIP3   OH231833   0.501   4.601   1.715
10631TIP3    H131834   0.454   4.550   1.781
10631TIP3    H231835   0.432   4.643   1.664
10632TIP3   OH231836   6.775   4.685   0.197
10632TIP3    H131837   6.759   4.739   0.275
10632TIP3    H231838   6.811   4.745   0.133
10633TIP3   OH231839   5.310   7.793   5.552
10633TIP3    H131840   5.227   7.825   5.516
10633TIP3    H231841   5.289   7.770   5.642
10634TIP3   OH231842   2.673   1.950   4.104
10634TIP3    H131843   2.655   2.035   4.145
10634TIP3    H231844   2.616   1.889   4.150
10635TIP3   OH231845   0.305   3.315   6.821
10635TIP3    H131846   0.224   3.264   6.822
10635TIP3    H231847   0.346   3.292   6.737
10636TIP3   OH231848   0.168   0.398   1.055
10636TIP3    H131849   0.183   0.316   1.102
10636TIP3    H231850   0.229   0.394   0.981
10637TIP3   OH231851   3.287   7.158   4.816
10637TIP3    H131852   3.199   7.140   4.784
10637TIP3    H231853   3.305   7.088   4.878
10638TIP3   OH231854   1.322   5.076   6.128
10638TIP3    H131855   1.311   4.982   6.137
10638TIP3    H231856   1.415   5.092   6.142
10639TIP3   OH231857   3.687   7.274   0.416
10639TIP3    H131858   3.669   7.185   0.384
10639TIP3    H231859   3.783   7.279   0.417
10640TIP3   OH231860   4.510   6.759   3.518
10640TIP3    H131861   4.465   6.716   3.591
10640TIP3    H231862   4.603   6.750   3.538
10641TIP3   OH231863   4.200   5.914   5.938
10641TIP3    H131864   4.110   5.882   5.938
10641TIP3    H231865   4.233   5.892   5.850
10642TIP3   OH231866   3.686   0.666   0.464
10642TIP3    H131867   3.780   0.651   0.478
10642TIP3    H231868   3.666   0.618   0.383
10643TIP3   OH231869   5.900   1.422   4.850
10643TIP3    H131870   5.877   1.478   4.925
10643TIP3    H231871   5.838   1.448   4.782
10644TIP3   OH231872   2.939   5.989   1.181
10644TIP3    H131873   2.909   6.080   1.173
10644TIP3    H231874   3.016   5.993   1.237
10645TIP3   OH231875   8.085   7.667   3.456
10645TIP3    H131876   8.075   7.741   3.397
10645TIP3    H231877   8.156   7.615   3.417
10646TIP3   OH231878   0.352   4.468   2.830
10646TIP3    H131879   0.313   4.419   2.758
10646TIP3    H231880   0.301   4.441   2.907
10647TIP3   OH231881   7.861   7.185   3.181
10647TIP3    H131882   7.882   7.218   3.093
10647TIP3    H231883   7.882   7.092   3.177
10648TIP3   OH231884   5.850   7.336   3.640
10648TIP3    H131885   5.791   7.349   3.566
10648TIP3    H231886   5.852   7.421   3.685
10649TIP3   OH231887   4.617   5.200   6.593
10649TIP3    H131888   4.548   5.249   6.549
10649TIP3    H231889   4.698   5.245   6.570
10650TIP3   OH231890   8.338   7.848   3.004
10650TIP3    H131891   8.381   7.866   2.920
10650TIP3    H231892   8.312   7.756   2.998
10651TIP3   OH231893   7.248   7.421   1.984
10651TIP3    H131894   7.338   7.443   1.962
10651TIP3    H231895   7.216   7.496   2.034
10652TIP3   OH231896   2.866   1.494   1.014
10652TIP3    H131897   2.830   1.555   1.077
10652TIP3    H231898   2.857   1.538   0.930
10653TIP3   OH231899   1.860   0.896   5.627
10653TIP3    H131900   1.818   0.909   5.712
10653TIP3    H231901   1.820   0.961   5.570
10654TIP3   OH231902   1.245   0.368   4.270
10654TIP3    H131903   1.239   0.278   4.238
10654TIP3    H231904   1.337   0.392   4.255
10655TIP3   OH231905   6.936   7.438   6.644
10655TIP3    H131906   6.903   7.407   6.559
10655TIP3    H231907   6.862   7.484   6.683
10656TIP3   OH231908   3.779   0.960   4.549
10656TIP3    H131909   3.802   1.053   4.554
10656TIP3    H231910   3.844   0.921   4.491
10657TIP3   OH231911   8.404   0.007   1.152
10657TIP3    H131912   8.370  -0.073   1.112
10657TIP3    H231913   8.342   0.027   1.222
10658TIP3   OH231914   4.798   2.553   6.269
10658TIP3    H131915   4.764   2.602   6.344
10658TIP3    H231916   4.719   2.528   6.221
10659TIP3   OH231917   0.457   3.410   4.912
10659TIP3    H131918   0.391   3.444   4.972
10659TIP3    H231919   0.501   3.488   4.877
10660TIP3   OH231920   1.258   4.902   2.971
10660TIP3    H131921   1.209   4.962   2.915
10660TIP3    H231922   1.310   4.959   3.027
10661TIP3   OH231923   1.624   1.765   6.799
10661TIP3    H131924   1.582   1.707   6.735
10661TIP3    H231925   1.697   1.804   6.751
10662TIP3   OH231926   6.792   2.070   6.264
10662TIP3    H131927   6.814   2.154   6.223
10662TIP3    H231928   6.874   2.040   6.303
10663TIP3   OH231929   0.239   5.594   2.938
10663TIP3    H131930   0.314   5.644   2.970
10663TIP3    H231931   0.176   5.661   2.911
10664TIP3   OH231932   8.237   3.344   4.674
10664TIP3    H131933   8.327   3.341   4.644
10664TIP3    H231934   8.243   3.336   4.770
10665TIP3   OH231935   3.031   6.130   5.763
10665TIP3    H131936   2.954   6.157   5.813
10665TIP3    H231937   3.103   6.135   5.826
10666TIP3   OH231938   7.713   3.453   4.328
10666TIP3    H131939   7.726   3.539   4.367
10666TIP3    H231940   7.720   3.392   4.402
10667TIP3   OH231941   4.011   0.174   0.503
10667TIP3    H131942   4.009   0.212   0.591
10667TIP3    H231943   3.920   0.155   0.483
10668TIP3   OH231944   6.848   2.112   0.193
10668TIP3    H131945   6.812   2.193   0.229
10668TIP3    H231946   6.835   2.120   0.098
10669TIP3   OH231947   3.475   6.012   5.600
10669TIP3    H131948   3.437   5.963   5.673
10669TIP3    H231949   3.564   5.977   5.591
10670TIP3   OH231950   3.925   3.938   1.259
10670TIP3    H131951   3.899   3.857   1.302
10670TIP3    H231952   3.854   3.958   1.198
10671TIP3   OH231953   7.591   5.302   0.941
10671TIP3    H131954   7.649   5.235   0.977
10671TIP3    H231955   7.574   5.361   1.014
10672TIP3   OH231956   0.024   2.529   0.384
10672TIP3    H131957   0.099   2.474   0.408
10672TIP3    H231958   0.041   2.612   0.429
10673TIP3   OH231959   7.141   5.677   1.391
10673TIP3    H131960   7.179   5.604   1.440
10673TIP3    H231961   7.211   5.706   1.333
10674TIP3   OH231962   4.207   3.386   1.651
10674TIP3    H131963   4.181   3.337   1.730
10674TIP3    H231964   4.159   3.343   1.580
10675TIP3   OH231965   0.446   5.776   2.937
10675TIP3    H131966   0.461   5.817   2.852
10675TIP3    H231967   0.396   5.842   2.986
10676TIP3   OH231968   6.856   2.164   1.570
10676TIP3    H131969   6.939   2.179   1.523
10676TIP3    H231970   6.870   2.204   1.656
10677TIP3   OH231971   7.065   3.402   0.892
10677TIP3    H131972   7.036   3.331   0.949
10677TIP3    H231973   7.161   3.392   0.889
10678TIP3   OH231974   0.490   2.956   5.177
10678TIP3    H131975   0.429   3.030   5.179
10678TIP3    H231976   0.558   2.983   5.116
10679TIP3   OH231977   5.744   6.255   6.187
10679TIP3    H131978   5.692   6.225   6.113
10679TIP3    H231979   5.755   6.176   6.241
10680TIP3   OH231980   5.575   1.034   0.472
10680TIP3    H131981   5.484   1.044   0.498
10680TIP3    H231982   5.607   1.123   0.461
10681TIP3   OH231983   3.373   4.620   0.671
10681TIP3    H131984   3.300   4.625   0.733
10681TIP3    H231985   3.439   4.680   0.707
10682TIP3   OH231986   2.267   2.500   4.347
10682TIP3    H131987   2.198   2.486   4.413
10682TIP3    H231988   2.294   2.412   4.321
10683TIP3   OH231989   6.818   6.225   5.997
10683TIP3    H131990   6.895   6.263   6.039
10683TIP3    H231991   6.749   6.290   6.008
10684TIP3   OH231992   4.070   1.277   1.456
10684TIP3    H131993   3.985   1.260   1.497
10684TIP3    H231994   4.052   1.274   1.362
10685TIP3   OH231995   5.037   7.155   5.882
10685TIP3    H131996   4.956   7.206   5.874
10685TIP3    H231997   5.061   7.162   5.975
10686TIP3   OH231998   5.579   2.871   3.795
10686TIP3    H131999   5.632   2.949   3.780
10686TIP3    H232000   5.505   2.881   3.735
10687TIP3   OH232001   1.524   5.784   0.627
10687TIP3    H132002   1.610   5.783   0.668
10687TIP3    H232003   1.471   5.839   0.684
10688TIP3   OH232004   2.704   1.398   5.269
10688TIP3    H132005   2.732   1.369   5.355
10688TIP3    H232006   2.772   1.458   5.239
10689TIP3   OH232007   2.019   0.041   1.863
10689TIP3    H132008   2.023   0.101   1.788
10689TIP3    H232009   2.102  -0.005   1.861
10690TIP3   OH232010   7.658   6.056   0.904
10690TIP3    H132011   7.709   5.988   0.860
10690TIP3    H232012   7.682   6.048   0.996
10691TIP3   OH232013   0.215   1.336   2.176
10691TIP3    H132014   0.228   1.431   2.171
10691TIP3    H232015   0.231   1.315   2.268
10692TIP3   OH232016   5.738   7.002   0.424
10692TIP3    H132017   5.806   6.937   0.443
10692TIP3    H232018   5.754   7.027   0.333
10693TIP3   OH232019   1.154   4.171   2.044
10693TIP3    H132020   1.071   4.196   2.084
10693TIP3    H232021   1.139   4.083   2.010
10694TIP3   OH232022   1.381   6.694   6.640
10694TIP3    H132023   1.462   6.738   6.664
10694TIP3    H232024   1.315   6.728   6.701
10695TIP3   OH232025   0.993   4.982   3.290
10695TIP3    H132026   0.910   4.935   3.286
10695TIP3    H232027   1.006   5.014   3.200
10696TIP3   OH232028   0.922   1.361   3.717
10696TIP3    H132029   0.900   1.268   3.715
10696TIP3    H232030   0.842   1.405   3.689
10697TIP3   OH232031   0.078   1.286   4.744
10697TIP3    H132032   0.082   1.310   4.836
10697TIP3    H232033  -0.016   1.279   4.725
10698TIP3   OH232034   5.379   1.771   0.088
10698TIP3    H132035   5.403   1.790  -0.003
10698TIP3    H232036   5.283   1.766   0.087
10699TIP3   OH232037   6.526   2.423   5.292
10699TIP3    H132038   6.549   2.366   5.219
10699TIP3    H232039   6.579   2.391   5.365
10700TIP3   OH232040   1.089   3.570   0.574
10700TIP3    H132041   1.078   3.640   0.639
10700TIP3    H232042   1.145   3.505   0.618
10701TIP3   OH232043   3.486   4.464   3.297
10701TIP3    H132044   3.460   4.556   3.285
10701TIP3    H232045   3.466   4.446   3.389
10702TIP3   OH232046   1.164   1.605   2.477
10702TIP3    H132047   1.105   1.546   2.429
10702TIP3    H232048   1.244   1.606   2.425
10703TIP3   OH232049   3.413   5.652   6.472
10703TIP3    H132050   3.347   5.627   6.408
10703TIP3    H232051   3.495   5.653   6.423
10704TIP3   OH232052   7.361   2.940   5.418
10704TIP3    H132053   7.437   2.998   5.421
10704TIP3    H232054   7.369   2.887   5.498
10705TIP3   OH232055   3.818   6.455   5.749
10705TIP3    H132056   3.853   6.390   5.810
10705TIP3    H232057   3.792   6.404   5.672
10706TIP3   OH232058   7.035   0.358   6.291
10706TIP3    H132059   6.974   0.411   6.342
10706TIP3    H232060   7.062   0.416   6.219
10707TIP3   OH232061   4.054   3.811   0.867
10707TIP3    H132062   4.127   3.793   0.926
10707TIP3    H232063   4.086   3.880   0.809
10708TIP3   OH232064   4.492   2.758   6.318
10708TIP3    H132065   4.479   2.844   6.279
10708TIP3    H232066   4.565   2.769   6.378
10709TIP3   OH232067   6.895   3.971   0.688
10709TIP3    H132068   6.849   3.903   0.640
10709TIP3    H232069   6.849   4.052   0.666
10710TIP3   OH232070   2.899   4.536   2.160
10710TIP3    H132071   2.883   4.533   2.254
10710TIP3    H232072   2.813   4.517   2.121
10711TIP3   OH232073   7.417   1.949   5.606
10711TIP3    H132074   7.447   1.878   5.663
10711TIP3    H232075   7.412   2.026   5.663
10712TIP3   OH232076   1.716   1.611   6.468
10712TIP3    H132077   1.800   1.657   6.475
10712TIP3    H232078   1.693   1.617   6.376
10713TIP3   OH232079   0.299   5.931   3.133
10713TIP3    H132080   0.218   5.884   3.151
10713TIP3    H232081   0.272   6.022   3.123
10714TIP3   OH232082   3.938   0.984   2.658
10714TIP3    H132083   3.881   0.914   2.626
10714TIP3    H232084   4.027   0.955   2.636
10715TIP3   OH232085   8.257   4.653   0.826
10715TIP3    H132086   8.167   4.645   0.857
10715TIP3    H232087   8.309   4.603   0.889
10716TIP3   OH232088   4.221   3.623   6.520
10716TIP3    H132089   4.309   3.618   6.482
10716TIP3    H232090   4.170   3.560   6.470
10717TIP3   OH232091   1.664   0.060   4.299
10717TIP3    H132092   1.665   0.035   4.207
10717TIP3    H232093   1.574   0.044   4.328
10718TIP3   OH232094   2.644   5.890   5.836
10718TIP3    H132095   2.648   5.810   5.887
10718TIP3    H232096   2.559   5.928   5.857
10719TIP3   OH232097   1.639   0.947   0.663
10719TIP3    H132098   1.625   0.959   0.757
10719TIP3    H232099   1.726   0.909   0.655
10720TIP3   OH232100   3.715   2.454   3.644
10720TIP3    H132101   3.692   2.418   3.729
10720TIP3    H232102   3.633   2.454   3.595
10721TIP3   OH232103   8.211   7.506   2.185
10721TIP3    H132104   8.129   7.469   2.217
10721TIP3    H232105   8.216   7.479   2.094
10722TIP3   OH232106   7.926   3.190   5.530
10722TIP3    H132107   7.988   3.121   5.553
10722TIP3    H232108   7.891   3.163   5.445
10723TIP3   OH232109   5.875   3.842   3.883
10723TIP3    H132110   5.959   3.819   3.920
10723TIP3    H232111   5.834   3.898   3.949
10724TIP3   OH232112   5.625   6.519   2.071
10724TIP3    H132113   5.538   6.512   2.110
10724TIP3    H232114   5.608   6.521   1.976
10725TIP3   OH232115   2.310   6.091   3.552
10725TIP3    H132116   2.388   6.067   3.603
10725TIP3    H232117   2.266   6.157   3.606
10726TIP3   OH232118   7.766   4.901   5.310
10726TIP3    H132119   7.742   4.975   5.254
10726TIP3    H232120   7.788   4.940   5.394
10727TIP3   OH232121   1.493   2.962   1.879
10727TIP3    H132122   1.428   2.903   1.917
10727TIP3    H232123   1.456   2.986   1.794
10728TIP3   OH232124   5.420   5.509   2.083
10728TIP3    H132125   5.449   5.470   2.165
10728TIP3    H232126   5.501   5.520   2.032
10729TIP3   OH232127   6.822   4.111   3.781
10729TIP3    H132128   6.773   4.078   3.705
10729TIP3    H232129   6.755   4.142   3.841
10730TIP3   OH232130   5.860   2.083   2.527
10730TIP3    H132131   5.887   2.000   2.487
10730TIP3    H232132   5.766   2.074   2.539
10731TIP3   OH232133   3.923   1.659   6.034
10731TIP3    H132134   3.906   1.704   5.951
10731TIP3    H232135   3.941   1.568   6.008
10732TIP3   OH232136   2.105   1.601   6.331
10732TIP3    H132137   2.081   1.643   6.249
10732TIP3    H232138   2.086   1.666   6.398
10733TIP3   OH232139   5.426   6.930   4.534
10733TIP3    H132140   5.474   6.887   4.605
10733TIP3    H232141   5.481   6.917   4.457
10734TIP3   OH232142   3.175   5.163   2.195
10734TIP3    H132143   3.222   5.228   2.247
10734TIP3    H232144   3.112   5.214   2.144
10735TIP3   OH232145   6.144   4.310   6.390
10735TIP3    H132146   6.180   4.267   6.312
10735TIP3    H232147   6.049   4.294   6.384
10736TIP3   OH232148   0.981   0.640   6.770
10736TIP3    H132149   0.942   0.574   6.713
10736TIP3    H232150   1.065   0.662   6.729
10737TIP3   OH232151   5.420   0.598   3.693
10737TIP3    H132152   5.454   0.571   3.608
10737TIP3    H232153   5.447   0.689   3.702
10738TIP3   OH232154   4.877   7.475   6.402
10738TIP3    H132155   4.819   7.530   6.455
10738TIP3    H232156   4.963   7.484   6.443
10739TIP3   OH232157   6.012   6.782   5.830
10739TIP3    H132158   6.044   6.836   5.758
10739TIP3    H232159   5.989   6.845   5.898
10740TIP3   OH232160   4.583   7.216   3.581
10740TIP3    H132161   4.647   7.257   3.640
10740TIP3    H232162   4.535   7.155   3.636
10741TIP3   OH232163   2.322   1.157   5.253
10741TIP3    H132164   2.333   1.099   5.328
10741TIP3    H232165   2.228   1.154   5.234
10742TIP3   OH232166   6.558   1.553   4.811
10742TIP3    H132167   6.648   1.556   4.843
10742TIP3    H232168   6.563   1.581   4.720
10743TIP3   OH232169   4.621   2.224   2.231
10743TIP3    H132170   4.571   2.280   2.291
10743TIP3    H232171   4.692   2.280   2.200
10744TIP3   OH232172   2.331   3.622   3.087
10744TIP3    H132173   2.393   3.617   3.159
10744TIP3    H232174   2.248   3.646   3.128
10745TIP3   OH232175   2.043   3.811   4.590
10745TIP3    H132176   2.097   3.883   4.623
10745TIP3    H232177   2.093   3.732   4.611
10746TIP3   OH232178   2.150   6.608   2.230
10746TIP3    H132179   2.110   6.624   2.144
10746TIP3    H232180   2.076   6.591   2.288
10747TIP3   OH232181   7.638   4.827   3.431
10747TIP3    H132182   7.661   4.920   3.429
10747TIP3    H232183   7.702   4.785   3.374
10748TIP3   OH232184   1.068   6.645   2.250
10748TIP3    H132185   1.113   6.728   2.263
10748TIP3    H232186   0.976   6.664   2.269
10749TIP3   OH232187   3.796   6.626   5.324
10749TIP3    H132188   3.857   6.552   5.332
10749TIP3    H232189   3.718   6.588   5.282
10750TIP3   OH232190   2.713   0.761   0.725
10750TIP3    H132191   2.668   0.811   0.793
10750TIP3    H232192   2.788   0.815   0.700
10751TIP3   OH232193   7.685   0.473   2.911
10751TIP3    H132194   7.645   0.519   2.985
10751TIP3    H232195   7.612   0.446   2.857
10752TIP3   OH232196   1.486   6.570   4.674
10752TIP3    H132197   1.434   6.636   4.628
10752TIP3    H232198   1.544   6.619   4.732
10753TIP3   OH232199   5.601   1.925   3.010
10753TIP3    H132200   5.586   1.946   2.918
10753TIP3    H232201   5.540   1.981   3.058
10754TIP3   OH232202   0.964   0.233   3.732
10754TIP3    H132203   0.891   0.229   3.670
10754TIP3    H232204   0.976   0.327   3.749
10755TIP3   OH232205   0.860   5.524   3.933
10755TIP3    H132206   0.940   5.573   3.912
10755TIP3    H232207   0.889   5.455   3.993
10756TIP3   OH232208   0.577   4.106   1.482
10756TIP3    H132209   0.527   4.035   1.522
10756TIP3    H232210   0.567   4.179   1.544
10757TIP3   OH232211   3.815   2.228   5.957
10757TIP3    H132212   3.879   2.292   5.927
10757TIP3    H232213   3.799   2.173   5.880
10758TIP3   OH232214   2.293   5.126   5.501
10758TIP3    H132215   2.240   5.183   5.556
10758TIP3    H232216   2.277   5.155   5.412
10759TIP3   OH232217   6.955   1.593   3.693
10759TIP3    H132218   6.898   1.670   3.688
10759TIP3    H232219   7.011   1.599   3.616
10760TIP3   OH232220   6.127   2.067   0.744
10760TIP3    H132221   6.129   2.017   0.826
10760TIP3    H232222   6.100   2.003   0.678
10761TIP3   OH232223   4.020   4.408   2.795
10761TIP3    H132224   3.991   4.380   2.882
10761TIP3    H232225   4.092   4.348   2.774
10762TIP3   OH232226   5.064   3.757   3.963
10762TIP3    H132227   5.138   3.710   3.924
10762TIP3    H232228   5.028   3.697   4.027
10763TIP3   OH232229   1.521   0.366   5.129
10763TIP3    H132230   1.559   0.385   5.215
10763TIP3    H232231   1.552   0.278   5.108
10764TIP3   OH232232   8.313   4.429   2.217
10764TIP3    H132233   8.363   4.502   2.254
10764TIP3    H232234   8.377   4.360   2.203
10765TIP3   OH232235   2.720   3.978   5.519
10765TIP3    H132236   2.811   3.954   5.499
10765TIP3    H232237   2.712   4.069   5.491
10766TIP3   OH232238   1.509   4.878   5.006
10766TIP3    H132239   1.544   4.917   5.087
10766TIP3    H232240   1.421   4.916   4.998
10767TIP3   OH232241   4.680   5.940   0.751
10767TIP3    H132242   4.705   5.974   0.836
10767TIP3    H232243   4.692   6.013   0.691
10768TIP3   OH232244   8.349   6.483   6.850
10768TIP3    H132245   8.259   6.462   6.825
10768TIP3    H232246   8.393   6.500   6.766
10769TIP3   OH232247   3.566   5.424   4.871
10769TIP3    H132248   3.514   5.350   4.901
10769TIP3    H232249   3.533   5.499   4.921
10770TIP3   OH232250   8.086   2.730   1.200
10770TIP3    H132251   8.003   2.756   1.241
10770TIP3    H232252   8.153   2.757   1.262
10771TIP3   OH232253   5.192   4.120   0.991
10771TIP3    H132254   5.278   4.083   1.011
10771TIP3    H232255   5.210   4.208   0.960
10772TIP3   OH232256   0.097   6.904   5.616
10772TIP3    H132257   0.004   6.890   5.597
10772TIP3    H232258   0.138   6.820   5.595
10773TIP3   OH232259   4.844   1.966   2.327
10773TIP3    H132260   4.809   1.885   2.364
10773TIP3    H232261   4.859   1.946   2.235
10774TIP3   OH232262   2.117   1.951   4.206
10774TIP3    H132263   2.140   1.858   4.203
10774TIP3    H232264   2.201   1.997   4.198
10775TIP3   OH232265   3.131   2.286   3.790
10775TIP3    H132266   3.146   2.214   3.730
10775TIP3    H232267   3.214   2.334   3.793
10776TIP3   OH232268   0.463   4.813   3.862
10776TIP3    H132269   0.401   4.816   3.789
10776TIP3    H232270   0.484   4.905   3.879
10777TIP3   OH232271   3.466   1.502   3.577
10777TIP3    H132272   3.556   1.534   3.575
10777TIP3    H232273   3.445   1.496   3.670
10778TIP3   OH232274   8.094   7.917   2.825
10778TIP3    H132275   8.133   7.830   2.822
10778TIP3    H232276   8.006   7.903   2.859
10779TIP3   OH232277   1.668   2.832   3.871
10779TIP3    H132278   1.759   2.808   3.889
10779TIP3    H232279   1.624   2.826   3.955
10780TIP3   OH232280   5.163   2.704   2.995
10780TIP3    H132281   5.128   2.659   3.072
10780TIP3    H232282   5.108   2.675   2.923
10781TIP3   OH232283   4.928   6.108   2.402
10781TIP3    H132284   4.963   6.038   2.348
10781TIP3    H232285   4.843   6.076   2.431
10782TIP3   OH232286   2.009   6.446   4.408
10782TIP3    H132287   1.976   6.494   4.332
10782TIP3    H232288   2.104   6.448   4.398
10783TIP3   OH232289   7.198   4.992   4.505
10783TIP3    H132290   7.250   5.000   4.585
10783TIP3    H232291   7.262   4.998   4.434
10784TIP3   OH232292   0.151   6.050   2.536
10784TIP3    H132293   0.129   6.085   2.450
10784TIP3    H232294   0.082   6.084   2.594
10785TIP3   OH232295   7.405   0.293   1.119
10785TIP3    H132296   7.449   0.278   1.203
10785TIP3    H232297   7.355   0.374   1.133
10786TIP3   OH232298   4.489   0.805   6.785
10786TIP3    H132299   4.409   0.800   6.734
10786TIP3    H232300   4.507   0.714   6.810
10787TIP3   OH232301   7.399   6.931   6.157
10787TIP3    H132302   7.421   6.838   6.168
10787TIP3    H232303   7.484   6.976   6.158
10788TIP3   OH232304   6.641   3.904   6.641
10788TIP3    H132305   6.684   3.822   6.665
10788TIP3    H232306   6.695   3.940   6.571
10789TIP3   OH232307   1.424   3.045   5.141
10789TIP3    H132308   1.481   3.020   5.214
10789TIP3    H232309   1.341   3.069   5.182
10790TIP3   OH232310   7.832   0.098   1.321
10790TIP3    H132311   7.858   0.010   1.345
10790TIP3    H232312   7.874   0.114   1.237
10791TIP3   OH232313   0.768   7.453   5.701
10791TIP3    H132314   0.712   7.442   5.625
10791TIP3    H232315   0.855   7.427   5.671
10792TIP3   OH232316   6.607   2.906   0.374
10792TIP3    H132317   6.591   2.999   0.390
10792TIP3    H232318   6.542   2.860   0.427
10793TIP3   OH232319   8.340   7.712   5.197
10793TIP3    H132320   8.300   7.799   5.194
10793TIP3    H232321   8.273   7.654   5.160
10794TIP3   OH232322   4.130   6.770   4.890
10794TIP3    H132323   4.139   6.726   4.974
10794TIP3    H232324   4.069   6.842   4.906
10795TIP3   OH232325   0.642   2.576   3.071
10795TIP3    H132326   0.558   2.574   3.117
10795TIP3    H232327   0.674   2.665   3.084
10796TIP3   OH232328   7.244   5.564   2.787
10796TIP3    H132329   7.266   5.580   2.695
10796TIP3    H232330   7.313   5.505   2.819
10797TIP3   OH232331   4.142   6.053   6.192
10797TIP3    H132332   4.119   6.143   6.170
10797TIP3    H232333   4.177   6.016   6.111
10798TIP3   OH232334   0.293   3.503   2.168
10798TIP3    H132335   0.352   3.512   2.242
10798TIP3    H232336   0.350   3.502   2.091
10799TIP3   OH232337   0.055   7.190   0.797
10799TIP3    H132338   0.078   7.101   0.770
10799TIP3    H232339  -0.021   7.212   0.743
10800TIP3   OH232340   6.920   5.461   3.128
10800TIP3    H132341   6.952   5.391   3.071
10800TIP3    H232342   6.984   5.531   3.118
10801TIP3   OH232343   1.207   5.156   2.834
10801TIP3    H132344   1.125   5.115   2.805
10801TIP3    H232345   1.241   5.200   2.756
10802TIP3   OH232346   0.922   4.369   6.664
10802TIP3    H132347   0.842   4.381   6.716
10802TIP3    H232348   0.956   4.284   6.691
10803TIP3   OH232349   4.034   4.628   2.580
10803TIP3    H132350   4.112   4.572   2.582
10803TIP3    H232351   3.986   4.597   2.503
10804TIP3   OH232352   6.576   6.369   5.995
10804TIP3    H132353   6.499   6.350   5.941
10804TIP3    H232354   6.541   6.416   6.071
10805TIP3   OH232355   7.369   1.619   2.442
10805TIP3    H132356   7.430   1.640   2.372
10805TIP3    H232357   7.358   1.524   2.436
10806TIP3   OH232358   7.175   6.627   4.616
10806TIP3    H132359   7.224   6.656   4.693
10806TIP3    H232360   7.136   6.707   4.581
10807TIP3   OH232361   7.077   6.586   3.882
10807TIP3    H132362   7.129   6.664   3.900
10807TIP3    H232363   6.991   6.620   3.858
10808TIP3   OH232364   7.996   0.837   2.534
10808TIP3    H132365   7.965   0.911   2.585
10808TIP3    H232366   7.969   0.856   2.444
10809TIP3   OH232367   2.989   7.172   4.997
10809TIP3    H132368   2.952   7.130   4.919
10809TIP3    H232369   2.914   7.215   5.038
10810TIP3   OH232370   2.296   7.044   2.971
10810TIP3    H132371   2.283   6.984   3.044
10810TIP3    H232372   2.210   7.083   2.956
10811TIP3   OH232373   2.172   5.911   4.312
10811TIP3    H132374   2.199   5.978   4.249
10811TIP3    H232375   2.084   5.886   4.284
10812TIP3   OH232376   8.275   1.671   3.130
10812TIP3    H132377   8.195   1.720   3.152
10812TIP3    H232378   8.275   1.596   3.189
10813TIP3   OH232379   6.217   1.524   4.725
10813TIP3    H132380   6.222   1.565   4.639
10813TIP3    H232381   6.151   1.574   4.772
10814TIP3   OH232382   1.989   7.698   4.247
10814TIP3    H132383   1.936   7.745   4.182
10814TIP3    H232384   1.993   7.608   4.214
10815TIP3   OH232385   6.723   7.552   0.080
10815TIP3    H132386   6.751   7.525  -0.008
10815TIP3    H232387   6.754   7.482   0.138
10816TIP3   OH232388   2.973   7.828   6.042
10816TIP3    H132389   2.970   7.814   6.137
10816TIP3    H232390   2.881   7.836   6.016
10817TIP3   OH232391   3.265   5.427   3.353
10817TIP3    H132392   3.274   5.468   3.267
10817TIP3    H232393   3.317   5.347   3.347
10818TIP3   OH232394   3.603   3.254   5.915
10818TIP3    H132395   3.594   3.159   5.920
10818TIP3    H232396   3.697   3.268   5.905
10819TIP3   OH232397   5.105   6.415   2.750
10819TIP3    H132398   5.120   6.393   2.842
10819TIP3    H232399   5.190   6.404   2.708
10820TIP3   OH232400   1.924   4.695   6.225
10820TIP3    H132401   1.841   4.728   6.191
10820TIP3    H232402   1.984   4.769   6.219
10821TIP3   OH232403   4.859   2.160   4.019
10821TIP3    H132404   4.911   2.189   4.094
10821TIP3    H232405   4.856   2.236   3.961
10822TIP3   OH232406   3.257  -0.003   1.537
10822TIP3    H132407   3.177   0.051   1.538
10822TIP3    H232408   3.316   0.043   1.597
10823TIP3   OH232409   3.840   3.600   5.521
10823TIP3    H132410   3.759   3.613   5.472
10823TIP3    H232411   3.902   3.663   5.484
10824TIP3   OH232412   0.920   3.931   2.725
10824TIP3    H132413   0.922   4.027   2.722
10824TIP3    H232414   0.933   3.903   2.635
10825TIP3   OH232415   3.430   7.539   1.435
10825TIP3    H132416   3.502   7.491   1.392
10825TIP3    H232417   3.423   7.498   1.521
10826TIP3   OH232418   2.508   0.130   3.954
10826TIP3    H132419   2.478   0.045   3.921
10826TIP3    H232420   2.499   0.123   4.049
10827TIP3   OH232421   0.139   0.893   5.914
10827TIP3    H132422   0.053   0.931   5.927
10827TIP3    H232423   0.174   0.938   5.837
10828TIP3   OH232424   6.416   5.539   3.629
10828TIP3    H132425   6.340   5.501   3.673
10828TIP3    H232426   6.378   5.602   3.568
10829TIP3   OH232427   2.930   2.748   3.198
10829TIP3    H132428   2.967   2.836   3.211
10829TIP3    H232429   2.956   2.724   3.109
10830TIP3   OH232430   7.439   4.686   4.211
10830TIP3    H132431   7.421   4.770   4.170
10830TIP3    H232432   7.427   4.701   4.305
10831TIP3   OH232433   3.637   0.277   0.369
10831TIP3    H132434   3.616   0.360   0.326
10831TIP3    H232435   3.588   0.280   0.452
10832TIP3   OH232436   0.474   2.397   5.047
10832TIP3    H132437   0.499   2.454   5.120
10832TIP3    H232438   0.379   2.400   5.045
10833TIP3   OH232439   7.780   2.666   1.183
10833TIP3    H132440   7.836   2.595   1.151
10833TIP3    H232441   7.798   2.671   1.276
10834TIP3   OH232442   5.006   6.669   3.285
10834TIP3    H132443   4.920   6.707   3.263
10834TIP3    H232444   4.986   6.598   3.346
10835TIP3   OH232445   5.902   0.425   5.497
10835TIP3    H132446   5.912   0.474   5.579
10835TIP3    H232447   5.814   0.388   5.502
10836TIP3   OH232448   3.354   6.193   3.207
10836TIP3    H132449   3.258   6.193   3.212
10836TIP3    H232450   3.383   6.217   3.295
10837TIP3   OH232451   5.267   3.391   1.352
10837TIP3    H132452   5.184   3.344   1.364
10837TIP3    H232453   5.326   3.352   1.417
10838TIP3   OH232454   7.296   0.508   2.469
10838TIP3    H132455   7.216   0.463   2.498
10838TIP3    H232456   7.321   0.461   2.389
10839TIP3   OH232457   8.150   4.762   5.578
10839TIP3    H132458   8.104   4.729   5.501
10839TIP3    H232459   8.213   4.826   5.543
10840TIP3   OH232460   1.186   2.012   3.989
10840TIP3    H132461   1.265   2.039   4.036
10840TIP3    H232462   1.218   1.964   3.913
10841TIP3   OH232463   3.090   0.328   2.269
10841TIP3    H132464   3.140   0.300   2.346
10841TIP3    H232465   3.114   0.265   2.201
10842TIP3   OH232466   2.418   7.449   2.786
10842TIP3    H132467   2.402   7.359   2.759
10842TIP3    H232468   2.367   7.502   2.724
10843TIP3   OH232469   7.966   0.090   3.807
10843TIP3    H132470   8.018   0.033   3.865
10843TIP3    H232471   7.890   0.037   3.784
10844TIP3   OH232472   0.457   7.428   4.627
10844TIP3    H132473   0.522   7.358   4.632
10844TIP3    H232474   0.414   7.427   4.713
10845TIP3   OH232475   7.658   2.486   6.222
10845TIP3    H132476   7.647   2.448   6.135
10845TIP3    H232477   7.576   2.465   6.267
10846TIP3   OH232478   1.097   6.718   0.128
10846TIP3    H132479   1.154   6.657   0.175
10846TIP3    H232480   1.151   6.796   0.115
10847TIP3   OH232481   2.503   3.434   1.421
10847TIP3    H132482   2.496   3.420   1.327
10847TIP3    H232483   2.578   3.493   1.432
10848TIP3   OH232484   2.224   6.676   2.882
10848TIP3    H132485   2.234   6.640   2.794
10848TIP3    H232486   2.307   6.658   2.925
10849TIP3   OH232487   7.601   0.466   3.963
10849TIP3    H132488   7.557   0.527   4.023
10849TIP3    H232489   7.694   0.476   3.981
10850TIP3   OH232490   2.588   1.408   0.897
10850TIP3    H132491   2.520   1.342   0.904
10850TIP3    H232492   2.670   1.359   0.898
10851TIP3   OH232493   6.533   4.305   0.818
10851TIP3    H132494   6.510   4.212   0.825
10851TIP3    H232495   6.526   4.325   0.724
10852TIP3   OH232496   4.299   7.765   2.053
10852TIP3    H132497   4.275   7.730   1.967
10852TIP3    H232498   4.381   7.721   2.074
10853TIP3   OH232499   6.759   0.263   1.063
10853TIP3    H132500   6.671   0.254   1.027
10853TIP3    H232501   6.788   0.173   1.078
10854TIP3   OH232502   7.822   5.592   1.177
10854TIP3    H132503   7.901   5.572   1.228
10854TIP3    H232504   7.834   5.683   1.149
10855TIP3   OH232505   3.602   6.512   5.172
10855TIP3    H132506   3.554   6.543   5.095
10855TIP3    H232507   3.537   6.462   5.221
10856TIP3   OH232508   1.014   7.493   3.601
10856TIP3    H132509   1.097   7.539   3.591
10856TIP3    H232510   0.947   7.560   3.588
10857TIP3   OH232511   1.573   1.463   0.118
10857TIP3    H132512   1.615   1.399   0.175
10857TIP3    H232513   1.528   1.410   0.052
10858TIP3   OH232514   0.880   0.293   1.601
10858TIP3    H132515   0.909   0.322   1.688
10858TIP3    H232516   0.789   0.322   1.596
10859TIP3   OH232517   4.169   5.485   5.407
10859TIP3    H132518   4.244   5.542   5.424
10859TIP3    H232519   4.181   5.455   5.317
10860TIP3   OH232520   0.103   6.395   0.294
10860TIP3    H132521   0.185   6.346   0.292
10860TIP3    H232522   0.071   6.390   0.203
10861TIP3   OH232523   4.475   0.887   6.130
10861TIP3    H132524   4.392   0.871   6.175
10861TIP3    H232525   4.535   0.820   6.165
10862TIP3   OH232526   3.967   7.341   5.386
10862TIP3    H132527   3.957   7.433   5.360
10862TIP3    H232528   3.884   7.320   5.431
10863TIP3   OH232529   3.829   3.289   4.133
10863TIP3    H132530   3.910   3.269   4.180
10863TIP3    H232531   3.857   3.309   4.044
10864TIP3   OH232532   1.593   1.991   1.337
10864TIP3    H132533   1.631   1.982   1.250
10864TIP3    H232534   1.627   2.074   1.370
10865TIP3   OH232535   3.547   6.596   0.937
10865TIP3    H132536   3.531   6.521   0.880
10865TIP3    H232537   3.636   6.623   0.917
10866TIP3   OH232538   4.371   7.596   0.166
10866TIP3    H132539   4.353   7.555   0.251
10866TIP3    H232540   4.287   7.591   0.119
10867TIP3   OH232541   8.175   5.697   2.388
10867TIP3    H132542   8.255   5.740   2.418
10867TIP3    H232543   8.169   5.617   2.441
10868TIP3   OH232544   0.617   1.456   3.979
10868TIP3    H132545   0.661   1.527   4.026
10868TIP3    H232546   0.653   1.376   4.017
10869TIP3   OH232547   3.762   0.103   4.902
10869TIP3    H132548   3.671   0.107   4.932
10869TIP3    H232549   3.814   0.105   4.982
10870TIP3   OH232550   7.539   3.375   1.090
10870TIP3    H132551   7.590   3.301   1.055
10870TIP3    H232552   7.605   3.442   1.109
10871TIP3   OH232553   7.578   2.508   2.690
10871TIP3    H132554   7.514   2.562   2.643
10871TIP3    H232555   7.606   2.442   2.627
10872TIP3   OH232556   3.029   4.873   4.703
10872TIP3    H132557   2.952   4.842   4.751
10872TIP3    H232558   3.051   4.801   4.644
10873TIP3   OH232559   3.158   1.949   6.779
10873TIP3    H132560   3.214   2.027   6.768
10873TIP3    H232561   3.074   1.985   6.808
10874TIP3   OH232562   4.526   0.483   0.377
10874TIP3    H132563   4.495   0.392   0.380
10874TIP3    H232564   4.587   0.485   0.303
10875TIP3   OH232565   4.239   3.054   4.526
10875TIP3    H132566   4.262   3.088   4.613
10875TIP3    H232567   4.161   3.000   4.541
10876TIP3   OH232568   6.588   7.545   2.211
10876TIP3    H132569   6.526   7.510   2.147
10876TIP3    H232570   6.673   7.513   2.182
10877TIP3   OH232571   0.491   1.057   3.933
10877TIP3    H132572   0.481   1.139   3.884
10877TIP3    H232573   0.464   1.079   4.022
10878TIP3   OH232574   7.272   3.846   3.689
10878TIP3    H132575   7.189   3.891   3.704
10878TIP3    H232576   7.253   3.783   3.620
10879TIP3   OH232577   1.264   5.323   5.138
10879TIP3    H132578   1.227   5.353   5.221
10879TIP3    H232579   1.255   5.398   5.079
10880TIP3   OH232580   7.916   1.612   0.155
10880TIP3    H132581   7.980   1.555   0.114
10880TIP3    H232582   7.859   1.641   0.084
10881TIP3   OH232583   5.477   4.245   2.932
10881TIP3    H132584   5.563   4.254   2.890
10881TIP3    H232585   5.414   4.267   2.863
10882TIP3   OH232586   1.168   0.357   5.950
10882TIP3    H132587   1.165   0.318   5.863
10882TIP3    H232588   1.096   0.421   5.950
10883TIP3   OH232589   6.508   3.726   4.861
10883TIP3    H132590   6.426   3.737   4.814
10883TIP3    H232591   6.552   3.654   4.816
10884TIP3   OH232592   5.334   5.969   4.596
10884TIP3    H132593   5.304   5.928   4.515
10884TIP3    H232594   5.340   5.897   4.659
10885TIP3   OH232595   8.160   5.299   0.842
10885TIP3    H132596   8.078   5.279   0.796
10885TIP3    H232597   8.137   5.295   0.935
10886TIP3   OH232598   5.994   1.218   0.345
10886TIP3    H132599   5.902   1.238   0.326
10886TIP3    H232600   5.993   1.127   0.373
10887TIP3   OH232601   4.202   3.877   1.302
10887TIP3    H132602   4.225   3.967   1.326
10887TIP3    H232603   4.107   3.877   1.295
10888TIP3   OH232604   6.294   2.292   4.982
10888TIP3    H132605   6.246   2.247   4.912
10888TIP3    H232606   6.385   2.288   4.956
10889TIP3   OH232607   7.832   5.153   4.434
10889TIP3    H132608   7.821   5.065   4.398
10889TIP3    H232609   7.767   5.158   4.504
10890TIP3   OH232610   6.767   0.774   1.777
10890TIP3    H132611   6.681   0.809   1.754
10890TIP3    H232612   6.751   0.717   1.852
10891TIP3   OH232613   6.816   7.425   4.584
10891TIP3    H132614   6.744   7.405   4.642
10891TIP3    H232615   6.814   7.520   4.574
10892TIP3   OH232616   3.534   1.018   0.988
10892TIP3    H132617   3.629   1.019   1.001
10892TIP3    H232618   3.513   0.927   0.969
10893TIP3   OH232619   2.268   4.218   5.981
10893TIP3    H132620   2.346   4.263   5.951
10893TIP3    H232621   2.259   4.243   6.073
10894TIP3   OH232622   2.592   3.309   5.828
10894TIP3    H132623   2.658   3.317   5.896
10894TIP3    H232624   2.528   3.377   5.849
10895TIP3   OH232625   1.258   0.189   2.846
10895TIP3    H132626   1.314   0.136   2.789
10895TIP3    H232627   1.287   0.168   2.935
10896TIP3   OH232628   6.880   4.857   6.804
10896TIP3    H132629   6.867   4.921   6.874
10896TIP3    H232630   6.804   4.798   6.810
10897TIP3   OH232631   6.338   4.555   3.265
10897TIP3    H132632   6.431   4.571   3.282
10897TIP3    H232633   6.315   4.620   3.198
10898TIP3   OH232634   7.290   4.196   3.685
10898TIP3    H132635   7.309   4.258   3.615
10898TIP3    H232636   7.374   4.185   3.730
10899TIP3   OH232637   7.846   7.677   4.076
10899TIP3    H132638   7.900   7.737   4.025
10899TIP3    H232639   7.822   7.608   4.014
10900TIP3   OH232640   5.867   7.316   0.601
10900TIP3    H132641   5.903   7.339   0.516
10900TIP3    H232642   5.925   7.358   0.665
10901TIP3   OH232643   4.814   1.258   2.076
10901TIP3    H132644   4.808   1.214   2.160
10901TIP3    H232645   4.842   1.190   2.014
10902TIP3   OH232646   3.967   7.595   6.368
10902TIP3    H132647   3.934   7.555   6.448
10902TIP3    H232648   4.030   7.532   6.333
10903TIP3   OH232649   4.608   1.025   1.995
10903TIP3    H132650   4.625   1.060   2.082
10903TIP3    H232651   4.694   1.017   1.955
10904TIP3   OH232652   4.542   4.945   1.096
10904TIP3    H132653   4.497   4.979   1.173
10904TIP3    H232654   4.480   4.885   1.056
10905TIP3   OH232655   1.037   2.780   6.547
10905TIP3    H132656   1.044   2.836   6.470
10905TIP3    H232657   1.072   2.695   6.518
10906TIP3   OH232658   5.129   4.062   1.879
10906TIP3    H132659   5.081   3.989   1.917
10906TIP3    H232660   5.062   4.117   1.839
10907TIP3   OH232661   7.999   4.456   6.335
10907TIP3    H132662   7.971   4.431   6.423
10907TIP3    H232663   7.920   4.454   6.282
10908TIP3   OH232664   3.924   7.071   1.220
10908TIP3    H132665   3.980   7.067   1.142
10908TIP3    H232666   3.835   7.062   1.186
10909TIP3   OH232667   4.559   7.259   6.018
10909TIP3    H132668   4.547   7.224   5.929
10909TIP3    H232669   4.649   7.237   6.040
10910TIP3   OH232670   0.781   5.714   5.074
10910TIP3    H132671   0.855   5.768   5.102
10910TIP3    H232672   0.792   5.632   5.122
10911TIP3   OH232673   0.880   2.486   3.184
10911TIP3    H132674   0.945   2.460   3.119
10911TIP3    H232675   0.800   2.503   3.133
10912TIP3   OH232676   5.335   6.098   1.056
10912TIP3    H132677   5.286   6.178   1.075
10912TIP3    H232678   5.408   6.128   1.002
10913TIP3   OH232679   2.254   7.663   6.018
10913TIP3    H132680   2.209   7.747   6.021
10913TIP3    H232681   2.185   7.599   6.004
10914TIP3   OH232682   3.064   0.169   3.327
10914TIP3    H132683   3.034   0.111   3.256
10914TIP3    H232684   3.096   0.109   3.395
10915TIP3   OH232685   8.251   5.276   1.115
10915TIP3    H132686   8.212   5.197   1.078
10915TIP3    H232687   8.280   5.250   1.202
10916TIP3   OH232688   3.736   1.925   5.163
10916TIP3    H132689   3.641   1.910   5.164
10916TIP3    H232690   3.757   1.936   5.070
10917TIP3   OH232691   8.337   6.202   6.927
10917TIP3    H132692   8.338   6.158   6.842
10917TIP3    H232693   8.371   6.290   6.909
10918TIP3   OH232694   7.972   6.582   5.996
10918TIP3    H132695   7.888   6.602   5.956
10918TIP3    H232696   7.986   6.652   6.060
10919TIP3   OH232697   4.842   5.360   5.234
10919TIP3    H132698   4.860   5.351   5.328
10919TIP3    H232699   4.756   5.403   5.231
10920TIP3   OH232700   1.061   4.993   6.428
10920TIP3    H132701   1.080   4.910   6.473
10920TIP3    H232702   0.969   5.010   6.449
10921TIP3   OH232703   4.994   7.087   2.523
10921TIP3    H132704   5.007   7.102   2.617
10921TIP3    H232705   4.976   7.174   2.487
10922TIP3   OH232706   0.921   2.725   4.264
10922TIP3    H132707   0.874   2.784   4.323
10922TIP3    H232708   0.987   2.781   4.223
10923TIP3   OH232709   4.545   1.869   5.336
10923TIP3    H132710   4.605   1.920   5.391
10923TIP3    H232711   4.519   1.795   5.391
10924TIP3   OH232712   6.337   6.873   4.196
10924TIP3    H132713   6.385   6.882   4.114
10924TIP3    H232714   6.259   6.823   4.173
10925TIP3   OH232715   1.521   4.154   6.636
10925TIP3    H132716   1.536   4.248   6.625
10925TIP3    H232717   1.501   4.143   6.729
10926TIP3   OH232718   6.594   0.271   3.576
10926TIP3    H132719   6.640   0.233   3.651
10926TIP3    H232720   6.661   0.276   3.508
10927TIP3   OH232721   0.086   2.139   6.150
10927TIP3    H132722   0.037   2.163   6.071
10927TIP3    H232723   0.121   2.222   6.182
10928TIP3   OH232724   4.559   3.762   4.991
10928TIP3    H132725   4.517   3.697   4.935
10928TIP3    H232726   4.640   3.720   5.021
10929TIP3   OH232727   2.520   3.795   0.228
10929TIP3    H132728   2.480   3.798   0.141
10929TIP3    H232729   2.447   3.809   0.289
10930TIP3   OH232730   1.143   4.945   0.097
10930TIP3    H132731   1.094   5.027   0.106
10930TIP3    H232732   1.218   4.956   0.156
10931TIP3   OH232733   7.821   6.501   1.554
10931TIP3    H132734   7.731   6.478   1.575
10931TIP3    H232735   7.849   6.435   1.491
10932TIP3   OH232736   7.199   1.987   1.225
10932TIP3    H132737   7.243   2.012   1.144
10932TIP3    H232738   7.194   2.068   1.276
10933TIP3   OH232739   6.980   4.782   1.355
10933TIP3    H132740   7.032   4.768   1.434
10933TIP3    H232741   7.044   4.789   1.285
10934TIP3   OH232742   0.662   3.252   5.990
10934TIP3    H132743   0.663   3.325   5.929
10934TIP3    H232744   0.730   3.192   5.957
10935TIP3   OH232745   4.522   2.111   6.334
10935TIP3    H132746   4.447   2.056   6.314
10935TIP3    H232747   4.503   2.147   6.421
10936TIP3   OH232748   3.514   5.410   0.544
10936TIP3    H132749   3.428   5.368   0.546
10936TIP3    H232750   3.576   5.339   0.555
10937TIP3   OH232751   7.537   5.476   4.062
10937TIP3    H132752   7.479   5.546   4.032
10937TIP3    H232753   7.536   5.483   4.157
10938TIP3   OH232754   0.495   3.016   2.129
10938TIP3    H132755   0.569   2.999   2.187
10938TIP3    H232756   0.529   3.078   2.064
10939TIP3   OH232757   7.189   6.591   1.700
10939TIP3    H132758   7.116   6.571   1.759
10939TIP3    H232759   7.154   6.573   1.612
10940TIP3   OH232760   3.367   4.396   1.243
10940TIP3    H132761   3.341   4.304   1.236
10940TIP3    H232762   3.442   4.404   1.185
10941TIP3   OH232763   2.615   2.481   2.172
10941TIP3    H132764   2.664   2.468   2.090
10941TIP3    H232765   2.599   2.575   2.175
10942TIP3   OH232766   3.362   6.503   6.523
10942TIP3    H132767   3.396   6.413   6.529
10942TIP3    H232768   3.279   6.499   6.571
10943TIP3   OH232769   1.816   2.713   1.594
10943TIP3    H132770   1.902   2.726   1.555
10943TIP3    H232771   1.817   2.767   1.673
10944TIP3   OH232772   0.485   6.073   1.845
10944TIP3    H132773   0.466   6.072   1.751
10944TIP3    H232774   0.422   6.136   1.882
10945TIP3   OH232775   7.913   1.203   3.094
10945TIP3    H132776   7.893   1.229   3.004
10945TIP3    H232777   7.970   1.126   3.086
10946TIP3   OH232778   5.629   2.375   6.188
10946TIP3    H132779   5.641   2.414   6.275
10946TIP3    H232780   5.535   2.365   6.179
10947TIP3   OH232781   7.850   6.954   5.095
10947TIP3    H132782   7.825   7.045   5.077
10947TIP3    H232783   7.939   6.947   5.061
10948TIP3   OH232784   1.963   0.478   4.564
10948TIP3    H132785   1.935   0.463   4.473
10948TIP3    H232786   1.889   0.452   4.617
10949TIP3   OH232787   5.562   6.334   4.207
10949TIP3    H132788   5.653   6.355   4.232
10949TIP3    H232789   5.564   6.327   4.112
10950TIP3   OH232790   0.104   4.199   5.220
10950TIP3    H132791   0.010   4.214   5.227
10950TIP3    H232792   0.116   4.162   5.132
10951TIP3   OH232793   5.065   2.678   3.873
10951TIP3    H132794   5.131   2.747   3.872
10951TIP3    H232795   4.984   2.723   3.897
10952TIP3   OH232796   6.066   4.134   3.374
10952TIP3    H132797   6.094   4.102   3.288
10952TIP3    H232798   6.114   4.216   3.387
10953TIP3   OH232799   2.307   1.432   0.742
10953TIP3    H132800   2.368   1.497   0.708
10953TIP3    H232801   2.293   1.458   0.833
10954TIP3   OH232802   6.312   3.836   2.757
10954TIP3    H132803   6.395   3.795   2.783
10954TIP3    H232804   6.269   3.770   2.704
10955TIP3   OH232805   6.427   2.338   3.175
10955TIP3    H132806   6.416   2.243   3.173
10955TIP3    H232807   6.387   2.368   3.093
10956TIP3   OH232808   3.287   4.162   0.919
10956TIP3    H132809   3.383   4.160   0.926
10956TIP3    H232810   3.263   4.072   0.900
10957TIP3   OH232811   1.740   0.571   4.861
10957TIP3    H132812   1.809   0.537   4.918
10957TIP3    H232813   1.766   0.662   4.843
10958TIP3   OH232814   3.815   7.820   6.624
10958TIP3    H132815   3.897   7.838   6.577
10958TIP3    H232816   3.785   7.906   6.653
10959TIP3   OH232817   0.132   4.829   5.593
10959TIP3    H132818   0.207   4.884   5.568
10959TIP3    H232819   0.056   4.881   5.568
10960TIP3   OH232820   1.740   2.812   0.775
10960TIP3    H132821   1.766   2.832   0.685
10960TIP3    H232822   1.767   2.721   0.789
10961TIP3   OH232823   3.784   3.133   1.592
10961TIP3    H132824   3.718   3.183   1.640
10961TIP3    H232825   3.741   3.106   1.511
10962TIP3   OH232826   0.160   6.735   0.991
10962TIP3    H132827   0.152   6.694   1.077
10962TIP3    H232828   0.249   6.716   0.963
10963TIP3   OH232829   7.978   7.128   5.380
10963TIP3    H132830   7.893   7.099   5.411
10963TIP3    H232831   8.006   7.193   5.444
10964TIP3   OH232832   7.234   3.683   4.681
10964TIP3    H132833   7.257   3.676   4.773
10964TIP3    H232834   7.269   3.768   4.654
10965TIP3   OH232835   0.318   1.733   1.912
10965TIP3    H132836   0.269   1.684   1.978
10965TIP3    H232837   0.332   1.670   1.841
10966TIP3   OH232838   2.960   4.271   2.949
10966TIP3    H132839   2.871   4.245   2.971
10966TIP3    H232840   3.016   4.213   3.002
10967TIP3   OH232841   7.609   6.726   2.849
10967TIP3    H132842   7.650   6.650   2.808
10967TIP3    H232843   7.657   6.738   2.931
10968TIP3   OH232844   5.274   6.453   6.469
10968TIP3    H132845   5.250   6.456   6.376
10968TIP3    H232846   5.249   6.539   6.502
10969TIP3   OH232847   6.463   4.750   0.050
10969TIP3    H132848   6.395   4.813   0.024
10969TIP3    H232849   6.540   4.776  -0.001
10970TIP3   OH232850   6.422   7.024   6.634
10970TIP3    H132851   6.435   7.102   6.581
10970TIP3    H232852   6.350   6.977   6.592
10971TIP3   OH232853   7.181   6.100   1.606
10971TIP3    H132854   7.108   6.041   1.586
10971TIP3    H232855   7.210   6.132   1.520
10972TIP3   OH232856   7.547   6.606   4.246
10972TIP3    H132857   7.499   6.661   4.308
10972TIP3    H232858   7.480   6.547   4.211
10973TIP3   OH232859   5.079   6.964   2.277
10973TIP3    H132860   5.103   7.027   2.210
10973TIP3    H232861   5.079   7.013   2.359
10974TIP3   OH232862   6.530   7.537   5.202
10974TIP3    H132863   6.582   7.548   5.123
10974TIP3    H232864   6.462   7.475   5.177
10975TIP3   OH232865   4.991   7.471   2.892
10975TIP3    H132866   4.995   7.464   2.797
10975TIP3    H232867   4.992   7.565   2.910
10976TIP3   OH232868   3.937   2.936   1.695
10976TIP3    H132869   3.882   3.006   1.661
10976TIP3    H232870   3.886   2.899   1.768
10977TIP3   OH232871   3.951   1.342   3.328
10977TIP3    H132872   3.953   1.252   3.360
10977TIP3    H232873   3.906   1.391   3.397
10978TIP3   OH232874   5.701   2.582   2.596
10978TIP3    H132875   5.635   2.635   2.552
10978TIP3    H232876   5.653   2.504   2.625
10979TIP3   OH232877   1.269   6.619   1.585
10979TIP3    H132878   1.193   6.608   1.643
10979TIP3    H232879   1.245   6.692   1.527
10980TIP3   OH232880   6.399   2.046   1.130
10980TIP3    H132881   6.401   2.140   1.149
10980TIP3    H232882   6.469   2.033   1.066
10981TIP3   OH232883   0.397   6.108   4.027
10981TIP3    H132884   0.304   6.097   4.003
10981TIP3    H232885   0.444   6.060   3.958
10982TIP3   OH232886   6.375   6.320   2.953
10982TIP3    H132887   6.331   6.247   2.910
10982TIP3    H232888   6.428   6.359   2.884
10983TIP3   OH232889   7.868   0.472   4.044
10983TIP3    H132890   7.938   0.526   4.007
10983TIP3    H232891   7.874   0.485   4.138
10984TIP3   OH232892   5.837   4.769   0.530
10984TIP3    H132893   5.758   4.789   0.580
10984TIP3    H232894   5.825   4.815   0.447
10985TIP3   OH232895   5.570   7.114   4.294
10985TIP3    H132896   5.635   7.059   4.252
10985TIP3    H232897   5.618   7.193   4.319
10986TIP3   OH232898   1.255   5.683   3.714
10986TIP3    H132899   1.169   5.696   3.754
10986TIP3    H232900   1.262   5.753   3.650
10987TIP3   OH232901   2.146   2.914   0.145
10987TIP3    H132902   2.191   2.997   0.138
10987TIP3    H232903   2.152   2.890   0.237
10988TIP3   OH232904   1.119   5.397   4.777
10988TIP3    H132905   1.202   5.354   4.755
10988TIP3    H232906   1.141   5.490   4.782
10989TIP3   OH232907   4.232   4.974   2.323
10989TIP3    H132908   4.228   5.010   2.235
10989TIP3    H232909   4.169   4.902   2.322
10990TIP3   OH232910   1.059   3.562   5.636
10990TIP3    H132911   0.985   3.586   5.693
10990TIP3    H232912   1.021   3.500   5.573
10991TIP3   OH232913   7.301   6.362   6.355
10991TIP3    H132914   7.283   6.337   6.264
10991TIP3    H232915   7.301   6.458   6.353
10992TIP3   OH232916   6.639   1.733   5.694
10992TIP3    H132917   6.604   1.777   5.617
10992TIP3    H232918   6.727   1.769   5.705
10993TIP3   OH232919   3.332   7.093   3.865
10993TIP3    H132920   3.408   7.150   3.869
10993TIP3    H232921   3.358   7.015   3.915
10994TIP3   OH232922   5.705   7.473   6.490
10994TIP3    H132923   5.715   7.466   6.585
10994TIP3    H232924   5.795   7.477   6.457
10995TIP3   OH232925   0.108   6.902   2.534
10995TIP3    H132926   0.153   6.828   2.493
10995TIP3    H232927   0.104   6.968   2.465
10996TIP3   OH232928   1.532   5.146   4.021
10996TIP3    H132929   1.586   5.220   3.992
10996TIP3    H232930   1.578   5.112   4.098
10997TIP3   OH232931   0.491   0.865   5.700
10997TIP3    H132932   0.511   0.860   5.794
10997TIP3    H232933   0.473   0.775   5.674
10998TIP3   OH232934   1.889   2.260   6.503
10998TIP3    H132935   1.822   2.195   6.480
10998TIP3    H232936   1.904   2.247   6.597
10999TIP3   OH232937   5.906   4.328   1.061
10999TIP3    H132938   5.906   4.422   1.080
10999TIP3    H232939   5.949   4.321   0.976
11000TIP3   OH232940   2.214   3.950   4.151
11000TIP3    H132941   2.238   4.034   4.112
11000TIP3    H232942   2.296   3.900   4.150
11001TIP3   OH232943   0.126   2.533   3.820
11001TIP3    H132944   0.036   2.556   3.844
11001TIP3    H232945   0.181   2.594   3.870
11002TIP3   OH232946   7.699   7.127   0.141
11002TIP3    H132947   7.709   7.100   0.050
11002TIP3    H232948   7.621   7.183   0.141
11003TIP3   OH232949   2.354   6.934   0.877
11003TIP3    H132950   2.403   6.871   0.824
11003TIP3    H232951   2.290   6.972   0.817
11004TIP3   OH232952   8.122   6.863   0.344
11004TIP3    H132953   8.079   6.942   0.311
11004TIP3    H232954   8.052   6.811   0.384
11005TIP3   OH232955   6.505   1.808   2.364
11005TIP3    H132956   6.543   1.872   2.303
11005TIP3    H232957   6.545   1.828   2.448
11006TIP3   OH232958   2.985   1.057   4.809
11006TIP3    H132959   3.063   1.023   4.853
11006TIP3    H232960   3.018   1.099   4.730
11007TIP3   OH232961   2.902   5.634   1.938
11007TIP3    H132962   2.885   5.568   2.005
11007TIP3    H232963   2.902   5.585   1.855
11008TIP3   OH232964   0.386   3.290   2.402
11008TIP3    H132965   0.478   3.299   2.428
11008TIP3    H232966   0.337   3.330   2.474
11009TIP3   OH232967   0.909   7.297   1.648
11009TIP3    H132968   0.963   7.273   1.723
11009TIP3    H232969   0.847   7.360   1.682
11010TIP3   OH232970   5.445   3.364   0.509
11010TIP3    H132971   5.501   3.439   0.529
11010TIP3    H232972   5.474   3.295   0.570
11011TIP3   OH232973   4.769   2.954   6.191
11011TIP3    H132974   4.734   2.967   6.103
11011TIP3    H232975   4.693   2.960   6.248
11012TIP3   OH232976   0.481   2.609   4.332
11012TIP3    H132977   0.554   2.619   4.392
11012TIP3    H232978   0.489   2.682   4.272
11013TIP3   OH232979   6.525   0.255   2.121
11013TIP3    H132980   6.449   0.219   2.075
11013TIP3    H232981   6.497   0.341   2.152
11014TIP3   OH232982   2.744   4.245   3.083
11014TIP3    H132983   2.672   4.215   3.139
11014TIP3    H232984   2.759   4.336   3.109
11015TIP3   OH232985   1.770   4.621   4.790
11015TIP3    H132986   1.733   4.676   4.859
11015TIP3    H232987   1.695   4.594   4.737
11016TIP3   OH232988   5.042   2.012   0.164
11016TIP3    H132989   4.984   2.074   0.208
11016TIP3    H232990   5.127   2.025   0.207
11017TIP3   OH232991   5.721   3.921   5.534
11017TIP3    H132992   5.650   3.880   5.485
11017TIP3    H232993   5.727   4.010   5.498
11018TIP3   OH232994   5.846   3.252   5.631
11018TIP3    H132995   5.840   3.319   5.564
11018TIP3    H232996   5.916   3.281   5.689
11019TIP3   OH232997   2.201   0.050   0.996
11019TIP3    H132998   2.231   0.082   1.080
11019TIP3    H232999   2.219   0.121   0.935
11020TIP3   OH233000   7.764   5.405   5.139
11020TIP3    H133001   7.723   5.324   5.110
11020TIP3    H233002   7.760   5.463   5.063
11021TIP3   OH233003   2.174   4.247   1.675
11021TIP3    H133004   2.167   4.214   1.764
11021TIP3    H233005   2.083   4.263   1.648
11022TIP3   OH233006   6.067   0.323   0.187
11022TIP3    H133007   6.120   0.362   0.257
11022TIP3    H233008   6.052   0.394   0.126
11023TIP3   OH233009   4.191   7.269   3.125
11023TIP3    H133010   4.237   7.326   3.186
11023TIP3    H233011   4.166   7.193   3.176
11024TIP3   OH233012   7.865   4.866   3.862
11024TIP3    H133013   7.887   4.937   3.922
11024TIP3    H233014   7.814   4.804   3.915
11025TIP3   OH233015   4.930   3.235   3.712
11025TIP3    H133016   4.924   3.264   3.621
11025TIP3    H233017   4.855   3.176   3.723
11026TIP3   OH233018   0.894   1.457   5.179
11026TIP3    H133019   0.861   1.526   5.121
11026TIP3    H233020   0.833   1.457   5.253
11027TIP3   OH233021   2.280   6.114   2.469
11027TIP3    H133022   2.233   6.127   2.551
11027TIP3    H233023   2.248   6.182   2.411
11028TIP3   OH233024   1.050   6.595   5.021
11028TIP3    H133025   1.128   6.563   4.975
11028TIP3    H233026   1.020   6.669   4.968
11029TIP3   OH233027   2.554   7.110   6.566
11029TIP3    H133028   2.477   7.054   6.552
11029TIP3    H233029   2.604   7.065   6.634
11030TIP3   OH233030   0.521   5.002   4.503
11030TIP3    H133031   0.498   5.088   4.468
11030TIP3    H233032   0.564   5.021   4.586
11031TIP3   OH233033   7.800   1.599   2.220
11031TIP3    H133034   7.743   1.564   2.152
11031TIP3    H233035   7.772   1.555   2.300
11032TIP3   OH233036   1.995   5.584   0.184
11032TIP3    H133037   1.967   5.504   0.228
11032TIP3    H233038   1.961   5.655   0.238
11033TIP3   OH233039   3.596   0.447   6.565
11033TIP3    H133040   3.611   0.537   6.534
11033TIP3    H233041   3.654   0.394   6.511
11034TIP3   OH233042   1.845   1.297   1.327
11034TIP3    H133043   1.810   1.328   1.243
11034TIP3    H233044   1.769   1.262   1.373
11035TIP3   OH233045   0.075   7.330   4.498
11035TIP3    H133046   0.123   7.372   4.427
11035TIP3    H233047   0.008   7.278   4.454
11036TIP3   OH233048   4.065   0.260   0.238
11036TIP3    H133049   4.007   0.200   0.191
11036TIP3    H233050   4.041   0.249   0.330
11037TIP3   OH233051   6.304   3.118   4.176
11037TIP3    H133052   6.355   3.196   4.151
11037TIP3    H233053   6.213   3.147   4.175
11038TIP3   OH233054   3.109   7.351   6.229
11038TIP3    H133055   3.130   7.427   6.174
11038TIP3    H233056   3.017   7.362   6.252
11039TIP3   OH233057   3.856   3.728   5.052
11039TIP3    H133058   3.922   3.741   5.120
11039TIP3    H233059   3.898   3.761   4.972
11040TIP3   OH233060   0.857   2.454   5.866
11040TIP3    H133061   0.899   2.374   5.836
11040TIP3    H233062   0.773   2.426   5.901
11041TIP3   OH233063   4.246   6.489   0.686
11041TIP3    H133064   4.316   6.546   0.653
11041TIP3    H233065   4.176   6.550   0.712
11042TIP3   OH233066   1.925   5.088   3.934
11042TIP3    H133067   2.002   5.075   3.878
11042TIP3    H233068   1.885   5.001   3.940
11043TIP3   OH233069   0.573   3.667   2.686
11043TIP3    H133070   0.653   3.643   2.640
11043TIP3    H233071   0.564   3.600   2.754
11044TIP3   OH233072   1.623   4.636   4.277
11044TIP3    H133073   1.660   4.607   4.194
11044TIP3    H233074   1.536   4.597   4.279
11045TIP3   OH233075   8.089   3.067   4.726
11045TIP3    H133076   8.014   3.117   4.759
11045TIP3    H233077   8.129   3.124   4.661
11046TIP3   OH233078   7.033   6.840   6.104
11046TIP3    H133079   6.971   6.894   6.056
11046TIP3    H233080   7.002   6.750   6.090
11047TIP3   OH233081   6.021   0.100   4.917
11047TIP3    H133082   5.998   0.008   4.933
11047TIP3    H233083   6.116   0.099   4.904
11048TIP3   OH233084   3.904   1.246   5.124
11048TIP3    H133085   3.935   1.178   5.184
11048TIP3    H233086   3.874   1.199   5.047
11049TIP3   OH233087   2.226   1.751   4.400
11049TIP3    H133088   2.203   1.662   4.374
11049TIP3    H233089   2.144   1.790   4.430
11050TIP3   OH233090   6.405   4.238   1.388
11050TIP3    H133091   6.396   4.284   1.472
11050TIP3    H233092   6.336   4.172   1.389
11051TIP3   OH233093   6.860   1.907   1.526
11051TIP3    H133094   6.846   2.001   1.537
11051TIP3    H233095   6.775   1.874   1.497
11052TIP3   OH233096   1.554   7.296   6.944
11052TIP3    H133097   1.552   7.206   6.911
11052TIP3    H233098   1.506   7.346   6.879
11053TIP3   OH233099   0.528   3.318   0.252
11053TIP3    H133100   0.443   3.274   0.262
11053TIP3    H233101   0.589   3.263   0.300
11054TIP3   OH233102   7.560   7.834   0.652
11054TIP3    H133103   7.559   7.743   0.683
11054TIP3    H233104   7.652   7.853   0.634
11055TIP3   OH233105   0.904   5.458   2.851
11055TIP3    H133106   0.832   5.418   2.803
11055TIP3    H233107   0.889   5.434   2.942
11056TIP3   OH233108   6.004   7.127   6.623
11056TIP3    H133109   5.926   7.105   6.573
11056TIP3    H233110   6.073   7.071   6.587
11057TIP3   OH233111   7.255   3.016   1.754
11057TIP3    H133112   7.276   3.002   1.846
11057TIP3    H233113   7.336   2.997   1.707
11058TIP3   OH233114   1.298   0.113   1.087
11058TIP3    H133115   1.340   0.037   1.127
11058TIP3    H233116   1.321   0.108   0.994
11059TIP3   OH233117   8.060   6.895   6.463
11059TIP3    H133118   8.051   6.852   6.548
11059TIP3    H233119   8.071   6.988   6.484
11060TIP3   OH233120   3.252   6.686   3.439
11060TIP3    H133121   3.284   6.640   3.361
11060TIP3    H233122   3.229   6.616   3.500
11061TIP3   OH233123   1.416   3.768   3.799
11061TIP3    H133124   1.327   3.735   3.783
11061TIP3    H233125   1.445   3.802   3.715
11062TIP3   OH233126   5.002   2.362   3.146
11062TIP3    H133127   4.961   2.437   3.189
11062TIP3    H233128   4.962   2.286   3.188
11063TIP3   OH233129   2.943   0.912   0.645
11063TIP3    H133130   2.923   0.965   0.569
11063TIP3    H233131   3.031   0.939   0.672
11064TIP3   OH233132   1.488   6.454   1.178
11064TIP3    H133133   1.440   6.511   1.117
11064TIP3    H233134   1.553   6.410   1.123
11065TIP3   OH233135   5.008   4.500   0.052
11065TIP3    H133136   4.966   4.572   0.098
11065TIP3    H233137   4.944   4.475  -0.016
11066TIP3   OH233138   4.176   3.646   2.617
11066TIP3    H133139   4.158   3.623   2.526
11066TIP3    H233140   4.255   3.597   2.639
11067TIP3   OH233141   5.211   0.138   6.828
11067TIP3    H133142   5.162   0.220   6.822
11067TIP3    H233143   5.299   0.165   6.854
11068TIP3   OH233144   4.402   1.860   4.353
11068TIP3    H133145   4.477   1.856   4.294
11068TIP3    H233146   4.351   1.936   4.324
11069TIP3   OH233147   1.011   0.044   2.041
11069TIP3    H133148   1.023  -0.025   2.107
11069TIP3    H233149   1.015   0.125   2.091
11070TIP3   OH233150   5.648   7.568   1.202
11070TIP3    H133151   5.598   7.631   1.254
11070TIP3    H233152   5.637   7.597   1.111
11071TIP3   OH233153   4.073   6.469   3.127
11071TIP3    H133154   4.108   6.479   3.038
11071TIP3    H233155   4.136   6.411   3.171
11072TIP3   OH233156   2.037   6.834   4.118
11072TIP3    H133157   2.104   6.803   4.056
11072TIP3    H233158   2.086   6.885   4.182
11073TIP3   OH233159   2.101   2.739   6.587
11073TIP3    H133160   2.181   2.786   6.566
11073TIP3    H233161   2.129   2.650   6.608
11074TIP3   OH233162   7.047   4.173   0.089
11074TIP3    H133163   7.112   4.160   0.020
11074TIP3    H233164   7.016   4.262   0.076
11075TIP3   OH233165   4.597   0.767   4.411
11075TIP3    H133166   4.610   0.821   4.489
11075TIP3    H233167   4.562   0.685   4.444
11076TIP3   OH233168   7.044   5.922   2.009
11076TIP3    H133169   6.974   5.979   2.042
11076TIP3    H233170   6.999   5.845   1.976
11077TIP3   OH233171   0.615   2.324   4.565
11077TIP3    H133172   0.632   2.305   4.657
11077TIP3    H233173   0.682   2.275   4.517
11078TIP3   OH233174   4.281   4.362   4.080
11078TIP3    H133175   4.197   4.344   4.039
11078TIP3    H233176   4.341   4.298   4.042
11079TIP3   OH233177   4.665   0.089   5.113
11079TIP3    H133178   4.760   0.098   5.119
11079TIP3    H233179   4.646   0.098   5.020
11080TIP3   OH233180   0.116   6.033   3.991
11080TIP3    H133181   0.107   5.940   4.011
11080TIP3    H233182   0.081   6.042   3.902
11081TIP3   OH233183   4.472   2.563   5.009
11081TIP3    H133184   4.559   2.570   5.049
11081TIP3    H233185   4.485   2.508   4.932
11082TIP3   OH233186   2.542   6.312   6.170
11082TIP3    H133187   2.535   6.370   6.094
11082TIP3    H233188   2.598   6.360   6.231
11083TIP3   OH233189   7.686   0.678   0.359
11083TIP3    H133190   7.628   0.753   0.356
11083TIP3    H233191   7.749   0.699   0.429
11084TIP3   OH233192   7.862   2.986   5.789
11084TIP3    H133193   7.843   3.020   5.877
11084TIP3    H233194   7.942   2.935   5.801
11085TIP3   OH233195   5.222   7.965   1.135
11085TIP3    H133196   5.187   8.022   1.066
11085TIP3    H233197   5.254   7.888   1.088
11086TIP3   OH233198   0.397   2.882   1.735
11086TIP3    H133199   0.466   2.868   1.800
11086TIP3    H233200   0.318   2.892   1.788
11087TIP3   OH233201   4.217   6.705   3.561
11087TIP3    H133202   4.252   6.768   3.499
11087TIP3    H233203   4.148   6.659   3.513
11088TIP3   OH233204   5.828   4.816   0.809
11088TIP3    H133205   5.891   4.819   0.736
11088TIP3    H233206   5.787   4.903   0.809
11089TIP3   OH233207   3.644   5.902   3.803
11089TIP3    H133208   3.717   5.847   3.832
11089TIP3    H233209   3.567   5.845   3.807
11090TIP3   OH233210   0.537   1.139   0.844
11090TIP3    H133211   0.548   1.052   0.805
11090TIP3    H233212   0.560   1.200   0.773
11091TIP3   OH233213   2.805   1.015   2.119
11091TIP3    H133214   2.834   0.965   2.042
11091TIP3    H233215   2.729   1.065   2.088
11092TIP3   OH233216   7.352   6.666   4.830
11092TIP3    H133217   7.396   6.623   4.757
11092TIP3    H233218   7.418   6.726   4.865
11093TIP3   OH233219   4.262   1.944   0.204
11093TIP3    H133220   4.278   1.850   0.195
11093TIP3    H233221   4.205   1.966   0.129
11094TIP3   OH233222   2.889   4.972   2.006
11094TIP3    H133223   2.946   4.919   1.949
11094TIP3    H233224   2.868   4.915   2.080
11095TIP3   OH233225   7.232   0.497   1.703
11095TIP3    H133226   7.141   0.526   1.712
11095TIP3    H233227   7.227   0.402   1.699
11096TIP3   OH233228   6.569   2.882   5.092
11096TIP3    H133229   6.641   2.842   5.141
11096TIP3    H233230   6.556   2.967   5.134
11097TIP3   OH233231   7.070   7.716   5.345
11097TIP3    H133232   6.990   7.768   5.341
11097TIP3    H233233   7.141   7.780   5.343
11098TIP3   OH233234   1.422   5.511   4.324
11098TIP3    H133235   1.489   5.486   4.389
11098TIP3    H233236   1.465   5.578   4.271
11099TIP3   OH233237   4.615   0.965   3.878
11099TIP3    H133238   4.603   1.043   3.824
11099TIP3    H233239   4.574   0.988   3.961
11100TIP3   OH233240   7.362   7.890   6.454
11100TIP3    H133241   7.448   7.913   6.491
11100TIP3    H233242   7.382   7.822   6.389
11101TIP3   OH233243   1.911   3.716   2.602
11101TIP3    H133244   1.844   3.749   2.662
11101TIP3    H233245   1.865   3.652   2.547
11102TIP3   OH233246   0.905   0.523   0.670
11102TIP3    H133247   0.946   0.554   0.589
11102TIP3    H233248   0.969   0.541   0.738
11103TIP3   OH233249   7.642   3.248   0.493
11103TIP3    H133250   7.628   3.286   0.406
11103TIP3    H233251   7.562   3.199   0.511
11104TIP3   OH233252   2.369   3.975   1.614
11104TIP3    H133253   2.392   3.890   1.575
11104TIP3    H233254   2.393   4.039   1.547
11105TIP3   OH233255   6.086   6.928   5.609
11105TIP3    H133256   6.004   6.974   5.589
11105TIP3    H233257   6.155   6.989   5.579
11106TIP3   OH233258   5.907   2.054   1.359
11106TIP3    H133259   5.856   2.105   1.296
11106TIP3    H233260   5.989   2.104   1.369
11107TIP3   OH233261   3.547   6.150   0.645
11107TIP3    H133262   3.578   6.180   0.559
11107TIP3    H233263   3.600   6.072   0.663
11108TIP3   OH233264   5.630   0.320   5.908
11108TIP3    H133265   5.589   0.309   5.994
11108TIP3    H233266   5.663   0.410   5.908
11109TIP3   OH233267   0.200   5.703   4.727
11109TIP3    H133268   0.190   5.726   4.819
11109TIP3    H233269   0.276   5.753   4.697
11110TIP3   OH233270   5.145   4.929   4.690
11110TIP3    H133271   5.144   4.869   4.764
11110TIP3    H233272   5.130   4.874   4.614
11111TIP3   OH233273   2.792   4.396   5.530
11111TIP3    H133274   2.847   4.324   5.562
11111TIP3    H233275   2.777   4.375   5.438
11112TIP3   OH233276   5.595   5.221   2.821
11112TIP3    H133277   5.601   5.166   2.899
11112TIP3    H233278   5.506   5.207   2.789
11113TIP3   OH233279   1.000   7.469   2.707
11113TIP3    H133280   1.030   7.558   2.691
11113TIP3    H233281   1.056   7.415   2.650
11114TIP3   OH233282   3.234   5.765   2.459
11114TIP3    H133283   3.165   5.699   2.457
11114TIP3    H233284   3.303   5.726   2.513
11115TIP3   OH233285   5.746   3.788   0.279
11115TIP3    H133286   5.686   3.860   0.259
11115TIP3    H233287   5.830   3.831   0.292
11116TIP3   OH233288   0.806   0.371   2.373
11116TIP3    H133289   0.753   0.449   2.356
11116TIP3    H233290   0.870   0.400   2.438
11117TIP3   OH233291   3.576   5.418   5.546
11117TIP3    H133292   3.621   5.362   5.483
11117TIP3    H233293   3.488   5.382   5.551
11118TIP3   OH233294   4.061   0.070   3.356
11118TIP3    H133295   4.074   0.074   3.450
11118TIP3    H233296   4.060   0.161   3.328
11119TIP3   OH233297   0.172   1.808   5.102
11119TIP3    H133298   0.124   1.847   5.029
11119TIP3    H233299   0.232   1.746   5.061
11120TIP3   OH233300   2.226   4.353   3.303
11120TIP3    H133301   2.226   4.353   3.399
11120TIP3    H233302   2.144   4.397   3.280
11121TIP3   OH233303   1.874   7.610   0.205
11121TIP3    H133304   1.848   7.669   0.134
11121TIP3    H233305   1.819   7.637   0.279
11122TIP3   OH233306   7.196   0.753   3.773
11122TIP3    H133307   7.201   0.824   3.837
11122TIP3    H233308   7.147   0.684   3.817
11123TIP3   OH233309   6.227   1.686   3.269
11123TIP3    H133310   6.176   1.638   3.335
11123TIP3    H233311   6.300   1.724   3.317
11124TIP3   OH233312   7.617   0.297   1.287
11124TIP3    H133313   7.668   0.216   1.291
11124TIP3    H233314   7.651   0.342   1.210
11125TIP3   OH233315   7.238   4.493   1.624
11125TIP3    H133316   7.174   4.466   1.690
11125TIP3    H233317   7.264   4.412   1.581
11126TIP3   OH233318   3.734   2.317   2.389
11126TIP3    H133319   3.781   2.357   2.315
11126TIP3    H233320   3.728   2.225   2.367
11127TIP3   OH233321   6.359   5.048   1.011
11127TIP3    H133322   6.287   4.986   1.018
11127TIP3    H233323   6.429   5.012   1.065
11128TIP3   OH233324   6.718   1.539   1.360
11128TIP3    H133325   6.813   1.537   1.373
11128TIP3    H233326   6.697   1.632   1.356
11129TIP3   OH233327   7.761   7.163   0.737
11129TIP3    H133328   7.779   7.204   0.822
11129TIP3    H233329   7.707   7.087   0.758
11130TIP3   OH233330   1.284   1.008   0.139
11130TIP3    H133331   1.277   0.919   0.173
11130TIP3    H233332   1.305   1.061   0.215
11131TIP3   OH233333   7.245   6.860   1.728
11131TIP3    H133334   7.212   6.771   1.712
11131TIP3    H233335   7.296   6.881   1.650
11132TIP3   OH233336   2.624   2.673   2.988
11132TIP3    H133337   2.627   2.761   2.949
11132TIP3    H233338   2.686   2.622   2.936
11133TIP3   OH233339   1.390   5.270   2.431
11133TIP3    H133340   1.424   5.197   2.483
11133TIP3    H233341   1.353   5.228   2.353
11134TIP3   OH233342   6.793   0.353   2.400
11134TIP3    H133343   6.715   0.407   2.389
11134TIP3    H233344   6.763   0.265   2.378
11135TIP3   OH233345   4.080   7.902   2.983
11135TIP3    H133346   4.043   7.815   2.975
11135TIP3    H233347   4.173   7.887   3.002
11136TIP3   OH233348   4.010   0.087   1.018
11136TIP3    H133349   3.984   0.149   1.087
11136TIP3    H233350   4.099   0.061   1.041
11137TIP3   OH233351   0.076   0.994   3.061
11137TIP3    H133352   0.044   0.933   2.995
11137TIP3    H233353   0.015   0.983   3.134
11138TIP3   OH233354   6.806   6.053   1.733
11138TIP3    H133355   6.879   6.007   1.692
11138TIP3    H233356   6.810   6.142   1.697
11139TIP3   OH233357   4.109   2.462   3.694
11139TIP3    H133358   4.145   2.438   3.779
11139TIP3    H233359   4.185   2.494   3.644
11140TIP3   OH233360   6.693   7.658   3.256
11140TIP3    H133361   6.606   7.635   3.289
11140TIP3    H233362   6.741   7.686   3.334
11141TIP3   OH233363   4.544   6.664   2.182
11141TIP3    H133364   4.600   6.610   2.238
11141TIP3    H233365   4.462   6.614   2.175
11142TIP3   OH233366   1.391   4.066   0.834
11142TIP3    H133367   1.360   3.987   0.791
11142TIP3    H233368   1.321   4.130   0.820
11143TIP3   OH233369   5.109   4.454   1.812
11143TIP3    H133370   5.196   4.416   1.796
11143TIP3    H233371   5.063   4.387   1.862
11144TIP3   OH233372   6.353   2.823   6.546
11144TIP3    H133373   6.423   2.757   6.554
11144TIP3    H233374   6.388   2.900   6.591
11145TIP3   OH233375   0.060   3.074   5.009
11145TIP3    H133376   0.131   3.128   4.977
11145TIP3    H233377  -0.020   3.122   4.986
11146TIP3   OH233378   1.034   5.791   3.834
11146TIP3    H133379   0.968   5.855   3.862
11146TIP3    H233380   1.057   5.744   3.914
11147TIP3   OH233381   2.518   1.753   2.542
11147TIP3    H133382   2.549   1.696   2.471
11147TIP3    H233383   2.493   1.834   2.498
11148TIP3   OH233384   0.459   5.941   5.751
11148TIP3    H133385   0.396   6.011   5.766
11148TIP3    H233386   0.540   5.972   5.792
11149TIP3   OH233387   5.550   0.982   1.113
11149TIP3    H133388   5.607   1.012   1.043
11149TIP3    H233389   5.594   1.009   1.194
11150TIP3   OH233390   5.059   3.714   2.258
11150TIP3    H133391   5.131   3.727   2.320
11150TIP3    H233392   5.035   3.622   2.268
11151TIP3   OH233393   0.404   2.621   6.301
11151TIP3    H133394   0.473   2.664   6.250
11151TIP3    H233395   0.382   2.686   6.369
11152TIP3   OH233396   2.070   4.370   5.765
11152TIP3    H133397   2.105   4.281   5.769
11152TIP3    H233398   2.070   4.400   5.856
11153TIP3   OH233399   2.110   0.246   3.780
11153TIP3    H133400   2.060   0.327   3.775
11153TIP3    H233401   2.089   0.210   3.867
11154TIP3   OH233402   1.356   4.523   4.346
11154TIP3    H133403   1.345   4.488   4.258
11154TIP3    H233404   1.308   4.606   4.345
11155TIP3   OH233405   1.757   5.032   0.770
11155TIP3    H133406   1.742   5.064   0.859
11155TIP3    H233407   1.824   5.089   0.734
11156TIP3   OH233408   1.100   4.234   6.308
11156TIP3    H133409   1.137   4.281   6.383
11156TIP3    H233410   1.139   4.146   6.314
11157TIP3   OH233411   4.267   0.505   0.117
11157TIP3    H133412   4.309   0.578   0.161
11157TIP3    H233413   4.232   0.543   0.036
11158TIP3   OH233414   8.000   4.758   5.273
11158TIP3    H133415   7.914   4.790   5.297
11158TIP3    H233416   8.037   4.826   5.218
11159TIP3   OH233417   0.081   7.583   3.300
11159TIP3    H133418   0.057   7.536   3.379
11159TIP3    H233419   0.176   7.594   3.306
11160TIP3   OH233420   5.417   5.491   3.443
11160TIP3    H133421   5.452   5.471   3.530
11160TIP3    H233422   5.328   5.523   3.459
11161TIP3   OH233423   6.833   3.674   5.552
11161TIP3    H133424   6.903   3.629   5.503
11161TIP3    H233425   6.847   3.767   5.534
11162TIP3   OH233426   2.540   6.099   3.738
11162TIP3    H133427   2.623   6.115   3.695
11162TIP3    H233428   2.540   6.156   3.815
11163TIP3   OH233429   0.374   4.466   0.444
11163TIP3    H133430   0.335   4.517   0.515
11163TIP3    H233431   0.351   4.375   0.466
11164TIP3   OH233432   0.770   3.669   5.643
11164TIP3    H133433   0.820   3.745   5.674
11164TIP3    H233434   0.762   3.684   5.549
11165TIP3   OH233435   3.509   5.793   1.929
11165TIP3    H133436   3.516   5.699   1.942
11165TIP3    H233437   3.437   5.803   1.866
11166TIP3   OH233438   0.223   4.202   1.700
11166TIP3    H133439   0.169   4.216   1.778
11166TIP3    H233440   0.211   4.109   1.680
11167TIP3   OH233441   1.778   6.380   4.884
11167TIP3    H133442   1.707   6.346   4.829
11167TIP3    H233443   1.855   6.381   4.826
11168TIP3   OH233444   4.347   6.513   4.612
11168TIP3    H133445   4.358   6.606   4.591
11168TIP3    H233446   4.372   6.506   4.705
11169TIP3   OH233447   6.003   6.576   4.462
11169TIP3    H133448   6.098   6.569   4.453
11169TIP3    H233449   5.969   6.495   4.425
11170TIP3   OH233450   1.528   2.580   1.311
11170TIP3    H133451   1.466   2.507   1.307
11170TIP3    H233452   1.486   2.643   1.370
11171TIP3   OH233453   0.814   5.423   0.315
11171TIP3    H133454   0.809   5.331   0.341
11171TIP3    H233455   0.791   5.472   0.394
11172TIP3   OH233456   1.599   3.344   1.947
11172TIP3    H133457   1.605   3.440   1.945
11172TIP3    H233458   1.560   3.321   1.862
11173TIP3   OH233459   6.118   1.896   6.607
11173TIP3    H133460   6.183   1.967   6.605
11173TIP3    H233461   6.154   1.828   6.550
11174TIP3   OH233462   7.279   5.316   2.616
11174TIP3    H133463   7.315   5.357   2.694
11174TIP3    H233464   7.219   5.249   2.649
11175TIP3   OH233465   3.314   7.550   5.761
11175TIP3    H133466   3.233   7.599   5.777
11175TIP3    H233467   3.288   7.458   5.765
11176TIP3   OH233468   6.353   6.388   0.651
11176TIP3    H133469   6.317   6.471   0.619
11176TIP3    H233470   6.338   6.390   0.746
11177TIP3   OH233471   4.889   2.093   5.810
11177TIP3    H133472   4.833   2.037   5.864
11177TIP3    H233473   4.953   2.034   5.771
11178TIP3   OH233474   6.534   4.355   0.564
11178TIP3    H133475   6.572   4.327   0.480
11178TIP3    H233476   6.440   4.343   0.552
11179TIP3   OH233477   5.229   4.798   0.977
11179TIP3    H133478   5.261   4.887   0.988
11179TIP3    H233479   5.227   4.762   1.066
11180TIP3   OH233480   0.086   5.157   5.315
11180TIP3    H133481   0.144   5.106   5.372
11180TIP3    H233482   0.075   5.103   5.237
11181TIP3   OH233483   0.647   7.347   0.671
11181TIP3    H133484   0.560   7.327   0.636
11181TIP3    H233485   0.639   7.328   0.765
11182TIP3   OH233486   3.637   6.753   1.755
11182TIP3    H133487   3.560   6.719   1.800
11182TIP3    H233488   3.708   6.743   1.817
11183TIP3   OH233489   2.594   0.892   3.987
11183TIP3    H133490   2.508   0.885   3.946
11183TIP3    H233491   2.605   0.985   4.005
11184TIP3   OH233492   5.267   1.450   5.014
11184TIP3    H133493   5.271   1.444   5.110
11184TIP3    H233494   5.321   1.378   4.982
11185TIP3   OH233495   0.362   6.052   1.140
11185TIP3    H133496   0.407   5.977   1.178
11185TIP3    H233497   0.337   6.024   1.052
11186TIP3   OH233498   2.311   6.744   3.636
11186TIP3    H133499   2.387   6.747   3.578
11186TIP3    H233500   2.244   6.697   3.586
11187TIP3   OH233501   1.724   1.820   0.395
11187TIP3    H133502   1.720   1.838   0.301
11187TIP3    H233503   1.808   1.858   0.423
11188TIP3   OH233504   0.151   3.737   2.874
11188TIP3    H133505   0.208   3.768   2.804
11188TIP3    H233506   0.204   3.675   2.923
11189TIP3   OH233507   7.135   5.612   3.027
11189TIP3    H133508   7.179   5.622   2.943
11189TIP3    H233509   7.204   5.581   3.086
11190TIP3   OH233510   6.291   2.891   3.308
11190TIP3    H133511   6.318   2.812   3.261
11190TIP3    H233512   6.373   2.936   3.328
11191TIP3   OH233513   5.716   5.191   2.176
11191TIP3    H133514   5.724   5.098   2.200
11191TIP3    H233515   5.656   5.228   2.241
11192TIP3   OH233516   8.321   0.409   0.099
11192TIP3    H133517   8.229   0.394   0.079
11192TIP3    H233518   8.321   0.447   0.187
11193TIP3   OH233519   2.741   7.284   4.127
11193TIP3    H133520   2.796   7.291   4.049
11193TIP3    H233521   2.759   7.364   4.176
11194TIP3   OH233522   8.294   3.169   6.542
11194TIP3    H133523   8.215   3.149   6.492
11194TIP3    H233524   8.263   3.220   6.616
11195TIP3   OH233525   6.572   5.565   6.775
11195TIP3    H133526   6.546   5.494   6.832
11195TIP3    H233527   6.592   5.523   6.691
11196TIP3   OH233528   3.834   1.939   5.429
11196TIP3    H133529   3.784   2.012   5.466
11196TIP3    H233530   3.789   1.918   5.347
11197TIP3   OH233531   4.763   7.259   4.249
11197TIP3    H133532   4.795   7.170   4.264
11197TIP3    H233533   4.839   7.309   4.221
11198TIP3   OH233534   7.737   2.265   6.427
11198TIP3    H133535   7.793   2.211   6.373
11198TIP3    H233536   7.659   2.281   6.373
11199TIP3   OH233537   7.235   0.379   1.319
11199TIP3    H133538   7.218   0.469   1.349
11199TIP3    H233539   7.288   0.341   1.389
11200TIP3   OH233540   0.977   6.440   3.204
11200TIP3    H133541   1.040   6.387   3.154
11200TIP3    H233542   0.936   6.496   3.138
11201TIP3   OH233543   0.998   4.966   1.000
11201TIP3    H133544   1.092   4.982   0.988
11201TIP3    H233545   0.955   5.040   0.958
11202TIP3   OH233546   1.540   7.769   5.750
11202TIP3    H133547   1.539   7.827   5.674
11202TIP3    H233548   1.463   7.714   5.739
11203TIP3   OH233549   5.443   1.393   1.668
11203TIP3    H133550   5.441   1.482   1.705
11203TIP3    H233551   5.501   1.344   1.726
11204TIP3   OH233552   4.930   4.587   3.075
11204TIP3    H133553   5.011   4.582   3.125
11204TIP3    H233554   4.861   4.596   3.142
11205TIP3   OH233555   3.324   1.493   5.374
11205TIP3    H133556   3.412   1.457   5.370
11205TIP3    H233557   3.270   1.423   5.411
11206TIP3   OH233558   3.202   7.682   0.957
11206TIP3    H133559   3.218   7.774   0.974
11206TIP3    H233560   3.231   7.637   1.036
11207TIP3   OH233561   0.990   3.486   4.166
11207TIP3    H133562   0.988   3.450   4.255
11207TIP3    H233563   0.925   3.434   4.118
11208TIP3   OH233564   7.894   7.139   6.235
11208TIP3    H133565   7.962   7.204   6.217
11208TIP3    H233566   7.896   7.128   6.330
11209TIP3   OH233567   3.386   5.452   5.891
11209TIP3    H133568   3.437   5.379   5.857
11209TIP3    H233569   3.312   5.461   5.830
11210TIP3   OH233570   7.000   5.912   0.533
11210TIP3    H133571   6.948   5.976   0.484
11210TIP3    H233572   7.091   5.935   0.511
11211TIP3   OH233573   3.126   5.558   4.148
11211TIP3    H133574   3.103   5.623   4.082
11211TIP3    H233575   3.079   5.586   4.227
11212TIP3   OH233576   1.737   0.928   6.567
11212TIP3    H133577   1.760   0.837   6.590
11212TIP3    H233578   1.672   0.919   6.498
11213TIP3   OH233579   0.482   3.042   4.407
11213TIP3    H133580   0.508   3.097   4.333
11213TIP3    H233581   0.448   3.104   4.472
11214TIP3   OH233582   0.685   0.479   1.470
11214TIP3    H133583   0.761   0.450   1.420
11214TIP3    H233584   0.723   0.525   1.545
11215TIP3   OH233585   3.566   4.079   0.257
11215TIP3    H133586   3.546   4.015   0.325
11215TIP3    H233587   3.657   4.061   0.233
11216TIP3   OH233588   6.685   2.658   3.140
11216TIP3    H133589   6.766   2.656   3.089
11216TIP3    H233590   6.704   2.718   3.212
11217TIP3   OH233591   8.288   2.094   0.800
11217TIP3    H133592   8.298   2.187   0.821
11217TIP3    H233593   8.340   2.049   0.867
11218TIP3   OH233594   4.149   5.275   3.035
11218TIP3    H133595   4.182   5.364   3.023
11218TIP3    H233596   4.227   5.220   3.034
11219TIP3   OH233597   4.421   0.588   3.653
11219TIP3    H133598   4.512   0.614   3.634
11219TIP3    H233599   4.401   0.630   3.737
11220TIP3   OH233600   0.801   2.651   2.789
11220TIP3    H133601   0.756   2.576   2.750
11220TIP3    H233602   0.887   2.651   2.748
11221TIP3   OH233603   4.291   6.412   6.106
11221TIP3    H133604   4.327   6.353   6.039
11221TIP3    H233605   4.313   6.369   6.188
11222TIP3   OH233606   6.644   5.113   6.505
11222TIP3    H133607   6.637   5.127   6.600
11222TIP3    H233608   6.585   5.040   6.487
11223TIP3   OH233609   1.409   7.141   2.165
11223TIP3    H133610   1.385   7.130   2.073
11223TIP3    H233611   1.485   7.084   2.177
11224TIP3   OH233612   4.215   1.726   4.169
11224TIP3    H133613   4.289   1.743   4.227
11224TIP3    H233614   4.158   1.668   4.220
11225TIP3   OH233615   3.779   1.529   4.777
11225TIP3    H133616   3.855   1.577   4.812
11225TIP3    H233617   3.708   1.593   4.779
11226TIP3   OH233618   7.832   5.655   0.395
11226TIP3    H133619   7.836   5.596   0.470
11226TIP3    H233620   7.738   5.664   0.377
11227TIP3   OH233621   7.035   1.061   3.336
11227TIP3    H133622   7.068   0.986   3.386
11227TIP3    H233623   6.959   1.027   3.289
11228TIP3   OH233624   5.843   2.768   6.272
11228TIP3    H133625   5.850   2.856   6.307
11228TIP3    H233626   5.762   2.734   6.309
11229TIP3   OH233627   6.994   2.157   5.965
11229TIP3    H133628   7.042   2.098   5.907
11229TIP3    H233629   6.916   2.181   5.915
11230TIP3   OH233630   0.561   4.707   2.102
11230TIP3    H133631   0.556   4.802   2.111
11230TIP3    H233632   0.580   4.693   2.009
11231TIP3   OH233633   8.223   3.373   4.171
11231TIP3    H133634   8.217   3.301   4.108
11231TIP3    H233635   8.188   3.335   4.252
11232TIP3   OH233636   6.314   7.619   4.992
11232TIP3    H133637   6.302   7.712   5.011
11232TIP3    H233638   6.227   7.581   5.003
11233TIP3   OH233639   6.936   0.466   0.252
11233TIP3    H133640   6.954   0.489   0.343
11233TIP3    H233641   6.853   0.419   0.254
11234TIP3   OH233642   7.669   5.345   5.901
11234TIP3    H133643   7.594   5.403   5.901
11234TIP3    H233644   7.713   5.362   5.818
11235TIP3   OH233645   2.262   7.129   0.627
11235TIP3    H133646   2.284   7.036   0.622
11235TIP3    H233647   2.184   7.138   0.573
11236TIP3   OH233648   1.840   1.183   0.912
11236TIP3    H133649   1.747   1.184   0.889
11236TIP3    H233650   1.872   1.269   0.884
11237TIP3   OH233651   7.038   5.842   1.638
11237TIP3    H133652   7.116   5.837   1.693
11237TIP3    H233653   7.059   5.788   1.562
11238TIP3   OH233654   4.323   0.303   3.426
11238TIP3    H133655   4.275   0.282   3.506
11238TIP3    H233656   4.256   0.313   3.359
11239TIP3   OH233657   4.166   5.415   4.669
11239TIP3    H133658   4.100   5.363   4.716
11239TIP3    H233659   4.243   5.358   4.665
11240TIP3   OH233660   1.546   4.869   3.080
11240TIP3    H133661   1.583   4.896   2.996
11240TIP3    H233662   1.551   4.774   3.079
11241TIP3   OH233663   7.799   0.090   6.691
11241TIP3    H133664   7.760   0.140   6.763
11241TIP3    H233665   7.725   0.071   6.633
11242TIP3   OH233666   2.977   5.940   5.432
11242TIP3    H133667   3.049   5.880   5.456
11242TIP3    H233668   2.923   5.944   5.510
11243TIP3   OH233669   2.418   4.439   5.948
11243TIP3    H133670   2.368   4.518   5.930
11243TIP3    H233671   2.477   4.430   5.873
11244TIP3   OH233672   8.372   5.530   0.849
11244TIP3    H133673   8.322   5.467   0.797
11244TIP3    H233674   8.306   5.589   0.886
11245TIP3   OH233675   2.475   7.780   3.579
11245TIP3    H133676   2.432   7.823   3.652
11245TIP3    H233677   2.568   7.802   3.589
11246TIP3   OH233678   3.959   1.446   4.123
11246TIP3    H133679   3.869   1.421   4.142
11246TIP3    H233680   3.974   1.524   4.176
11247TIP3   OH233681   7.318   3.244   6.216
11247TIP3    H133682   7.387   3.178   6.217
11247TIP3    H233683   7.255   3.212   6.151
11248TIP3   OH233684   0.489   7.756   6.058
11248TIP3    H133685   0.560   7.819   6.047
11248TIP3    H233686   0.507   7.688   5.993
11249TIP3   OH233687   0.771   4.996   6.456
11249TIP3    H133688   0.697   4.959   6.407
11249TIP3    H233689   0.758   4.967   6.546
11250TIP3   OH233690   2.656   0.298   4.950
11250TIP3    H133691   2.750   0.309   4.965
11250TIP3    H233692   2.648   0.291   4.855
11251TIP3   OH233693   7.640   5.364   0.234
11251TIP3    H133694   7.553   5.335   0.262
11251TIP3    H233695   7.623   5.434   0.172
11252TIP3   OH233696   3.784   7.772   0.422
11252TIP3    H133697   3.873   7.766   0.389
11252TIP3    H233698   3.759   7.681   0.442
11253TIP3   OH233699   5.339   5.994   0.630
11253TIP3    H133700   5.267   6.026   0.685
11253TIP3    H233701   5.383   5.929   0.684
11254TIP3   OH233702   0.540   1.425   1.412
11254TIP3    H133703   0.530   1.417   1.507
11254TIP3    H233704   0.509   1.341   1.378
11255TIP3   OH233705   3.571   2.332   0.509
11255TIP3    H133706   3.542   2.391   0.439
11255TIP3    H233707   3.629   2.386   0.563
11256TIP3   OH233708   5.594   5.353   6.526
11256TIP3    H133709   5.538   5.429   6.513
11256TIP3    H233710   5.682   5.389   6.537
11257TIP3   OH233711   2.345   2.131   3.459
11257TIP3    H133712   2.255   2.112   3.432
11257TIP3    H233713   2.337   2.204   3.520
11258TIP3   OH233714   4.405   4.100   0.480
11258TIP3    H133715   4.451   4.016   0.477
11258TIP3    H233716   4.442   4.145   0.555
11259TIP3   OH233717   5.256   0.749   2.248
11259TIP3    H133718   5.293   0.837   2.238
11259TIP3    H233719   5.318   0.704   2.306
11260TIP3   OH233720   6.596   5.240   4.682
11260TIP3    H133721   6.522   5.300   4.682
11260TIP3    H233722   6.568   5.168   4.738
11261TIP3   OH233723   7.408   7.735   3.889
11261TIP3    H133724   7.447   7.732   3.802
11261TIP3    H233725   7.317   7.761   3.874
11262TIP3   OH233726   5.961   0.927   4.315
11262TIP3    H133727   6.039   0.872   4.313
11262TIP3    H233728   5.976   0.989   4.386
11263TIP3   OH233729   7.048   7.355   1.766
11263TIP3    H133730   7.107   7.283   1.784
11263TIP3    H233731   7.075   7.424   1.826
11264TIP3   OH233732   5.740   4.699   3.563
11264TIP3    H133733   5.659   4.677   3.516
11264TIP3    H233734   5.760   4.619   3.612
11265TIP3   OH233735   4.572   0.296   2.291
11265TIP3    H133736   4.477   0.286   2.284
11265TIP3    H233737   4.599   0.324   2.204
11266TIP3   OH233738   0.646   4.549   0.397
11266TIP3    H133739   0.651   4.470   0.450
11266TIP3    H233740   0.556   4.580   0.406
11267TIP3   OH233741   3.610   5.399   2.136
11267TIP3    H133742   3.690   5.347   2.128
11267TIP3    H233743   3.597   5.408   2.230
11268TIP3   OH233744   3.673   3.198   4.946
11268TIP3    H133745   3.622   3.177   5.025
11268TIP3    H233746   3.735   3.125   4.938
11269TIP3   OH233747   7.762   6.158   4.133
11269TIP3    H133748   7.682   6.117   4.165
11269TIP3    H233749   7.806   6.189   4.212
11270TIP3   OH233750   5.183   1.296   1.707
11270TIP3    H133751   5.220   1.333   1.627
11270TIP3    H233752   5.212   1.355   1.776
11271TIP3   OH233753   8.153   1.073   1.413
11271TIP3    H133754   8.114   1.148   1.457
11271TIP3    H233755   8.101   1.062   1.333
11272TIP3   OH233756   3.093   5.387   5.094
11272TIP3    H133757   3.095   5.313   5.155
11272TIP3    H233758   3.096   5.464   5.151
11273TIP3   OH233759   4.372   0.719   1.079
11273TIP3    H133760   4.376   0.639   1.132
11273TIP3    H233761   4.401   0.692   0.992
11274TIP3   OH233762   5.056   1.581   5.562
11274TIP3    H133763   5.017   1.573   5.475
11274TIP3    H233764   5.019   1.509   5.612
11275TIP3   OH233765   1.514   0.249   3.284
11275TIP3    H133766   1.470   0.189   3.224
11275TIP3    H233767   1.471   0.333   3.270
11276TIP3   OH233768   4.910   4.175   6.832
11276TIP3    H133769   4.845   4.132   6.777
11276TIP3    H233770   4.860   4.217   6.901
11277TIP3   OH233771   0.756   2.876   0.484
11277TIP3    H133772   0.801   2.801   0.524
11277TIP3    H233773   0.781   2.873   0.392
11278TIP3   OH233774   0.403   7.898   4.697
11278TIP3    H133775   0.384   7.823   4.640
11278TIP3    H233776   0.369   7.871   4.783
11279TIP3   OH233777   5.704   0.066   4.577
11279TIP3    H133778   5.650   0.110   4.512
11279TIP3    H233779   5.752   0.137   4.620
11280TIP3   OH233780   7.178   3.699   0.893
11280TIP3    H133781   7.138   3.770   0.944
11280TIP3    H233782   7.114   3.628   0.897
11281TIP3   OH233783   0.041   1.468   1.495
11281TIP3    H133784   0.130   1.435   1.499
11281TIP3    H233785  -0.004   1.408   1.436
11282TIP3   OH233786   7.814   4.288   1.782
11282TIP3    H133787   7.827   4.258   1.872
11282TIP3    H233788   7.831   4.212   1.728
11283TIP3   OH233789   4.741   5.782   6.759
11283TIP3    H133790   4.804   5.754   6.692
11283TIP3    H233791   4.796   5.807   6.834
11284TIP3   OH233792   6.336   3.133   0.929
11284TIP3    H133793   6.267   3.178   0.978
11284TIP3    H233794   6.417   3.157   0.976
11285TIP3   OH233795   2.798   0.460   6.278
11285TIP3    H133796   2.868   0.473   6.214
11285TIP3    H233797   2.834   0.399   6.342
11286TIP3   OH233798   5.045   2.287   3.441
11286TIP3    H133799   4.978   2.297   3.373
11286TIP3    H233800   5.064   2.194   3.443
11287TIP3   OH233801   0.886   5.300   3.156
11287TIP3    H133802   0.930   5.379   3.189
11287TIP3    H233803   0.846   5.261   3.233
11288TIP3   OH233804   3.100   3.505   5.231
11288TIP3    H133805   3.131   3.587   5.268
11288TIP3    H233806   3.010   3.522   5.205
11289TIP3   OH233807   7.912   6.406   2.116
11289TIP3    H133808   7.904   6.401   2.021
11289TIP3    H233809   7.860   6.482   2.141
11290TIP3   OH233810   8.301   5.261   3.212
11290TIP3    H133811   8.240   5.335   3.206
11290TIP3    H233812   8.332   5.262   3.302
11291TIP3   OH233813   0.279   5.357   5.151
11291TIP3    H133814   0.315   5.306   5.078
11291TIP3    H233815   0.297   5.303   5.229
11292TIP3   OH233816   6.676   6.991   2.343
11292TIP3    H133817   6.585   6.992   2.371
11292TIP3    H233818   6.722   6.943   2.412
11293TIP3   OH233819   8.265   6.999   3.025
11293TIP3    H133820   8.191   6.943   3.048
11293TIP3    H233821   8.249   7.023   2.933
11294TIP3   OH233822   0.923   1.894   4.081
11294TIP3    H133823   0.941   1.872   3.989
11294TIP3    H233824   0.951   1.985   4.090
11295TIP3   OH233825   1.091   7.116   3.512
11295TIP3    H133826   1.159   7.075   3.460
11295TIP3    H233827   1.010   7.103   3.462
11296TIP3   OH233828   5.617   6.645   6.568
11296TIP3    H133829   5.601   6.584   6.496
11296TIP3    H233830   5.550   6.623   6.633
11297TIP3   OH233831   0.737   5.826   0.090
11297TIP3    H133832   0.803   5.791   0.030
11297TIP3    H233833   0.777   5.907   0.124
11298TIP3   OH233834   5.409   6.161   5.447
11298TIP3    H133835   5.454   6.178   5.365
11298TIP3    H233836   5.474   6.179   5.515
11299TIP3   OH233837   2.155   3.798   3.868
11299TIP3    H133838   2.223   3.857   3.835
11299TIP3    H233839   2.202   3.738   3.926
11300TIP3   OH233840   2.302   5.078   0.288
11300TIP3    H133841   2.263   5.021   0.222
11300TIP3    H233842   2.318   5.160   0.242
11301TIP3   OH233843   7.824   7.232   0.993
11301TIP3    H133844   7.833   7.305   1.054
11301TIP3    H233845   7.908   7.185   0.999
11302TIP3   OH233846   6.775   0.075   0.428
11302TIP3    H133847   6.809   0.065   0.517
11302TIP3    H233848   6.681   0.088   0.440
11303TIP3   OH233849   4.371   7.190   0.650
11303TIP3    H133850   4.398   7.101   0.669
11303TIP3    H233851   4.438   7.224   0.590
11304TIP3   OH233852   3.451   7.213   6.455
11304TIP3    H133853   3.364   7.174   6.450
11304TIP3    H233854   3.464   7.253   6.369
11305TIP3   OH233855   7.731   2.128   2.764
11305TIP3    H133856   7.808   2.121   2.707
11305TIP3    H233857   7.757   2.190   2.833
11306TIP3   OH233858   1.164   2.729   4.962
11306TIP3    H133859   1.217   2.804   4.936
11306TIP3    H233860   1.085   2.736   4.908
11307TIP3   OH233861   8.179   0.384   3.373
11307TIP3    H133862   8.253   0.391   3.434
11307TIP3    H233863   8.110   0.344   3.426
11308TIP3   OH233864   0.797   3.216   0.420
11308TIP3    H133865   0.860   3.249   0.485
11308TIP3    H233866   0.837   3.236   0.336
11309TIP3   OH233867   4.388   7.235   1.830
11309TIP3    H133868   4.465   7.284   1.857
11309TIP3    H233869   4.368   7.268   1.742
11310TIP3   OH233870   6.082   2.499   2.646
11310TIP3    H133871   6.078   2.579   2.698
11310TIP3    H233872   6.048   2.431   2.705
11311TIP3   OH233873   2.464   5.641   2.011
11311TIP3    H133874   2.430   5.564   2.057
11311TIP3    H233875   2.399   5.710   2.028
11312TIP3   OH233876   4.859   7.269   3.030
11312TIP3    H133877   4.877   7.354   2.990
11312TIP3    H233878   4.775   7.281   3.075
11313TIP3   OH233879   8.230   3.083   0.950
11313TIP3    H133880   8.244   3.056   0.859
11313TIP3    H233881   8.200   3.004   0.994
11314TIP3   OH233882   3.262   1.677   5.169
11314TIP3    H133883   3.173   1.644   5.153
11314TIP3    H233884   3.302   1.611   5.225
11315TIP3   OH233885   2.360   1.338   1.970
11315TIP3    H133886   2.268   1.317   1.982
11315TIP3    H233887   2.365   1.433   1.985
11316TIP3   OH233888   7.438   5.234   6.478
11316TIP3    H133889   7.465   5.148   6.509
11316TIP3    H233890   7.509   5.262   6.421
11317TIP3   OH233891   6.916   4.436   6.745
11317TIP3    H133892   6.931   4.347   6.714
11317TIP3    H233893   6.936   4.492   6.670
11318TIP3   OH233894   8.227   4.580   1.775
11318TIP3    H133895   8.209   4.666   1.737
11318TIP3    H233896   8.264   4.529   1.703
11319TIP3   OH233897   0.430   5.841   3.405
11319TIP3    H133898   0.340   5.854   3.374
11319TIP3    H233899   0.474   5.799   3.332
11320TIP3   OH233900   6.204   3.517   6.540
11320TIP3    H133901   6.288   3.470   6.538
11320TIP3    H233902   6.141   3.452   6.571
11321TIP3   OH233903   3.791   7.303   0.713
11321TIP3    H133904   3.738   7.281   0.636
11321TIP3    H233905   3.809   7.396   0.704
11322TIP3   OH233906   6.978   6.363   5.424
11322TIP3    H133907   7.060   6.313   5.421
11322TIP3    H233908   6.993   6.430   5.491
11323TIP3   OH233909   4.840   6.472   0.238
11323TIP3    H133910   4.829   6.406   0.306
11323TIP3    H233911   4.751   6.489   0.206
11324TIP3   OH233912   3.029   5.665   0.639
11324TIP3    H133913   3.106   5.621   0.603
11324TIP3    H233914   3.040   5.757   0.614
11325TIP3   OH233915   0.158   4.725   2.493
11325TIP3    H133916   0.104   4.712   2.571
11325TIP3    H233917   0.206   4.806   2.511
11326TIP3   OH233918   2.930   1.884   4.248
11326TIP3    H133919   3.009   1.835   4.271
11326TIP3    H233920   2.918   1.945   4.320
11327TIP3   OH233921   0.974   7.688   6.415
11327TIP3    H133922   0.940   7.771   6.382
11327TIP3    H233923   1.041   7.714   6.479
11328TIP3   OH233924   5.410   6.543   6.173
11328TIP3    H133925   5.325   6.500   6.160
11328TIP3    H233926   5.409   6.617   6.113
11329TIP3   OH233927   5.983   5.920   0.451
11329TIP3    H133928   5.904   5.970   0.473
11329TIP3    H233929   6.013   5.885   0.535
11330TIP3   OH233930   3.126   3.735   0.344
11330TIP3    H133931   3.090   3.822   0.330
11330TIP3    H233932   3.186   3.722   0.270
11331TIP3   OH233933   5.594   4.021   0.540
11331TIP3    H133934   5.635   3.963   0.604
11331TIP3    H233935   5.521   4.062   0.587
11332TIP3   OH233936   6.125   5.002   6.620
11332TIP3    H133937   6.118   4.908   6.604
11332TIP3    H233938   6.162   5.008   6.708
11333TIP3   OH233939   4.337   1.832   0.489
11333TIP3    H133940   4.388   1.812   0.410
11333TIP3    H233941   4.251   1.795   0.472
11334TIP3   OH233942   3.220   4.906   2.330
11334TIP3    H133943   3.144   4.868   2.286
11334TIP3    H233944   3.226   4.995   2.293
11335TIP3   OH233945   7.589   3.179   2.662
11335TIP3    H133946   7.535   3.252   2.692
11335TIP3    H233947   7.648   3.217   2.597
11336TIP3   OH233948   3.140   0.564   0.122
11336TIP3    H133949   3.086   0.599   0.052
11336TIP3    H233950   3.100   0.479   0.143
11337TIP3   OH233951   7.898   1.998   5.469
11337TIP3    H133952   7.864   2.077   5.512
11337TIP3    H233953   7.871   1.926   5.525
11338TIP3   OH233954   8.192   5.592   0.306
11338TIP3    H133955   8.147   5.672   0.279
11338TIP3    H233956   8.150   5.566   0.388
11339TIP3   OH233957   4.380   6.322   6.348
11339TIP3    H133958   4.455   6.282   6.391
11339TIP3    H233959   4.313   6.326   6.415
11340TIP3   OH233960   3.339   6.745   6.324
11340TIP3    H133961   3.298   6.659   6.333
11340TIP3    H233962   3.432   6.726   6.316
11341TIP3   OH233963   5.807   2.421   6.423
11341TIP3    H133964   5.779   2.481   6.492
11341TIP3    H233965   5.882   2.464   6.383
11342TIP3   OH233966   5.915   7.518   2.583
11342TIP3    H133967   5.922   7.599   2.531
11342TIP3    H233968   5.959   7.539   2.666
11343TIP3   OH233969   0.511   5.756   2.624
11343TIP3    H133970   0.435   5.705   2.652
11343TIP3    H233971   0.581   5.691   2.615
11344TIP3   OH233972   8.243   3.784   6.255
11344TIP3    H133973   8.249   3.880   6.259
11344TIP3    H233974   8.269   3.763   6.165
11345TIP3   OH233975   4.684   0.706   0.595
11345TIP3    H133976   4.752   0.656   0.640
11345TIP3    H233977   4.701   0.693   0.502
11346TIP3   OH233978   3.199   2.464   0.272
11346TIP3    H133979   3.183   2.496   0.184
11346TIP3    H233980   3.126   2.499   0.324
11347TIP3   OH233981  -0.003   0.515   1.244
11347TIP3    H133982   0.040   0.489   1.162
11347TIP3    H233983  -0.082   0.461   1.248
11348TIP3   OH233984   7.189   5.783   0.686
11348TIP3    H133985   7.169   5.700   0.730
11348TIP3    H233986   7.103   5.819   0.664
11349TIP3   OH233987   7.335   5.560   1.777
11349TIP3    H133988   7.333   5.641   1.827
11349TIP3    H233989   7.426   5.531   1.781
11350TIP3   OH233990   5.936   6.264   1.713
11350TIP3    H133991   6.018   6.222   1.686
11350TIP3    H233992   5.924   6.335   1.650
11351TIP3   OH233993   6.567   4.204   3.868
11351TIP3    H133994   6.538   4.263   3.937
11351TIP3    H233995   6.506   4.131   3.871
11352TIP3   OH233996   1.687   3.774   5.262
11352TIP3    H133997   1.691   3.731   5.347
11352TIP3    H233998   1.650   3.707   5.203
11353TIP3   OH233999   0.856   2.747   1.433
11353TIP3    H134000   0.915   2.681   1.469
11353TIP3    H234001   0.878   2.752   1.340
11354TIP3   OH234002   1.185   0.835   0.321
11354TIP3    H134003   1.140   0.920   0.325
11354TIP3    H234004   1.235   0.831   0.403
11355TIP3   OH234005   2.343   2.183   6.274
11355TIP3    H134006   2.293   2.243   6.330
11355TIP3    H234007   2.404   2.139   6.334
11356TIP3   OH234008   6.682   4.883   3.327
11356TIP3    H134009   6.712   4.794   3.345
11356TIP3    H234010   6.610   4.898   3.388
11357TIP3   OH234011   7.034   4.735   5.228
11357TIP3    H134012   7.045   4.805   5.164
11357TIP3    H234013   7.092   4.760   5.300
11358TIP3   OH234014   8.265   5.579   1.145
11358TIP3    H134015   8.332   5.522   1.107
11358TIP3    H234016   8.192   5.520   1.165
11359TIP3   OH234017   6.005   5.142   5.226
11359TIP3    H134018   6.045   5.143   5.313
11359TIP3    H234019   5.922   5.096   5.239
11360TIP3   OH234020   7.661   1.456   2.455
11360TIP3    H134021   7.618   1.444   2.540
11360TIP3    H234022   7.746   1.412   2.465
11361TIP3   OH234023   5.414   5.504   1.443
11361TIP3    H134024   5.418   5.565   1.369
11361TIP3    H234025   5.388   5.558   1.517
11362TIP3   OH234026   4.752   6.670   5.761
11362TIP3    H134027   4.802   6.717   5.694
11362TIP3    H234028   4.711   6.739   5.813
11363TIP3   OH234029   0.682   7.781   1.672
11363TIP3    H134030   0.682   7.877   1.665
11363TIP3    H234031   0.625   7.763   1.747
11364TIP3   OH234032   4.491   6.132   5.138
11364TIP3    H134033   4.474   6.218   5.177
11364TIP3    H234034   4.404   6.091   5.133
11365TIP3   OH234035   5.476   5.725   5.373
11365TIP3    H134036   5.440   5.648   5.418
11365TIP3    H234037   5.502   5.784   5.443
11366TIP3   OH234038   2.375   5.814   3.393
11366TIP3    H134039   2.327   5.856   3.464
11366TIP3    H234040   2.316   5.746   3.361
11367TIP3   OH234041   5.838   5.138   1.927
11367TIP3    H134042   5.786   5.146   2.007
11367TIP3    H234043   5.778   5.164   1.857
11368TIP3   OH234044   0.424   1.195   1.335
11368TIP3    H134045   0.451   1.109   1.364
11368TIP3    H234046   0.402   1.184   1.242
11369TIP3   OH234047   7.820   2.236   4.261
11369TIP3    H134048   7.888   2.248   4.195
11369TIP3    H234049   7.841   2.152   4.302
11370TIP3   OH234050   5.074   2.370   4.475
11370TIP3    H134051   5.102   2.306   4.409
11370TIP3    H234052   5.128   2.351   4.551
11371TIP3   OH234053   4.434   1.688   1.801
11371TIP3    H134054   4.469   1.717   1.717
11371TIP3    H234055   4.475   1.746   1.865
11372TIP3   OH234056   1.454   6.103   6.542
11372TIP3    H134057   1.521   6.171   6.543
11372TIP3    H234058   1.375   6.148   6.513
11373TIP3   OH234059   2.618   7.697   6.425
11373TIP3    H134060   2.528   7.705   6.456
11373TIP3    H234061   2.663   7.650   6.495
11374TIP3   OH234062   4.236   6.278   3.221
11374TIP3    H134063   4.180   6.233   3.284
11374TIP3    H234064   4.221   6.232   3.139
11375TIP3   OH234065   3.901   5.012   2.355
11375TIP3    H134066   3.856   4.935   2.322
11375TIP3    H234067   3.944   4.982   2.435
11376TIP3   OH234068   0.812   4.069   4.770
11376TIP3    H134069   0.787   4.032   4.685
11376TIP3    H234070   0.890   4.121   4.752
11377TIP3   OH234071   5.565   6.081   0.542
11377TIP3    H134072   5.503   6.038   0.600
11377TIP3    H234073   5.541   6.052   0.455
11378TIP3   OH234074   2.341   5.492   2.938
11378TIP3    H134075   2.362   5.417   2.993
11378TIP3    H234076   2.343   5.457   2.849
11379TIP3   OH234077   0.632   6.650   1.331
11379TIP3    H134078   0.721   6.620   1.348
11379TIP3    H234079   0.577   6.597   1.389
11380TIP3   OH234080   2.625   0.744   4.686
11380TIP3    H134081   2.714   0.769   4.708
11380TIP3    H234082   2.578   0.742   4.769
11381TIP3   OH234083   2.161   3.037   4.815
11381TIP3    H134084   2.164   2.967   4.881
11381TIP3    H234085   2.221   3.104   4.849
11382TIP3   OH234086   7.218   6.796   2.506
11382TIP3    H134087   7.196   6.889   2.505
11382TIP3    H234088   7.308   6.792   2.472
11383TIP3   OH234089   7.554   2.024   3.043
11383TIP3    H134090   7.488   2.084   3.012
11383TIP3    H234091   7.599   1.994   2.964
11384TIP3   OH234092   0.536   4.573   3.559
11384TIP3    H134093   0.575   4.656   3.531
11384TIP3    H234094   0.594   4.505   3.525
11385TIP3   OH234095   4.344   4.204   4.570
11385TIP3    H134096   4.384   4.247   4.494
11385TIP3    H234097   4.402   4.226   4.643
11386TIP3   OH234098   7.326   0.532   3.282
11386TIP3    H134099   7.250   0.474   3.279
11386TIP3    H234100   7.313   0.586   3.360
11387TIP3   OH234101   2.234   5.760   2.147
11387TIP3    H134102   2.265   5.794   2.231
11387TIP3    H234103   2.162   5.701   2.169
11388TIP3   OH234104   0.431   3.562   0.612
11388TIP3    H134105   0.474   3.477   0.602
11388TIP3    H234106   0.440   3.583   0.704
11389TIP3   OH234107   7.891   4.274   5.581
11389TIP3    H134108   7.977   4.298   5.544
11389TIP3    H234109   7.908   4.196   5.633
11390TIP3   OH234110   1.682   1.251   3.811
11390TIP3    H134111   1.598   1.283   3.779
11390TIP3    H234112   1.720   1.326   3.857
11391TIP3   OH234113   6.847   5.272   4.736
11391TIP3    H134114   6.762   5.237   4.707
11391TIP3    H234115   6.843   5.365   4.713
11392TIP3   OH234116   8.047   3.465   1.907
11392TIP3    H134117   8.138   3.457   1.881
11392TIP3    H234118   8.047   3.530   1.977
11393TIP3   OH234119   7.481   6.508   4.618
11393TIP3    H134120   7.570   6.541   4.626
11393TIP3    H234121   7.484   6.446   4.545
11394TIP3   OH234122   5.378   6.613   3.862
11394TIP3    H134123   5.374   6.621   3.766
11394TIP3    H234124   5.401   6.521   3.876
11395TIP3   OH234125   0.523   7.975   0.754
11395TIP3    H134126   0.542   7.978   0.660
11395TIP3    H234127   0.519   7.881   0.775
11396TIP3   OH234128   4.946   4.629   6.766
11396TIP3    H134129   4.984   4.554   6.811
11396TIP3    H234130   4.959   4.612   6.673
11397TIP3   OH234131   4.330   5.079   6.100
11397TIP3    H134132   4.280   5.087   6.180
11397TIP3    H234133   4.362   4.989   6.100
11398TIP3   OH234134   8.389   5.061   2.532
11398TIP3    H134135   8.344   5.007   2.466
11398TIP3    H234136   8.318   5.095   2.587
11399TIP3   OH234137   1.926   2.702   5.275
11399TIP3    H134138   1.923   2.793   5.304
11399TIP3    H234139   1.925   2.650   5.355
11400TIP3   OH234140   1.361   3.427   2.384
11400TIP3    H134141   1.336   3.351   2.437
11400TIP3    H234142   1.363   3.394   2.294
11401TIP3   OH234143   3.819   6.989   4.346
11401TIP3    H134144   3.834   7.084   4.349
11401TIP3    H234145   3.741   6.979   4.291
11402TIP3   OH234146   3.005   2.249   2.932
11402TIP3    H134147   3.082   2.192   2.936
11402TIP3    H234148   2.955   2.216   2.857
11403TIP3   OH234149   2.082   5.686   5.732
11403TIP3    H134150   2.177   5.678   5.745
11403TIP3    H234151   2.048   5.700   5.820
11404TIP3   OH234152   0.715   7.455   4.377
11404TIP3    H134153   0.714   7.396   4.301
11404TIP3    H234154   0.650   7.522   4.357
11405TIP3   OH234155   7.565   7.789   1.204
11405TIP3    H134156   7.619   7.829   1.272
11405TIP3    H234157   7.525   7.713   1.246
11406TIP3   OH234158   0.458   0.291   2.693
11406TIP3    H134159   0.402   0.344   2.749
11406TIP3    H234160   0.540   0.340   2.687
11407TIP3   OH234161   5.542   2.073   6.616
11407TIP3    H134162   5.463   2.123   6.596
11407TIP3    H234163   5.613   2.122   6.575
11408TIP3   OH234164   4.385   6.338   2.877
11408TIP3    H134165   4.452   6.330   2.945
11408TIP3    H234166   4.381   6.252   2.836
11409TIP3   OH234167   8.178   3.664   4.683
11409TIP3    H134168   8.229   3.593   4.722
11409TIP3    H234169   8.097   3.622   4.654
11410TIP3   OH234170   4.408   5.360   3.610
11410TIP3    H134171   4.363   5.406   3.539
11410TIP3    H234172   4.349   5.368   3.685
11411TIP3   OH234173   6.187   1.524   0.132
11411TIP3    H134174   6.156   1.532   0.042
11411TIP3    H234175   6.122   1.570   0.184
11412TIP3   OH234176   0.638   2.464   6.026
11412TIP3    H134177   0.710   2.432   6.082
11412TIP3    H234178   0.605   2.541   6.072
11413TIP3   OH234179   5.277   7.049   0.285
11413TIP3    H134180   5.351   7.007   0.330
11413TIP3    H234181   5.279   7.013   0.196
11414TIP3   OH234182   5.551   4.084   0.850
11414TIP3    H134183   5.479   4.087   0.788
11414TIP3    H234184   5.559   4.174   0.883
11415TIP3   OH234185   3.485   5.174   4.428
11415TIP3    H134186   3.534   5.139   4.503
11415TIP3    H234187   3.470   5.266   4.450
11416TIP3   OH234188   4.441   0.758   0.759
11416TIP3    H134189   4.427   0.852   0.768
11416TIP3    H234190   4.504   0.749   0.688
11417TIP3   OH234191   4.093   3.721   5.180
11417TIP3    H134192   4.174   3.752   5.140
11417TIP3    H234193   4.118   3.644   5.231
11418TIP3   OH234194   7.358   1.057   1.865
11418TIP3    H134195   7.268   1.089   1.858
11418TIP3    H234196   7.355   0.968   1.829
11419TIP3   OH234197   4.734   2.360   3.591
11419TIP3    H134198   4.689   2.302   3.529
11419TIP3    H234199   4.814   2.312   3.613
11420TIP3   OH234200   7.117   7.129   4.406
11420TIP3    H134201   7.070   7.123   4.322
11420TIP3    H234202   7.207   7.108   4.384
11421TIP3   OH234203   7.048   7.279   4.623
11421TIP3    H134204   7.089   7.257   4.539
11421TIP3    H234205   6.980   7.342   4.601
11422TIP3   OH234206   0.848   5.163   6.230
11422TIP3    H134207   0.828   5.098   6.298
11422TIP3    H234208   0.917   5.121   6.177
11423TIP3   OH234209   1.296   3.852   0.734
11423TIP3    H134210   1.219   3.800   0.755
11423TIP3    H234211   1.355   3.791   0.689
11424TIP3   OH234212   6.894   1.173   5.521
11424TIP3    H134213   6.945   1.202   5.597
11424TIP3    H234214   6.836   1.106   5.556
11425TIP3   OH234215   1.820   5.781   1.864
11425TIP3    H134216   1.851   5.811   1.949
11425TIP3    H234217   1.852   5.846   1.802
11426TIP3   OH234218   0.196   2.340   4.816
11426TIP3    H134219   0.236   2.418   4.779
11426TIP3    H234220   0.266   2.274   4.815
11427TIP3   OH234221   0.466   6.503   1.887
11427TIP3    H134222   0.512   6.512   1.971
11427TIP3    H234223   0.429   6.414   1.890
11428TIP3   OH234224   0.588   5.881   4.490
11428TIP3    H134225   0.524   5.900   4.421
11428TIP3    H234226   0.616   5.967   4.521
11429TIP3   OH234227   1.015   1.660   1.364
11429TIP3    H134228   1.015   1.712   1.283
11429TIP3    H234229   0.924   1.635   1.376
11430TIP3   OH234230   6.305   5.156   2.271
11430TIP3    H134231   6.364   5.231   2.267
11430TIP3    H234232   6.247   5.167   2.196
11431TIP3   OH234233   6.953   5.204   6.761
11431TIP3    H134234   6.858   5.212   6.755
11431TIP3    H234235   6.977   5.150   6.686
11432TIP3   OH234236   4.817   5.332   1.229
11432TIP3    H134237   4.886   5.268   1.214
11432TIP3    H234238   4.846   5.410   1.181
11433TIP3   OH234239   2.913   0.342   6.507
11433TIP3    H134240   2.980   0.367   6.571
11433TIP3    H234241   2.883   0.256   6.537
11434TIP3   OH234242   5.102   2.721   6.855
11434TIP3    H134243   5.163   2.676   6.796
11434TIP3    H234244   5.102   2.668   6.934
11435TIP3   OH234245   0.265   4.647   2.116
11435TIP3    H134246   0.262   4.620   2.207
11435TIP3    H234247   0.348   4.693   2.107
11436TIP3   OH234248   1.033   0.072   1.513
11436TIP3    H134249   1.013   0.161   1.540
11436TIP3    H234250   0.948   0.027   1.513
11437TIP3   OH234251   7.877   4.683   4.204
11437TIP3    H134252   7.926   4.681   4.122
11437TIP3    H234253   7.870   4.591   4.229
11438TIP3   OH234254   6.190   6.473   2.359
11438TIP3    H134255   6.128   6.500   2.290
11438TIP3    H234256   6.238   6.400   2.320
11439TIP3   OH234257   0.093   3.957   3.300
11439TIP3    H134258   0.061   4.010   3.374
11439TIP3    H234259   0.019   3.953   3.240
11440TIP3   OH234260   6.980   3.681   2.076
11440TIP3    H134261   6.983   3.683   1.980
11440TIP3    H234262   6.920   3.610   2.096
11441TIP3   OH234263   3.491   3.239   5.427
11441TIP3    H134264   3.443   3.262   5.347
11441TIP3    H234265   3.424   3.235   5.495
11442TIP3   OH234266   6.585   6.881   5.141
11442TIP3    H134267   6.578   6.976   5.128
11442TIP3    H234268   6.539   6.865   5.224
11443TIP3   OH234269   4.741   3.565   2.791
11443TIP3    H134270   4.676   3.627   2.823
11443TIP3    H234271   4.817   3.619   2.770
11444TIP3   OH234272   6.628   3.263   3.106
11444TIP3    H134273   6.662   3.178   3.133
11444TIP3    H234274   6.704   3.309   3.071
11445TIP3   OH234275   6.005   6.568   5.461
11445TIP3    H134276   5.956   6.560   5.542
11445TIP3    H234277   6.090   6.604   5.488
11446TIP3   OH234278   0.572   3.907   0.599
11446TIP3    H134279   0.480   3.882   0.615
11446TIP3    H234280   0.598   3.953   0.679
11447TIP3   OH234281   3.767   6.456   6.880
11447TIP3    H134282   3.861   6.443   6.869
11447TIP3    H234283   3.741   6.510   6.805
11448TIP3   OH234284   7.475   0.891   3.013
11448TIP3    H134285   7.525   0.921   3.089
11448TIP3    H234286   7.538   0.891   2.942
11449TIP3   OH234287   1.199   0.642   3.524
11449TIP3    H134288   1.215   0.707   3.593
11449TIP3    H234289   1.121   0.674   3.479
11450TIP3   OH234290   5.892   3.509   2.668
11450TIP3    H134291   5.950   3.447   2.623
11450TIP3    H234292   5.833   3.540   2.600
11451TIP3   OH234293   7.535   2.191   0.501
11451TIP3    H134294   7.507   2.217   0.414
11451TIP3    H234295   7.582   2.267   0.536
11452TIP3   OH234296   3.065   0.064   0.340
11452TIP3    H134297   3.134   0.101   0.393
11452TIP3    H234298   2.984   0.099   0.377
11453TIP3   OH234299   8.063   5.662   4.175
11453TIP3    H134300   8.079   5.655   4.269
11453TIP3    H234301   7.987   5.605   4.160
11454TIP3   OH234302   5.335   6.697   5.940
11454TIP3    H134303   5.397   6.762   5.907
11454TIP3    H234304   5.252   6.745   5.947
11455TIP3   OH234305   4.775   6.249   4.959
11455TIP3    H134306   4.768   6.273   5.051
11455TIP3    H234307   4.684   6.242   4.929
11456TIP3   OH234308   5.415   1.884   3.728
11456TIP3    H134309   5.479   1.953   3.713
11456TIP3    H234310   5.350   1.923   3.787
11457TIP3   OH234311   7.227   2.748   4.046
11457TIP3    H134312   7.181   2.786   3.972
11457TIP3    H234313   7.302   2.806   4.060
11458TIP3   OH234314   0.914   2.904   3.528
11458TIP3    H134315   0.884   2.879   3.440
11458TIP3    H234316   0.853   2.973   3.554
11459TIP3   OH234317   2.131   2.835   5.012
11459TIP3    H134318   2.136   2.869   5.102
11459TIP3    H234319   2.047   2.866   4.980
11460TIP3   OH234320   6.304   7.081   3.223
11460TIP3    H134321   6.315   7.018   3.152
11460TIP3    H234322   6.294   7.027   3.301
11461TIP3   OH234323   3.741   2.624   4.994
11461TIP3    H134324   3.696   2.595   5.074
11461TIP3    H234325   3.834   2.617   5.015
11462TIP3   OH234326   5.369   0.702   6.642
11462TIP3    H134327   5.291   0.738   6.600
11462TIP3    H234328   5.351   0.608   6.647
11463TIP3   OH234329   0.946   1.846   2.619
11463TIP3    H134330   1.010   1.785   2.581
11463TIP3    H234331   0.862   1.818   2.583
11464TIP3   OH234332   0.651   3.611   4.804
11464TIP3    H134333   0.713   3.645   4.868
11464TIP3    H234334   0.599   3.687   4.777
11465TIP3   OH234335   5.224   3.730   6.701
11465TIP3    H134336   5.190   3.790   6.634
11465TIP3    H234337   5.228   3.645   6.658
11466TIP3   OH234338   6.499   0.544   1.531
11466TIP3    H134339   6.483   0.473   1.593
11466TIP3    H234340   6.584   0.522   1.491
11467TIP3   OH234341   3.778   1.689   0.438
11467TIP3    H134342   3.786   1.678   0.343
11467TIP3    H234343   3.700   1.639   0.462
11468TIP3   OH234344   5.624   0.636   0.538
11468TIP3    H134345   5.667   0.567   0.588
11468TIP3    H234346   5.561   0.674   0.599
11469TIP3   OH234347   2.117   3.307   2.557
11469TIP3    H134348   2.196   3.289   2.609
11469TIP3    H234349   2.111   3.233   2.496
11470TIP3   OH234350   3.759   6.291   5.516
11470TIP3    H134351   3.762   6.196   5.526
11470TIP3    H234352   3.672   6.316   5.549
11471TIP3   OH234353   0.647   5.281   6.686
11471TIP3    H134354   0.640   5.216   6.757
11471TIP3    H234355   0.629   5.230   6.606
11472TIP3   OH234356   0.640   0.379   6.191
11472TIP3    H134357   0.557   0.332   6.187
11472TIP3    H234358   0.622   0.464   6.152
11473TIP3   OH234359   3.188   7.572   5.184
11473TIP3    H134360   3.177   7.603   5.274
11473TIP3    H234361   3.269   7.521   5.185
11474TIP3   OH234362   8.088   4.717   6.330
11474TIP3    H134363   8.133   4.739   6.249
11474TIP3    H234364   8.079   4.622   6.327
11475TIP3   OH234365   2.551   2.130   5.678
11475TIP3    H134366   2.604   2.135   5.757
11475TIP3    H234367   2.491   2.204   5.684
11476TIP3   OH234368   1.768   3.973   6.643
11476TIP3    H134369   1.689   4.026   6.647
11476TIP3    H234370   1.769   3.937   6.554
11477TIP3   OH234371   3.327   3.648   6.260
11477TIP3    H134372   3.289   3.636   6.174
11477TIP3    H234373   3.419   3.671   6.243
11478TIP3   OH234374   8.104   3.683   0.978
11478TIP3    H134375   8.111   3.590   0.958
11478TIP3    H234376   8.062   3.686   1.065
11479TIP3   OH234377   4.074   4.931   6.707
11479TIP3    H134378   4.059   4.982   6.786
11479TIP3    H234379   4.029   4.979   6.638
11480TIP3   OH234380   1.148   3.637   3.795
11480TIP3    H134381   1.074   3.676   3.841
11480TIP3    H234382   1.108   3.592   3.720
11481TIP3   OH234383   3.769   1.331   2.675
11481TIP3    H134384   3.795   1.335   2.583
11481TIP3    H234385   3.811   1.408   2.715
11482TIP3   OH234386   0.246   7.538   2.968
11482TIP3    H134387   0.182   7.598   2.930
11482TIP3    H234388   0.279   7.487   2.894
11483TIP3   OH234389   1.530   1.238   2.719
11483TIP3    H134390   1.591   1.164   2.720
11483TIP3    H234391   1.543   1.278   2.633
11484TIP3   OH234392   4.049   0.664   2.783
11484TIP3    H134393   3.995   0.675   2.861
11484TIP3    H234394   3.986   0.644   2.713
11485TIP3   OH234395   0.004   1.291   5.020
11485TIP3    H134396  -0.022   1.346   5.093
11485TIP3    H234397  -0.040   1.207   5.037
11486TIP3   OH234398   0.562   1.728   6.794
11486TIP3    H134399   0.522   1.642   6.780
11486TIP3    H234400   0.510   1.788   6.741
11487TIP3   OH234401   6.710   6.829   6.327
11487TIP3    H134402   6.642   6.799   6.387
11487TIP3    H234403   6.716   6.761   6.261
11488TIP3   OH234404   2.923   2.321   5.284
11488TIP3    H134405   2.842   2.329   5.334
11488TIP3    H234406   2.992   2.318   5.350
11489TIP3   OH234407   2.365   7.348   4.911
11489TIP3    H134408   2.389   7.416   4.849
11489TIP3    H234409   2.385   7.265   4.866
11490TIP3   OH234410   8.323   4.900   3.777
11490TIP3    H134411   8.415   4.887   3.755
11490TIP3    H234412   8.324   4.951   3.858
11491TIP3   OH234413   6.198   3.717   5.319
11491TIP3    H134414   6.182   3.808   5.345
11491TIP3    H234415   6.158   3.708   5.233
11492TIP3   OH234416   0.884   2.492   5.446
11492TIP3    H134417   0.815   2.430   5.421
11492TIP3    H234418   0.955   2.476   5.383
11493TIP3   OH234419   6.904   5.108   6.218
11493TIP3    H134420   6.924   5.024   6.177
11493TIP3    H234421   6.962   5.171   6.175
11494TIP3   OH234422   3.202   0.926   5.695
11494TIP3    H134423   3.260   0.866   5.648
11494TIP3    H234424   3.255   1.004   5.709
11495TIP3   OH234425   6.481   4.626   0.295
11495TIP3    H134426   6.462   4.670   0.213
11495TIP3    H234427   6.529   4.547   0.270
11496TIP3   OH234428   3.915   0.088   4.118
11496TIP3    H134429   3.869   0.005   4.105
11496TIP3    H234430   3.847   0.149   4.146
11497TIP3   OH234431   3.342   1.914   3.453
11497TIP3    H134432   3.341   1.870   3.538
11497TIP3    H234433   3.251   1.911   3.423
11498TIP3   OH234434   0.783   4.831   0.869
11498TIP3    H134435   0.721   4.803   0.935
11498TIP3    H234436   0.862   4.854   0.918
11499TIP3   OH234437   1.160   6.857   2.553
11499TIP3    H134438   1.082   6.803   2.563
11499TIP3    H234439   1.230   6.806   2.594
11500TIP3   OH234440   7.665   2.386   5.616
11500TIP3    H134441   7.580   2.393   5.658
11500TIP3    H234442   7.715   2.328   5.673
11501TIP3   OH234443   5.806   6.415   4.334
11501TIP3    H134444   5.870   6.343   4.336
11501TIP3    H234445   5.745   6.394   4.405
11502TIP3   OH234446   3.696   5.145   6.069
11502TIP3    H134447   3.642   5.196   6.008
11502TIP3    H234448   3.635   5.117   6.137
11503TIP3   OH234449   0.368   1.574   6.069
11503TIP3    H134450   0.384   1.515   6.143
11503TIP3    H234451   0.272   1.583   6.066
11504TIP3   OH234452   6.184   7.763   4.682
11504TIP3    H134453   6.275   7.734   4.676
11504TIP3    H234454   6.171   7.818   4.605
11505TIP3   OH234455   4.197   3.070   1.594
11505TIP3    H134456   4.137   3.088   1.667
11505TIP3    H234457   4.272   3.026   1.635
11506TIP3   OH234458   1.393   6.442   0.084
11506TIP3    H134459   1.377   6.517   0.141
11506TIP3    H234460   1.381   6.366   0.140
11507TIP3   OH234461   5.360   0.323   3.013
11507TIP3    H134462   5.347   0.233   2.985
11507TIP3    H234463   5.279   0.368   2.990
11508TIP3   OH234464   7.737   4.334   0.901
11508TIP3    H134465   7.750   4.426   0.876
11508TIP3    H234466   7.822   4.293   0.884
11509TIP3   OH234467   6.371   3.172   0.185
11509TIP3    H134468   6.288   3.214   0.163
11509TIP3    H234469   6.351   3.078   0.185
11510TIP3   OH234470   2.904   3.309   5.519
11510TIP3    H134471   2.914   3.252   5.595
11510TIP3    H234472   2.983   3.363   5.519
11511TIP3   OH234473   0.187   2.253   3.756
11511TIP3    H134474   0.157   2.336   3.791
11511TIP3    H234475   0.164   2.257   3.663
11512TIP3   OH234476   6.637   0.372   2.695
11512TIP3    H134477   6.695   0.404   2.625
11512TIP3    H234478   6.620   0.450   2.748
11513TIP3   OH234479   0.954   1.098   0.098
11513TIP3    H134480   0.995   1.102   0.185
11513TIP3    H234481   0.884   1.034   0.108
11514TIP3   OH234482   2.132   4.533   2.993
11514TIP3    H134483   2.138   4.438   2.982
11514TIP3    H234484   2.222   4.563   2.983
11515TIP3   OH234485   7.286   3.778   2.969
11515TIP3    H134486   7.267   3.866   2.935
11515TIP3    H234487   7.334   3.735   2.899
11516TIP3   OH234488   1.585  -0.071   4.069
11516TIP3    H134489   1.557  -0.083   3.979
11516TIP3    H234490   1.531  -0.131   4.120
11517TIP3   OH234491   5.176   0.767   5.706
11517TIP3    H134492   5.173   0.755   5.611
11517TIP3    H234493   5.191   0.679   5.741
11518TIP3   OH234494   2.646   6.773   0.127
11518TIP3    H134495   2.566   6.722   0.123
11518TIP3    H234496   2.651   6.804   0.217
11519TIP3   OH234497   4.094   6.145   2.977
11519TIP3    H134498   4.086   6.062   2.930
11519TIP3    H234499   4.080   6.212   2.911
11520TIP3   OH234500   7.893   4.928   4.926
11520TIP3    H134501   7.930   4.992   4.865
11520TIP3    H234502   7.925   4.956   5.012
11521TIP3   OH234503   6.695   1.524   1.938
11521TIP3    H134504   6.703   1.459   2.008
11521TIP3    H234505   6.784   1.534   1.905
11522TIP3   OH234506   7.194   4.445   2.322
11522TIP3    H134507   7.153   4.452   2.409
11522TIP3    H234508   7.266   4.383   2.335
11523TIP3   OH234509   1.765   1.699   1.334
11523TIP3    H134510   1.815   1.774   1.300
11523TIP3    H234511   1.823   1.659   1.399
11524TIP3   OH234512   4.872   5.676   2.700
11524TIP3    H134513   4.805   5.627   2.653
11524TIP3    H234514   4.918   5.610   2.753
11525TIP3   OH234515   7.791   3.350   2.111
11525TIP3    H134516   7.701   3.322   2.126
11525TIP3    H234517   7.792   3.443   2.134
11526TIP3   OH234518   4.587   4.335   2.793
11526TIP3    H134519   4.543   4.253   2.771
11526TIP3    H234520   4.630   4.318   2.876
11527TIP3   OH234521   0.909   1.226   6.011
11527TIP3    H134522   0.958   1.158   5.965
11527TIP3    H234523   0.960   1.244   6.089
11528TIP3   OH234524   6.274   3.987   5.325
11528TIP3    H134525   6.309   4.031   5.402
11528TIP3    H234526   6.351   3.949   5.282
11529TIP3   OH234527   0.176   7.350   4.965
11529TIP3    H134528   0.157   7.286   5.033
11529TIP3    H234529   0.132   7.430   4.993
11530TIP3   OH234530   7.729   0.349   3.696
11530TIP3    H134531   7.673   0.290   3.645
11530TIP3    H234532   7.781   0.291   3.751
11531TIP3   OH234533   4.487   2.720   2.794
11531TIP3    H134534   4.515   2.795   2.846
11531TIP3    H234535   4.567   2.690   2.751
11532TIP3   OH234536   2.902   5.914   4.720
11532TIP3    H134537   2.826   5.896   4.665
11532TIP3    H234538   2.866   5.923   4.808
11533TIP3   OH234539   2.797   1.765   1.731
11533TIP3    H134540   2.794   1.708   1.808
11533TIP3    H234541   2.712   1.809   1.731
11534TIP3   OH234542   2.684   2.668   1.092
11534TIP3    H134543   2.732   2.625   1.022
11534TIP3    H234544   2.740   2.656   1.169
11535TIP3   OH234545   5.883   0.818   4.032
11535TIP3    H134546   5.872   0.904   4.074
11535TIP3    H234547   5.912   0.761   4.103
11536TIP3   OH234548   8.110   4.951   5.134
11536TIP3    H134549   8.089   5.038   5.167
11536TIP3    H234550   8.176   4.966   5.066
11537TIP3   OH234551   6.213   2.778   1.530
11537TIP3    H134552   6.174   2.697   1.562
11537TIP3    H234553   6.266   2.751   1.455
11538TIP3   OH234554   7.364   6.475   4.091
11538TIP3    H134555   7.433   6.435   4.038
11538TIP3    H234556   7.282   6.449   4.048
11539TIP3   OH234557   3.098   4.711   2.750
11539TIP3    H134558   3.143   4.650   2.807
11539TIP3    H234559   3.167   4.762   2.708
11540TIP3   OH234560   3.801   0.980   0.585
11540TIP3    H134561   3.895   0.973   0.570
11540TIP3    H234562   3.790   1.064   0.629
11541TIP3   OH234563   6.536   4.123   2.561
11541TIP3    H134564   6.596   4.062   2.518
11541TIP3    H234565   6.456   4.119   2.510
11542TIP3   OH234566   2.338   5.904   0.237
11542TIP3    H134567   2.362   5.816   0.208
11542TIP3    H234568   2.278   5.936   0.170
11543TIP3   OH234569   8.117   1.448   1.704
11543TIP3    H134570   8.124   1.422   1.612
11543TIP3    H234571   8.069   1.531   1.702
11544TIP3   OH234572   6.346   4.794   2.379
11544TIP3    H134573   6.260   4.796   2.421
11544TIP3    H234574   6.327   4.772   2.288
11545TIP3   OH234575   7.320   1.394   0.778
11545TIP3    H134576   7.239   1.445   0.777
11545TIP3    H234577   7.387   1.456   0.808
11546TIP3   OH234578   0.330   6.736   2.456
11546TIP3    H134579   0.381   6.776   2.527
11546TIP3    H234580   0.366   6.776   2.376
11547TIP3   OH234581   2.494   3.132   2.320
11547TIP3    H134582   2.477   3.048   2.277
11547TIP3    H234583   2.465   3.197   2.257
11548TIP3   OH234584   2.232   6.525   0.592
11548TIP3    H134585   2.231   6.499   0.500
11548TIP3    H234586   2.291   6.463   0.634
11549TIP3   OH234587   6.138   5.854   5.021
11549TIP3    H134588   6.180   5.791   4.963
11549TIP3    H234589   6.050   5.819   5.034
11550TIP3   OH234590   2.965   2.351   0.626
11550TIP3    H134591   2.997   2.420   0.569
11550TIP3    H234592   2.905   2.301   0.572
11551TIP3   OH234593   6.424   4.932   6.485
11551TIP3    H134594   6.481   4.859   6.509
11551TIP3    H234595   6.341   4.891   6.462
11552TIP3   OH234596   6.202   3.604   4.403
11552TIP3    H134597   6.146   3.611   4.325
11552TIP3    H234598   6.264   3.535   4.381
11553TIP3   OH234599   6.939   3.871   4.952
11553TIP3    H134600   6.922   3.812   4.879
11553TIP3    H234601   6.858   3.869   5.004
11554TIP3   OH234602   0.824   4.086   4.255
11554TIP3    H134603   0.819   4.171   4.298
11554TIP3    H234604   0.877   4.102   4.176
11555TIP3   OH234605   0.301   1.322   4.320
11555TIP3    H134606   0.279   1.243   4.369
11555TIP3    H234607   0.396   1.325   4.322
11556TIP3   OH234608   4.619   6.366   3.067
11556TIP3    H134609   4.598   6.449   3.025
11556TIP3    H234610   4.686   6.327   3.011
11557TIP3   OH234611   0.208   2.700   6.612
11557TIP3    H134612   0.168   2.702   6.699
11557TIP3    H234613   0.292   2.744   6.624
11558TIP3   OH234614   2.813   6.029   6.044
11558TIP3    H134615   2.792   6.116   6.011
11558TIP3    H234616   2.761   5.969   5.989
11559TIP3   OH234617   8.047   7.607   4.249
11559TIP3    H134618   8.083   7.518   4.244
11559TIP3    H234619   7.977   7.608   4.183
11560TIP3   OH234620   4.085   1.821   6.192
11560TIP3    H134621   4.006   1.843   6.242
11560TIP3    H234622   4.053   1.762   6.123
11561TIP3   OH234623   6.795   0.594   4.923
11561TIP3    H134624   6.773   0.558   4.837
11561TIP3    H234625   6.871   0.544   4.952
11562TIP3   OH234626   0.346   1.833   6.630
11562TIP3    H134627   0.261   1.845   6.587
11562TIP3    H234628   0.410   1.840   6.559
11563TIP3   OH234629   1.972   6.813   5.129
11563TIP3    H134630   2.018   6.868   5.065
11563TIP3    H234631   1.957   6.730   5.082
11564TIP3   OH234632   1.133   7.767   3.587
11564TIP3    H134633   1.047   7.807   3.601
11564TIP3    H234634   1.193   7.840   3.582
11565TIP3   OH234635   0.859   2.300   3.352
11565TIP3    H134636   0.853   2.378   3.297
11565TIP3    H234637   0.885   2.230   3.292
11566TIP3   OH234638   4.446   5.824   0.824
11566TIP3    H134639   4.537   5.851   0.815
11566TIP3    H234640   4.411   5.881   0.893
11567TIP3   OH234641   3.771   3.732   2.003
11567TIP3    H134642   3.750   3.823   1.983
11567TIP3    H234643   3.856   3.717   1.961
11568TIP3   OH234644   2.187   3.774   5.618
11568TIP3    H134645   2.217   3.813   5.700
11568TIP3    H234646   2.130   3.841   5.579
11569TIP3   OH234647   3.285   7.706   3.921
11569TIP3    H134648   3.278   7.660   4.005
11569TIP3    H234649   3.352   7.658   3.873
11570TIP3   OH234650   1.756   1.260   4.185
11570TIP3    H134651   1.772   1.315   4.108
11570TIP3    H234652   1.844   1.243   4.220
11571TIP3   OH234653   4.042   1.697   3.297
11571TIP3    H134654   3.992   1.674   3.376
11571TIP3    H234655   3.975   1.718   3.232
11572TIP3   OH234656   8.110   1.216   3.458
11572TIP3    H134657   8.100   1.205   3.552
11572TIP3    H234658   8.021   1.222   3.424
11573TIP3   OH234659   1.140   1.313   6.811
11573TIP3    H134660   1.201   1.317   6.885
11573TIP3    H234661   1.113   1.404   6.797
11574TIP3   OH234662   4.228   6.187   5.749
11574TIP3    H134663   4.196   6.208   5.662
11574TIP3    H234664   4.224   6.091   5.754
11575TIP3   OH234665   1.200   7.350   1.111
11575TIP3    H134666   1.264   7.417   1.137
11575TIP3    H234667   1.177   7.372   1.021
11576TIP3   OH234668   5.437   7.548   6.509
11576TIP3    H134669   5.521   7.502   6.507
11576TIP3    H234670   5.432   7.584   6.598
11577TIP3   OH234671   7.633   4.537   3.986
11577TIP3    H134672   7.612   4.502   4.073
11577TIP3    H234673   7.592   4.623   3.984
11578TIP3   OH234674  -0.045   2.242   4.677
11578TIP3    H134675   0.038   2.225   4.722
11578TIP3    H234676  -0.081   2.155   4.660
11579TIP3   OH234677   2.093   0.159   4.380
11579TIP3    H134678   2.109   0.065   4.371
11579TIP3    H234679   2.005   0.172   4.344
11580TIP3   OH234680   5.646   5.273   0.586
11580TIP3    H134681   5.567   5.316   0.555
11580TIP3    H234682   5.688   5.239   0.507
11581TIP3   OH234683   7.377   4.841   0.355
11581TIP3    H134684   7.323   4.766   0.331
11581TIP3    H234685   7.324   4.891   0.416
11582TIP3   OH234686   1.336   5.584   0.131
11582TIP3    H134687   1.296   5.525   0.066
11582TIP3    H234688   1.262   5.623   0.177
11583TIP3   OH234689   5.518   0.208   2.308
11583TIP3    H134690   5.535   0.166   2.223
11583TIP3    H234691   5.477   0.140   2.361
11584TIP3   OH234692   1.105   6.215   0.726
11584TIP3    H134693   1.075   6.181   0.811
11584TIP3    H234694   1.195   6.242   0.742
11585TIP3   OH234695   1.540   2.047   5.500
11585TIP3    H134696   1.504   2.110   5.437
11585TIP3    H234697   1.474   1.977   5.503
11586TIP3   OH234698   1.810   3.643   3.096
11586TIP3    H134699   1.902   3.628   3.117
11586TIP3    H234700   1.762   3.616   3.174
11587TIP3   OH234701   2.647   1.056   5.872
11587TIP3    H134702   2.683   1.023   5.790
11587TIP3    H234703   2.570   1.003   5.888
11588TIP3   OH234704   7.187   0.825   4.237
11588TIP3    H134705   7.226   0.863   4.315
11588TIP3    H234706   7.197   0.730   4.249
11589TIP3   OH234707   3.152   2.893   6.475
11589TIP3    H134708   3.200   2.972   6.450
11589TIP3    H234709   3.134   2.904   6.569
11590TIP3   OH234710   2.499   3.250   2.584
11590TIP3    H134711   2.558   3.326   2.574
11590TIP3    H234712   2.518   3.195   2.509
11591TIP3   OH234713   7.415   6.124   4.219
11591TIP3    H134714   7.429   6.087   4.132
11591TIP3    H234715   7.482   6.082   4.273
11592TIP3   OH234716   3.413   1.240   6.008
11592TIP3    H134717   3.382   1.194   6.086
11592TIP3    H234718   3.509   1.235   6.014
11593TIP3   OH234719   8.383   2.849   5.900
11593TIP3    H134720   8.401   2.778   5.960
11593TIP3    H234721   8.292   2.836   5.874
11594TIP3   OH234722   4.682   5.098   1.619
11594TIP3    H134723   4.633   5.139   1.690
11594TIP3    H234724   4.648   5.139   1.539
11595TIP3   OH234725   8.286   2.345   1.774
11595TIP3    H134726   8.348   2.361   1.845
11595TIP3    H234727   8.337   2.362   1.694
11596TIP3   OH234728   6.499   4.552   5.687
11596TIP3    H134729   6.480   4.535   5.779
11596TIP3    H234730   6.570   4.491   5.665
11597TIP3   OH234731   1.417   4.701   0.239
11597TIP3    H134732   1.390   4.703   0.147
11597TIP3    H234733   1.479   4.773   0.248
11598TIP3   OH234734   7.555   4.997   3.751
11598TIP3    H134735   7.558   5.076   3.806
11598TIP3    H234736   7.642   4.992   3.711
11599TIP3   OH234737   5.401   4.484   3.504
11599TIP3    H134738   5.394   4.579   3.498
11599TIP3    H234739   5.312   4.455   3.526
11600TIP3   OH234740   2.549   2.521   6.654
11600TIP3    H134741   2.634   2.498   6.615
11600TIP3    H234742   2.485   2.490   6.590
11601TIP3   OH234743   2.205   2.973   2.098
11601TIP3    H134744   2.231   2.974   2.006
11601TIP3    H234745   2.279   2.933   2.143
11602TIP3   OH234746   6.754   1.963   4.946
11602TIP3    H134747   6.715   1.988   4.862
11602TIP3    H234748   6.679   1.959   5.006
11603TIP3   OH234749   2.851   5.842   4.269
11603TIP3    H134750   2.832   5.894   4.347
11603TIP3    H234751   2.939   5.808   4.284
11604TIP3   OH234752   8.057   6.267   5.488
11604TIP3    H134753   8.024   6.264   5.578
11604TIP3    H234754   7.995   6.323   5.441
11605TIP3   OH234755   0.295   6.539   5.784
11605TIP3    H134756   0.389   6.542   5.801
11605TIP3    H234757   0.287   6.547   5.689
11606TIP3   OH234758   0.994   2.943   0.822
11606TIP3    H134759   1.057   2.947   0.750
11606TIP3    H234760   1.012   3.021   0.874
11607TIP3   OH234761   5.230   2.744   2.585
11607TIP3    H134762   5.211   2.662   2.630
11607TIP3    H234763   5.295   2.787   2.640
11608TIP3   OH234764   7.297   7.348   2.259
11608TIP3    H134765   7.379   7.393   2.238
11608TIP3    H234766   7.272   7.303   2.178
11609TIP3   OH234767   6.474   3.531   4.484
11609TIP3    H134768   6.414   3.505   4.553
11609TIP3    H234769   6.446   3.619   4.459
11610TIP3   OH234770   0.454   3.846   2.144
11610TIP3    H134771   0.542   3.881   2.129
11610TIP3    H234772   0.444   3.847   2.240
11611TIP3   OH234773   8.310   3.668   5.993
11611TIP3    H134774   8.305   3.579   6.030
11611TIP3    H234775   8.251   3.666   5.918
11612TIP3   OH234776   4.738   3.174   3.986
11612TIP3    H134777   4.829   3.145   3.976
11612TIP3    H234778   4.698   3.108   4.043
11613TIP3   OH234779   6.299   2.299   2.271
11613TIP3    H134780   6.283   2.205   2.279
11613TIP3    H234781   6.264   2.336   2.352
11614TIP3   OH234782   2.163   7.484   4.117
11614TIP3    H134783   2.196   7.411   4.169
11614TIP3    H234784   2.153   7.449   4.028
11615TIP3   OH234785   0.856   6.517   5.613
11615TIP3    H134786   0.809   6.448   5.660
11615TIP3    H234787   0.830   6.505   5.522
11616TIP3   OH234788   5.178   1.941   5.349
11616TIP3    H134789   5.174   1.972   5.258
11616TIP3    H234790   5.239   1.867   5.347
11617TIP3   OH234791   8.052   7.063   4.582
11617TIP3    H134792   7.962   7.032   4.568
11617TIP3    H234793   8.101   6.983   4.603
11618TIP3   OH234794   2.951   1.797   1.017
11618TIP3    H134795   2.915   1.748   0.943
11618TIP3    H234796   2.899   1.770   1.092
11619TIP3   OH234797   2.715   4.822   5.597
11619TIP3    H134798   2.661   4.883   5.646
11619TIP3    H234799   2.661   4.795   5.523
11620TIP3   OH234800   7.557   6.433   0.456
11620TIP3    H134801   7.609   6.389   0.523
11620TIP3    H234802   7.489   6.370   0.433
11621TIP3   OH234803   5.041   6.675   2.251
11621TIP3    H134804   5.058   6.770   2.248
11621TIP3    H234805   5.080   6.647   2.334
11622TIP3   OH234806   7.704   1.618   1.118
11622TIP3    H134807   7.679   1.582   1.033
11622TIP3    H234808   7.668   1.707   1.118
11623TIP3   OH234809   2.514   7.208   4.487
11623TIP3    H134810   2.495   7.293   4.527
11623TIP3    H234811   2.609   7.201   4.490
11624TIP3   OH234812   0.651   2.125   3.618
11624TIP3    H134813   0.691   2.204   3.583
11624TIP3    H234814   0.570   2.115   3.568
11625TIP3   OH234815   5.756   5.014   5.195
11625TIP3    H134816   5.737   4.927   5.230
11625TIP3    H234817   5.775   5.000   5.103
11626TIP3   OH234818   1.181   6.923   2.292
11626TIP3    H134819   1.195   6.910   2.386
11626TIP3    H234820   1.121   6.996   2.287
11627TIP3   OH234821   4.567   0.064   5.717
11627TIP3    H134822   4.608  -0.018   5.745
11627TIP3    H234823   4.474   0.041   5.707
11628TIP3   OH234824   3.971   7.344   3.018
11628TIP3    H134825   4.062   7.322   3.039
11628TIP3    H234826   3.921   7.270   3.053
11629TIP3   OH234827   6.529   4.027   4.828
11629TIP3    H134828   6.551   4.047   4.737
11629TIP3    H234829   6.525   3.931   4.830
11630TIP3   OH234830   6.109   2.767   3.999
11630TIP3    H134831   6.048   2.774   4.073
11630TIP3    H234832   6.196   2.766   4.039
11631TIP3   OH234833   7.387   2.709   1.670
11631TIP3    H134834   7.340   2.784   1.634
11631TIP3    H234835   7.322   2.664   1.725
11632TIP3   OH234836   5.061   2.213   2.127
11632TIP3    H134837   5.003   2.219   2.203
11632TIP3    H234838   5.129   2.151   2.153
11633TIP3   OH234839   2.737   1.714   1.474
11633TIP3    H134840   2.761   1.706   1.566
11633TIP3    H234841   2.644   1.733   1.475
11634TIP3   OH234842   3.647   3.199   4.402
11634TIP3    H134843   3.629   3.275   4.347
11634TIP3    H234844   3.575   3.198   4.466
11635TIP3   OH234845   1.497   5.310   5.400
11635TIP3    H134846   1.577   5.331   5.448
11635TIP3    H234847   1.435   5.379   5.425
11636TIP3   OH234848   0.081   6.928   0.766
11636TIP3    H134849   0.135   6.891   0.697
11636TIP3    H234850   0.039   6.853   0.808
11637TIP3   OH234851   1.591   5.584   6.674
11637TIP3    H134852   1.538   5.575   6.595
11637TIP3    H234853   1.633   5.499   6.684
11638TIP3   OH234854   5.701   0.818   4.386
11638TIP3    H134855   5.695   0.824   4.481
11638TIP3    H234856   5.789   0.850   4.365
11639TIP3   OH234857   1.815   0.817   4.538
11639TIP3    H134858   1.820   0.857   4.451
11639TIP3    H234859   1.779   0.730   4.523
11640TIP3   OH234860   1.841   6.090   6.758
11640TIP3    H134861   1.856   6.064   6.849
11640TIP3    H234862   1.802   6.013   6.717
11641TIP3   OH234863   0.395   7.922   4.092
11641TIP3    H134864   0.453   7.968   4.153
11641TIP3    H234865   0.394   7.976   4.013
11642TIP3   OH234866   3.967   4.066   4.169
11642TIP3    H134867   4.014   4.119   4.106
11642TIP3    H234868   3.929   3.995   4.118
11643TIP3   OH234869   3.805   5.957   0.797
11643TIP3    H134870   3.802   6.030   0.859
11643TIP3    H234871   3.856   5.990   0.724
11644TIP3   OH234872   7.787   4.997   2.615
11644TIP3    H134873   7.715   4.955   2.663
11644TIP3    H234874   7.761   4.992   2.523
11645TIP3   OH234875   2.214   2.347   6.446
11645TIP3    H134876   2.129   2.382   6.421
11645TIP3    H234877   2.241   2.398   6.522
11646TIP3   OH234878   3.410   4.717   4.577
11646TIP3    H134879   3.432   4.738   4.486
11646TIP3    H234880   3.360   4.792   4.608
11647TIP3   OH234881   1.626   6.834   1.789
11647TIP3    H134882   1.585   6.751   1.816
11647TIP3    H234883   1.707   6.808   1.745
11648TIP3   OH234884   4.879   7.214   6.332
11648TIP3    H134885   4.864   7.306   6.354
11648TIP3    H234886   4.860   7.166   6.412
11649TIP3   OH234887   5.499   3.934   2.730
11649TIP3    H134888   5.493   3.968   2.819
11649TIP3    H234889   5.582   3.886   2.728
11650TIP3   OH234890   3.942   7.828   3.929
11650TIP3    H134891   3.850   7.802   3.930
11650TIP3    H234892   3.990   7.747   3.949
11651TIP3   OH234893   4.632   7.770   1.080
11651TIP3    H134894   4.657   7.826   1.007
11651TIP3    H234895   4.699   7.702   1.082
11652TIP3   OH234896   2.114   3.213   1.386
11652TIP3    H134897   2.136   3.261   1.466
11652TIP3    H234898   2.022   3.190   1.396
11653TIP3   OH234899   4.824   7.722   2.093
11653TIP3    H134900   4.861   7.650   2.042
11653TIP3    H234901   4.883   7.795   2.077
11654TIP3   OH234902   2.463   5.533   4.549
11654TIP3    H134903   2.510   5.614   4.526
11654TIP3    H234904   2.530   5.476   4.587
11655TIP3   OH234905   6.612   4.356   1.704
11655TIP3    H134906   6.637   4.346   1.612
11655TIP3    H234907   6.693   4.345   1.752
11656TIP3   OH234908   1.310   0.034   4.364
11656TIP3    H134909   1.253   0.041   4.287
11656TIP3    H234910   1.256   0.065   4.437
11657TIP3   OH234911   4.578   0.452   0.070
11657TIP3    H134912   4.652   0.404   0.107
11657TIP3    H234913   4.616   0.533   0.036
11658TIP3   OH234914   1.708   5.543   1.767
11658TIP3    H134915   1.750   5.628   1.755
11658TIP3    H234916   1.616   5.558   1.746
11659TIP3   OH234917   3.455   5.620   5.030
11659TIP3    H134918   3.421   5.669   5.105
11659TIP3    H234919   3.473   5.686   4.964
11660TIP3   OH234920   4.348   2.658   1.542
11660TIP3    H134921   4.260   2.696   1.544
11660TIP3    H234922   4.343   2.589   1.476
11661TIP3   OH234923   0.357   7.138   2.075
11661TIP3    H134924   0.340   7.133   1.981
11661TIP3    H234925   0.450   7.117   2.084
11662TIP3   OH234926   2.028   2.936   1.743
11662TIP3    H134927   2.019   3.024   1.707
11662TIP3    H234928   1.940   2.914   1.774
11663TIP3   OH234929   3.017   6.598   5.329
11663TIP3    H134930   2.963   6.522   5.350
11663TIP3    H234931   2.955   6.665   5.301
11664TIP3   OH234932   2.370   2.944   3.567
11664TIP3    H134933   2.435   2.876   3.585
11664TIP3    H234934   2.381   3.006   3.639
11665TIP3   OH234935   2.782   0.196   0.228
11665TIP3    H134936   2.780   0.258   0.155
11665TIP3    H234937   2.709   0.136   0.210
11666TIP3   OH234938   6.842   3.620   5.216
11666TIP3    H134939   6.789   3.552   5.256
11666TIP3    H234940   6.780   3.671   5.163
11667TIP3   OH234941   4.896   5.724   6.549
11667TIP3    H134942   4.861   5.637   6.531
11667TIP3    H234943   4.986   5.721   6.517
11668TIP3   OH234944   7.129   1.363   4.380
11668TIP3    H134945   7.182   1.425   4.330
11668TIP3    H234946   7.172   1.358   4.465
11669TIP3   OH234947   5.800   0.178   6.167
11669TIP3    H134948   5.705   0.168   6.168
11669TIP3    H234949   5.831   0.107   6.111
11670TIP3   OH234950   1.584   4.225   2.620
11670TIP3    H134951   1.584   4.178   2.536
11670TIP3    H234952   1.560   4.315   2.597
11671TIP3   OH234953   4.304   6.218   0.078
11671TIP3    H134954   4.298   6.172   0.161
11671TIP3    H234955   4.220   6.263   0.069
11672TIP3   OH234956   1.348   6.012   2.731
11672TIP3    H134957   1.356   5.922   2.700
11672TIP3    H234958   1.270   6.011   2.788
11673TIP3   OH234959   7.565   6.149   5.758
11673TIP3    H134960   7.503   6.200   5.809
11673TIP3    H234961   7.532   6.059   5.764
11674TIP3   OH234962   8.090   4.914   2.417
11674TIP3    H134963   7.998   4.938   2.420
11674TIP3    H234964   8.135   4.995   2.393
11675TIP3   OH234965   3.712   5.740   2.959
11675TIP3    H134966   3.687   5.730   3.051
11675TIP3    H234967   3.718   5.835   2.945
11676TIP3   OH234968   7.296   7.710   1.080
11676TIP3    H134969   7.335   7.664   1.154
11676TIP3    H234970   7.371   7.744   1.031
11677TIP3   OH234971   0.292   0.627   0.041
11677TIP3    H134972   0.356   0.671  -0.014
11677TIP3    H234973   0.216   0.614  -0.016
11678TIP3   OH234974   7.729   0.226   5.953
11678TIP3    H134975   7.737   0.137   5.985
11678TIP3    H234976   7.748   0.282   6.028
11679TIP3   OH234977   7.404   6.123   6.435
11679TIP3    H134978   7.491   6.113   6.396
11679TIP3    H234979   7.375   6.210   6.408
11680TIP3   OH234980   4.059   7.056   3.546
11680TIP3    H134981   4.062   7.106   3.627
11680TIP3    H234982   3.988   6.993   3.559
11681TIP3   OH234983   2.654   0.373   1.982
11681TIP3    H134984   2.586   0.398   1.920
11681TIP3    H234985   2.620   0.294   2.024
11682TIP3   OH234986   2.767   2.881   1.644
11682TIP3    H134987   2.681   2.842   1.660
11682TIP3    H234988   2.763   2.913   1.555
11683TIP3   OH234989   1.220   0.750   4.728
11683TIP3    H134990   1.177   0.776   4.646
11683TIP3    H234991   1.172   0.796   4.796
11684TIP3   OH234992   6.421   1.066   4.904
11684TIP3    H134993   6.339   1.063   4.953
11684TIP3    H234994   6.397   1.103   4.819
11685TIP3   OH234995   4.568   7.252   0.460
11685TIP3    H134996   4.536   7.267   0.371
11685TIP3    H234997   4.571   7.339   0.499
11686TIP3   OH234998   6.607   2.470   0.845
11686TIP3    H134999   6.617   2.550   0.793
11686TIP3    H235000   6.528   2.485   0.897
11687TIP3   OH235001   0.819   7.047   2.840
11687TIP3    H135002   0.739   7.093   2.816
11687TIP3    H235003   0.818   6.968   2.786
11688TIP3   OH235004   7.920   2.579   4.152
11688TIP3    H135005   7.866   2.563   4.075
11688TIP3    H235006   7.962   2.495   4.170
11689TIP3   OH235007   8.244   4.205   0.534
11689TIP3    H135008   8.231   4.212   0.439
11689TIP3    H235009   8.250   4.296   0.564
11690TIP3   OH235010   7.835   0.501   6.553
11690TIP3    H135011   7.852   0.560   6.627
11690TIP3    H235012   7.740   0.504   6.542
11691TIP3   OH235013   2.421   3.950   2.469
11691TIP3    H135014   2.356   3.988   2.528
11691TIP3    H235015   2.463   3.882   2.521
11692TIP3   OH235016   6.583   6.793   3.959
11692TIP3    H135017   6.525   6.858   3.918
11692TIP3    H235018   6.650   6.846   4.002
11693TIP3   OH235019   7.179   3.184   4.946
11693TIP3    H135020   7.169   3.090   4.930
11693TIP3    H235021   7.103   3.224   4.903
11694TIP3   OH235022   1.455   3.901   2.903
11694TIP3    H135023   1.423   3.843   2.972
11694TIP3    H235024   1.541   3.930   2.934
11695TIP3   OH235025   6.574   5.853   4.090
11695TIP3    H135026   6.615   5.912   4.154
11695TIP3    H235027   6.495   5.900   4.063
11696TIP3   OH235028   1.687   0.779   2.085
11696TIP3    H135029   1.693   0.690   2.051
11696TIP3    H235030   1.775   0.814   2.077
11697TIP3   OH235031   1.011   7.887   1.143
11697TIP3    H135032   0.956   7.965   1.141
11697TIP3    H235033   1.097   7.917   1.115
11698TIP3   OH235034   7.090   3.524   5.091
11698TIP3    H135035   7.129   3.607   5.063
11698TIP3    H235036   7.013   3.549   5.142
11699TIP3   OH235037   2.841   7.771   4.337
11699TIP3    H135038   2.745   7.764   4.343
11699TIP3    H235039   2.863   7.850   4.385
11700TIP3   OH235040   2.473   2.098   6.497
11700TIP3    H135041   2.536   2.027   6.504
11700TIP3    H235042   2.479   2.143   6.582
11701TIP3   OH235043   8.257   7.183   4.403
11701TIP3    H135044   8.287   7.210   4.316
11701TIP3    H235045   8.163   7.164   4.391
11702TIP3   OH235046   0.513   4.131   2.506
11702TIP3    H135047   0.439   4.184   2.535
11702TIP3    H235048   0.588   4.166   2.553
11703TIP3   OH235049   6.912   2.489   0.845
11703TIP3    H135050   6.916   2.575   0.887
11703TIP3    H235051   6.825   2.456   0.867
11704TIP3   OH235052   3.854   1.359   5.875
11704TIP3    H135053   3.800   1.357   5.796
11704TIP3    H235054   3.940   1.329   5.845
11705TIP3   OH235055   7.711   5.703   6.463
11705TIP3    H135056   7.654   5.755   6.520
11705TIP3    H235057   7.654   5.634   6.429
11706TIP3   OH235058   3.947   0.268   1.207
11706TIP3    H135059   3.949   0.359   1.176
11706TIP3    H235060   3.920   0.275   1.299
11707TIP3   OH235061   5.608   4.013   1.309
11707TIP3    H135062   5.624   3.987   1.400
11707TIP3    H235063   5.696   4.034   1.275
11708TIP3   OH235064   2.289   3.843   0.001
11708TIP3    H135065   2.265   3.900  -0.072
11708TIP3    H235066   2.296   3.902   0.076
11709TIP3   OH235067   5.043   5.888   0.032
11709TIP3    H135068   4.990   5.857   0.105
11709TIP3    H235069   5.094   5.812   0.005
11710TIP3   OH235070   3.555   4.367   5.847
11710TIP3    H135071   3.488   4.430   5.823
11710TIP3    H235072   3.618   4.370   5.775
11711TIP3   OH235073   7.950   4.104   6.795
11711TIP3    H135074   7.918   4.096   6.705
11711TIP3    H235075   7.873   4.089   6.850
11712TIP3   OH235076   0.244   7.514   6.007
11712TIP3    H135077   0.236   7.470   6.091
11712TIP3    H235078   0.329   7.484   5.973
11713TIP3   OH235079   4.731   4.985   0.641
11713TIP3    H135080   4.749   5.075   0.613
11713TIP3    H235081   4.805   4.934   0.608
11714TIP3   OH235082   4.026   6.277   0.082
11714TIP3    H135083   3.973   6.356   0.068
11714TIP3    H235084   3.963   6.205   0.075
11715TIP3   OH235085   2.954   6.243   6.686
11715TIP3    H135086   2.910   6.166   6.650
11715TIP3    H235087   2.955   6.228   6.780
11716TIP3   OH235088   5.336   7.708   1.070
11716TIP3    H135089   5.364   7.623   1.105
11716TIP3    H235090   5.275   7.687   1.000
11717TIP3   OH235091   7.732   2.921   3.789
11717TIP3    H135092   7.679   2.841   3.783
11717TIP3    H235093   7.680   2.980   3.843
11718TIP3   OH235094   1.816   0.138   0.572
11718TIP3    H135095   1.807   0.152   0.477
11718TIP3    H235096   1.871   0.060   0.579
11719TIP3   OH235097   6.131   0.137   1.841
11719TIP3    H135098   6.216   0.103   1.868
11719TIP3    H235099   6.146   0.231   1.829
11720TIP3   OH235100   0.532   3.167   4.166
11720TIP3    H135101   0.512   3.260   4.158
11720TIP3    H235102   0.502   3.129   4.084
11721TIP3   OH235103   1.895   2.551   5.486
11721TIP3    H135104   1.847   2.469   5.470
11721TIP3    H235105   1.858   2.585   5.568
11722TIP3   OH235106   3.004   0.714   0.462
11722TIP3    H135107   3.056   0.757   0.394
11722TIP3    H235108   2.967   0.785   0.513
11723TIP3   OH235109   3.446   5.671   5.501
11723TIP3    H135110   3.510   5.724   5.548
11723TIP3    H235111   3.481   5.582   5.504
11724TIP3   OH235112   3.508   3.698   5.040
11724TIP3    H135113   3.589   3.670   5.083
11724TIP3    H235114   3.482   3.777   5.088
11725TIP3   OH235115   6.481   0.790   5.732
11725TIP3    H135116   6.536   0.787   5.810
11725TIP3    H235117   6.395   0.817   5.764
11726TIP3   OH235118   5.959   2.471   5.410
11726TIP3    H135119   5.878   2.420   5.417
11726TIP3    H235120   5.968   2.513   5.496
11727TIP3   OH235121   1.680   7.592   4.711
11727TIP3    H135122   1.717   7.648   4.778
11727TIP3    H235123   1.585   7.607   4.716
11728TIP3   OH235124   2.927   4.349   5.877
11728TIP3    H135125   2.958   4.319   5.791
11728TIP3    H235126   2.998   4.404   5.910
11729TIP3   OH235127   5.505   2.503   1.002
11729TIP3    H135128   5.477   2.527   0.913
11729TIP3    H235129   5.424   2.488   1.050
11730TIP3   OH235130   7.785   4.754   0.575
11730TIP3    H135131   7.836   4.680   0.606
11730TIP3    H235132   7.697   4.719   0.560
11731TIP3   OH235133   1.490   0.166   1.642
11731TIP3    H135134   1.579   0.187   1.670
11731TIP3    H235135   1.484   0.071   1.651
11732TIP3   OH235136   2.745   5.982   5.603
11732TIP3    H135137   2.705   5.946   5.682
11732TIP3    H235138   2.697   5.941   5.531
11733TIP3   OH235139   1.208   0.237   0.551
11733TIP3    H135140   1.204   0.154   0.598
11733TIP3    H235141   1.134   0.234   0.490
11734TIP3   OH235142   5.927   5.194   3.565
11734TIP3    H135143   5.833   5.196   3.549
11734TIP3    H235144   5.945   5.103   3.592
11735TIP3   OH235145   3.739   5.474   1.393
11735TIP3    H135146   3.725   5.516   1.478
11735TIP3    H235147   3.832   5.448   1.394
11736TIP3   OH235148   8.107   6.701   4.060
11736TIP3    H135149   8.179   6.645   4.087
11736TIP3    H235150   8.039   6.685   4.125
11737TIP3   OH235151   6.034   0.493   1.913
11737TIP3    H135152   5.965   0.466   1.853
11737TIP3    H235153   6.092   0.547   1.858
11738TIP3   OH235154   4.743   4.348   5.105
11738TIP3    H135155   4.790   4.327   5.186
11738TIP3    H235156   4.658   4.382   5.135
11739TIP3   OH235157   3.219   4.056   6.137
11739TIP3    H135158   3.216   4.150   6.119
11739TIP3    H235159   3.147   4.041   6.198
11740TIP3   OH235160   1.177   3.097   0.277
11740TIP3    H135161   1.091   3.138   0.274
11740TIP3    H235162   1.159   3.003   0.278
11741TIP3   OH235163   5.203   4.724   1.831
11741TIP3    H135164   5.192   4.777   1.752
11741TIP3    H235165   5.169   4.638   1.807
11742TIP3   OH235166   6.664   0.745   5.099
11742TIP3    H135167   6.651   0.820   5.041
11742TIP3    H235168   6.715   0.683   5.046
11743TIP3   OH235169   7.802   4.943   2.347
11743TIP3    H135170   7.718   4.986   2.329
11743TIP3    H235171   7.812   4.881   2.276
11744TIP3   OH235172   0.426   7.706   5.355
11744TIP3    H135173   0.506   7.711   5.302
11744TIP3    H235174   0.360   7.751   5.302
11745TIP3   OH235175   7.238   4.626   0.941
11745TIP3    H135176   7.250   4.531   0.936
11745TIP3    H235177   7.220   4.642   1.034
11746TIP3   OH235178   2.836   7.868   4.020
11746TIP3    H135179   2.928   7.885   4.041
11746TIP3    H235180   2.834   7.777   3.990
11747TIP3   OH235181   5.956   1.553   1.577
11747TIP3    H135182   5.926   1.507   1.499
11747TIP3    H235183   6.001   1.630   1.543
11748TIP3   OH235184   4.013   6.613   5.578
11748TIP3    H135185   4.062   6.543   5.622
11748TIP3    H235186   3.936   6.626   5.633
11749TIP3   OH235187   2.291   7.849   1.288
11749TIP3    H135188   2.319   7.893   1.208
11749TIP3    H235189   2.220   7.791   1.259
11750TIP3   OH235190   3.496   1.557   6.794
11750TIP3    H135191   3.435   1.494   6.757
11750TIP3    H235192   3.449   1.640   6.791
11751TIP3   OH235193   7.675   3.386   0.748
11751TIP3    H135194   7.631   3.464   0.714
11751TIP3    H235195   7.698   3.336   0.670
11752TIP3   OH235196   1.645   6.856   5.551
11752TIP3    H135197   1.637   6.913   5.474
11752TIP3    H235198   1.588   6.782   5.532
11753TIP3   OH235199   3.290   6.359   6.201
11753TIP3    H135200   3.245   6.322   6.277
11753TIP3    H235201   3.253   6.312   6.126
11754TIP3   OH235202   0.196   6.554   2.796
11754TIP3    H135203   0.110   6.513   2.800
11754TIP3    H235204   0.182   6.644   2.825
11755TIP3   OH235205   8.271   0.663   4.368
11755TIP3    H135206   8.320   0.620   4.298
11755TIP3    H235207   8.316   0.636   4.449
11756TIP3   OH235208   2.371   5.396   2.117
11756TIP3    H135209   2.299   5.363   2.171
11756TIP3    H235210   2.448   5.348   2.148
11757TIP3   OH235211   2.628   5.789   1.681
11757TIP3    H135212   2.638   5.807   1.775
11757TIP3    H235213   2.546   5.741   1.674
11758TIP3   OH235214   2.370   4.699   0.171
11758TIP3    H135215   2.303   4.767   0.172
11758TIP3    H235216   2.391   4.687   0.078
11759TIP3   OH235217   0.257   6.234   1.913
11759TIP3    H135218   0.225   6.324   1.923
11759TIP3    H235219   0.218   6.187   1.987
11760TIP3   OH235220   4.165   1.113   4.754
11760TIP3    H135221   4.136   1.183   4.812
11760TIP3    H235222   4.153   1.033   4.805
11761TIP3   OH235223   5.077   4.180   2.735
11761TIP3    H135224   5.056   4.245   2.802
11761TIP3    H235225   5.166   4.202   2.707
11762TIP3   OH235226   1.444   4.943   3.564
11762TIP3    H135227   1.386   4.990   3.504
11762TIP3    H235228   1.391   4.927   3.642
11763TIP3   OH235229   5.737   2.315   5.440
11763TIP3    H135230   5.654   2.360   5.424
11763TIP3    H235231   5.717   2.251   5.508
11764TIP3   OH235232   6.671   0.976   4.964
11764TIP3    H135233   6.583   1.006   4.939
11764TIP3    H235234   6.729   1.016   4.899
11765TIP3   OH235235   8.325   6.719   0.846
11765TIP3    H135236   8.359   6.674   0.768
11765TIP3    H235237   8.370   6.678   0.919
11766TIP3   OH235238   1.213   2.508   2.881
11766TIP3    H135239   1.196   2.471   2.967
11766TIP3    H235240   1.176   2.597   2.886
11767TIP3   OH235241   5.271   4.496   5.422
11767TIP3    H135242   5.310   4.475   5.337
11767TIP3    H235243   5.330   4.562   5.460
11768TIP3   OH235244   6.668   2.432   5.959
11768TIP3    H135245   6.624   2.389   6.032
11768TIP3    H235246   6.598   2.474   5.909
11769TIP3   OH235247   6.102   3.108   0.337
11769TIP3    H135248   6.082   3.019   0.368
11769TIP3    H235249   6.186   3.129   0.377
11770TIP3   OH235250   5.547   6.206   2.276
11770TIP3    H135251   5.618   6.149   2.306
11770TIP3    H235252   5.586   6.258   2.206
11771TIP3   OH235253   1.331   5.585   0.851
11771TIP3    H135254   1.285   5.505   0.875
11771TIP3    H235255   1.275   5.626   0.784
11772TIP3   OH235256   1.589   7.264   0.172
11772TIP3    H135257   1.626   7.246   0.258
11772TIP3    H235258   1.501   7.298   0.189
11773TIP3   OH235259   5.417   1.381   4.028
11773TIP3    H135260   5.480   1.426   4.085
11773TIP3    H235261   5.464   1.303   3.998
11774TIP3   OH235262   1.507   4.045   3.817
11774TIP3    H135263   1.450   3.969   3.808
11774TIP3    H235264   1.513   4.059   3.912
11775TIP3   OH235265   0.845   4.050   2.385
11775TIP3    H135266   0.937   4.068   2.364
11775TIP3    H235267   0.822   4.116   2.451
11776TIP3   OH235268   4.471   1.460   1.035
11776TIP3    H135269   4.537   1.409   1.082
11776TIP3    H235270   4.521   1.515   0.975
11777TIP3   OH235271   7.905   7.105   3.774
11777TIP3    H135272   7.989   7.116   3.817
11777TIP3    H235273   7.924   7.118   3.681
11778TIP3   OH235274   1.329   4.119   2.707
11778TIP3    H135275   1.418   4.114   2.674
11778TIP3    H235276   1.285   4.182   2.649
11779TIP3   OH235277   2.439   0.663   6.845
11779TIP3    H135278   2.402   0.707   6.769
11779TIP3    H235279   2.369   0.607   6.877
11780TIP3   OH235280   0.205   7.778   2.034
11780TIP3    H135281   0.147   7.706   2.011
11780TIP3    H235282   0.257   7.793   1.955
11781TIP3   OH235283   7.441   0.051   3.917
11781TIP3    H135284   7.391   0.115   3.866
11781TIP3    H235285   7.378  -0.016   3.942
11782TIP3   OH235286   5.779   6.774   1.516
11782TIP3    H135287   5.692   6.767   1.479
11782TIP3    H235288   5.834   6.803   1.443
11783TIP3   OH235289   4.899   4.728   2.835
11783TIP3    H135290   4.943   4.699   2.915
11783TIP3    H235291   4.958   4.795   2.799
11784TIP3   OH235292   4.576   0.776   1.439
11784TIP3    H135293   4.535   0.749   1.521
11784TIP3    H235294   4.669   0.761   1.453
11785TIP3   OH235295   6.756   1.987   5.385
11785TIP3    H135296   6.750   2.078   5.357
11785TIP3    H235297   6.798   1.942   5.312
11786TIP3   OH235298   3.316   6.892   5.783
11786TIP3    H135299   3.357   6.884   5.697
11786TIP3    H235300   3.385   6.868   5.844
11787TIP3   OH235301   8.211   6.433   5.137
11787TIP3    H135302   8.172   6.435   5.049
11787TIP3    H235303   8.176   6.512   5.179
11788TIP3   OH235304   1.767   6.055   5.459
11788TIP3    H135305   1.844   6.109   5.476
11788TIP3    H235306   1.699   6.117   5.430
11789TIP3   OH235307   4.375   5.123   0.171
11789TIP3    H135308   4.285   5.099   0.149
11789TIP3    H235309   4.429   5.074   0.109
11790TIP3   OH235310   6.597   3.524   0.200
11790TIP3    H135311   6.605   3.442   0.151
11790TIP3    H235312   6.684   3.540   0.236
11791TIP3   OH235313   3.860   4.153   5.141
11791TIP3    H135314   3.833   4.097   5.214
11791TIP3    H235315   3.783   4.208   5.124
11792TIP3   OH235316   2.525   6.244   5.047
11792TIP3    H135317   2.497   6.189   5.121
11792TIP3    H235318   2.484   6.329   5.064
11793TIP3   OH235319   7.273   5.477   6.088
11793TIP3    H135320   7.188   5.498   6.049
11793TIP3    H235321   7.297   5.556   6.137
11794TIP3   OH235322   5.090   1.950   2.852
11794TIP3    H135323   5.096   1.855   2.861
11794TIP3    H235324   5.155   1.971   2.784
11795TIP3   OH235325   4.039   1.037   5.245
11795TIP3    H135326   4.018   0.946   5.225
11795TIP3    H235327   4.134   1.039   5.254
11796TIP3   OH235328   6.545   2.641   4.890
11796TIP3    H135329   6.604   2.612   4.960
11796TIP3    H235330   6.472   2.579   4.893
11797TIP3   OH235331   3.788   0.827   3.220
11797TIP3    H135332   3.751   0.793   3.302
11797TIP3    H235333   3.732   0.901   3.197
11798TIP3   OH235334   6.745   5.640   1.880
11798TIP3    H135335   6.787   5.686   1.953
11798TIP3    H235336   6.654   5.667   1.884
11799TIP3   OH235337   7.240   1.703   3.946
11799TIP3    H135338   7.224   1.623   3.996
11799TIP3    H235339   7.185   1.769   3.988
11800TIP3   OH235340   0.212   5.339   2.831
11800TIP3    H135341   0.206   5.409   2.897
11800TIP3    H235342   0.135   5.351   2.776
11801TIP3   OH235343   8.131   4.212   5.994
11801TIP3    H135344   8.163   4.300   5.977
11801TIP3    H235345   8.163   4.160   5.920
11802TIP3   OH235346   1.094   3.625   6.874
11802TIP3    H135347   1.155   3.666   6.812
11802TIP3    H235348   1.035   3.696   6.900
11803TIP3   OH235349   8.097   0.864   4.413
11803TIP3    H135350   8.169   0.917   4.379
11803TIP3    H235351   8.134   0.775   4.420
11804TIP3   OH235352   0.581   1.036   2.423
11804TIP3    H135353   0.494   1.013   2.456
11804TIP3    H235354   0.641   1.013   2.494
11805TIP3   OH235355   5.544   5.047   4.933
11805TIP3    H135356   5.518   5.031   5.023
11805TIP3    H235357   5.487   5.118   4.904
11806TIP3   OH235358   5.898   1.010   2.155
11806TIP3    H135359   5.909   1.019   2.250
11806TIP3    H235360   5.804   1.021   2.141
11807TIP3   OH235361   6.167   0.651   1.107
11807TIP3    H135362   6.167   0.556   1.092
11807TIP3    H235363   6.167   0.690   1.020
11808TIP3   OH235364   7.922   7.332   4.462
11808TIP3    H135365   7.991   7.363   4.521
11808TIP3    H235366   7.954   7.246   4.433
11809TIP3   OH235367   3.909   6.928   4.939
11809TIP3    H135368   3.934   6.947   5.030
11809TIP3    H235369   3.838   6.864   4.946
11810TIP3   OH235370   6.888   5.672   0.753
11810TIP3    H135371   6.866   5.669   0.846
11810TIP3    H235372   6.844   5.750   0.721
11811TIP3   OH235373   4.092   3.786   2.824
11811TIP3    H135374   4.021   3.846   2.803
11811TIP3    H235375   4.111   3.741   2.742
11812TIP3   OH235376   1.048   1.082   3.369
11812TIP3    H135377   1.110   1.152   3.390
11812TIP3    H235378   1.091   1.032   3.299
11813TIP3   OH235379   4.300   5.084   4.517
11813TIP3    H135380   4.230   5.102   4.454
11813TIP3    H235381   4.378   5.067   4.463
11814TIP3   OH235382   7.385   6.264   2.367
11814TIP3    H135383   7.420   6.176   2.354
11814TIP3    H235384   7.303   6.251   2.414
11815TIP3   OH235385   3.320   4.048   5.424
11815TIP3    H135386   3.371   4.127   5.405
11815TIP3    H235387   3.345   4.025   5.513
11816TIP3   OH235388   0.248   3.555   5.030
11816TIP3    H135389   0.170   3.516   4.992
11816TIP3    H235390   0.248   3.645   4.998
11817TIP3   OH235391   2.207   2.009   1.139
11817TIP3    H135392   2.232   1.955   1.213
11817TIP3    H235393   2.196   2.097   1.176
11818TIP3   OH235394   4.691   7.581   5.812
11818TIP3    H135395   4.668   7.649   5.749
11818TIP3    H235396   4.689   7.625   5.897
11819TIP3   OH235397   3.351   7.399   1.934
11819TIP3    H135398   3.338   7.307   1.955
11819TIP3    H235399   3.264   7.439   1.946
11820TIP3   OH235400   3.945   1.666   4.302
11820TIP3    H135401   3.849   1.663   4.294
11820TIP3    H235402   3.962   1.750   4.344
11821TIP3   OH235403   5.661   4.887   1.924
11821TIP3    H135404   5.710   4.921   1.850
11821TIP3    H235405   5.705   4.805   1.947
11822TIP3   OH235406   2.950   4.781   1.330
11822TIP3    H135407   2.932   4.749   1.418
11822TIP3    H235408   3.025   4.730   1.300
11823TIP3   OH235409   0.950   6.790   1.331
11823TIP3    H135410   0.956   6.701   1.367
11823TIP3    H235411   0.908   6.777   1.245
11824TIP3   OH235412   8.127   7.368   4.126
11824TIP3    H135413   8.207   7.321   4.148
11824TIP3    H235414   8.142   7.403   4.039
11825TIP3   OH235415   4.991   0.368   5.249
11825TIP3    H135416   5.007   0.279   5.280
11825TIP3    H235417   4.896   0.375   5.247
11826TIP3   OH235418   5.089   2.867   4.842
11826TIP3    H135419   5.027   2.813   4.793
11826TIP3    H235420   5.167   2.813   4.850
11827TIP3   OH235421   7.763   2.438   6.639
11827TIP3    H135422   7.674   2.465   6.663
11827TIP3    H235423   7.750   2.374   6.569
11828TIP3   OH235424   3.645   5.150   2.854
11828TIP3    H135425   3.572   5.167   2.913
11828TIP3    H235426   3.618   5.073   2.804
11829TIP3   OH235427   6.640   7.800   2.864
11829TIP3    H135428   6.730   7.771   2.873
11829TIP3    H235429   6.632   7.825   2.771
11830TIP3   OH235430   5.788   7.071   5.533
11830TIP3    H135431   5.740   7.003   5.485
11830TIP3    H235432   5.764   7.057   5.624
11831TIP3   OH235433   4.608   2.983   5.958
11831TIP3    H135434   4.520   3.020   5.971
11831TIP3    H235435   4.624   2.992   5.864
11832TIP3   OH235436   3.025   3.118   5.731
11832TIP3    H135437   2.947   3.104   5.784
11832TIP3    H235438   3.090   3.153   5.792
11833TIP3   OH235439   6.786   2.757   0.197
11833TIP3    H135440   6.774   2.783   0.106
11833TIP3    H235441   6.727   2.813   0.247
11834TIP3   OH235442   3.902   7.903   4.579
11834TIP3    H135443   3.868   7.814   4.593
11834TIP3    H235444   3.902   7.914   4.484
11835TIP3   OH235445   2.089   7.892   1.690
11835TIP3    H135446   2.177   7.860   1.711
11835TIP3    H235447   2.036   7.813   1.685
11836TIP3   OH235448   5.182   3.083   5.324
11836TIP3    H135449   5.116   3.026   5.364
11836TIP3    H235450   5.177   3.064   5.231
11837TIP3   OH235451   5.720   4.916   2.303
11837TIP3    H135452   5.759   4.921   2.389
11837TIP3    H235453   5.625   4.919   2.319
11838TIP3   OH235454   7.678   4.878   5.973
11838TIP3    H135455   7.728   4.959   5.977
11838TIP3    H235456   7.606   4.897   5.913
11839TIP3   OH235457   2.406   7.079   4.805
11839TIP3    H135458   2.413   7.014   4.875
11839TIP3    H235459   2.395   7.027   4.725
11840TIP3   OH235460   0.957   2.497   1.551
11840TIP3    H135461   0.924   2.495   1.641
11840TIP3    H235462   1.013   2.419   1.545
11841TIP3   OH235463   4.941   5.821   3.006
11841TIP3    H135464   4.980   5.734   2.995
11841TIP3    H235465   4.972   5.871   2.931
11842TIP3   OH235466   5.106   2.925   1.097
11842TIP3    H135467   5.161   2.983   1.148
11842TIP3    H235468   5.166   2.861   1.059
11843TIP3   OH235469   5.817   2.368   3.295
11843TIP3    H135470   5.726   2.349   3.318
11843TIP3    H235471   5.856   2.282   3.279
11844TIP3   OH235472   3.502   6.023   5.195
11844TIP3    H135473   3.541   5.936   5.187
11844TIP3    H235474   3.455   6.020   5.279
11845TIP3   OH235475   7.934   0.300   3.135
11845TIP3    H135476   7.985   0.294   3.216
11845TIP3    H235477   7.960   0.384   3.097
11846TIP3   OH235478   3.722   4.431   6.844
11846TIP3    H135479   3.735   4.460   6.754
11846TIP3    H235480   3.739   4.337   6.842
11847TIP3   OH235481   5.893   2.028   5.691
11847TIP3    H135482   5.945   2.093   5.740
11847TIP3    H235483   5.959   1.971   5.651
11848TIP3   OH235484   7.228   0.080   1.170
11848TIP3    H135485   7.274   0.162   1.153
11848TIP3    H235486   7.286   0.012   1.135
11849TIP3   OH235487   3.015   4.969   0.561
11849TIP3    H135488   2.957   4.893   0.562
11849TIP3    H235489   3.102   4.932   0.548
11850TIP3   OH235490   1.198   2.353   4.020
11850TIP3    H135491   1.265   2.374   3.955
11850TIP3    H235492   1.133   2.301   3.971
11851TIP3   OH235493   5.001   6.692   0.640
11851TIP3    H135494   4.938   6.735   0.582
11851TIP3    H235495   5.080   6.685   0.587
11852TIP3   OH235496   5.967   0.685   6.118
11852TIP3    H135497   5.921   0.621   6.064
11852TIP3    H235498   6.009   0.634   6.187
11853TIP3   OH235499   1.254   1.286   3.391
11853TIP3    H135500   1.284   1.353   3.329
11853TIP3    H235501   1.226   1.336   3.468
11854TIP3   OH235502   1.884   2.552   0.547
11854TIP3    H135503   1.923   2.512   0.624
11854TIP3    H235504   1.958   2.571   0.489
11855TIP3   OH235505   7.358   5.513   5.194
11855TIP3    H135506   7.304   5.507   5.273
11855TIP3    H235507   7.431   5.568   5.220
11856TIP3   OH235508   0.630   6.386   1.504
11856TIP3    H135509   0.546   6.424   1.478
11856TIP3    H235510   0.622   6.293   1.483
11857TIP3   OH235511   0.311   2.867   2.533
11857TIP3    H135512   0.236   2.888   2.477
11857TIP3    H235513   0.293   2.912   2.616
11858TIP3   OH235514   8.250   1.427   0.548
11858TIP3    H135515   8.196   1.506   0.548
11858TIP3    H235516   8.257   1.404   0.641
11859TIP3   OH235517   6.482   6.730   4.423
11859TIP3    H135518   6.565   6.767   4.454
11859TIP3    H235519   6.437   6.804   4.382
11860TIP3   OH235520   1.463   1.601   3.053
11860TIP3    H135521   1.492   1.532   3.113
11860TIP3    H235522   1.472   1.562   2.966
11861TIP3   OH235523   1.407   6.353   3.483
11861TIP3    H135524   1.463   6.350   3.560
11861TIP3    H235525   1.348   6.427   3.498
11862TIP3   OH235526   2.730  -0.012   3.646
11862TIP3    H135527   2.754   0.044   3.572
11862TIP3    H235528   2.635  -0.001   3.655
11863TIP3   OH235529   7.399   3.668   1.067
11863TIP3    H135530   7.374   3.585   1.107
11863TIP3    H235531   7.335   3.682   0.997
11864TIP3   OH235532   3.480   3.624   5.774
11864TIP3    H135533   3.440   3.685   5.711
11864TIP3    H235534   3.432   3.639   5.855
11865TIP3   OH235535   0.644   5.141   0.136
11865TIP3    H135536   0.580   5.210   0.115
11865TIP3    H235537   0.629   5.074   0.069
11866TIP3   OH235538   6.893   2.333   2.502
11866TIP3    H135539   6.848   2.272   2.443
11866TIP3    H235540   6.852   2.319   2.587
11867TIP3   OH235541   1.291   7.695   5.672
11867TIP3    H135542   1.252   7.614   5.706
11867TIP3    H235543   1.228   7.727   5.608
11868TIP3   OH235544   5.064   1.342   2.236
11868TIP3    H135545   5.015   1.361   2.157
11868TIP3    H235546   5.149   1.386   2.223
11869TIP3   OH235547   4.100   4.199   4.754
11869TIP3    H135548   4.164   4.160   4.694
11869TIP3    H235549   4.026   4.224   4.697
11870TIP3   OH235550   1.803   7.720   3.092
11870TIP3    H135551   1.803   7.657   3.164
11870TIP3    H235552   1.710   7.735   3.073
11871TIP3   OH235553   1.892   2.886   2.876
11871TIP3    H135554   1.933   2.969   2.850
11871TIP3    H235555   1.831   2.910   2.945
11872TIP3   OH235556   0.998   2.045   6.543
11872TIP3    H135557   0.961   2.013   6.625
11872TIP3    H235558   0.923   2.078   6.493
11873TIP3   OH235559   6.225   0.973   2.281
11873TIP3    H135560   6.281   0.896   2.270
11873TIP3    H235561   6.229   1.018   2.197
11874TIP3   OH235562   1.044   4.641   6.173
11874TIP3    H135563   1.058   4.556   6.130
11874TIP3    H235564   0.970   4.626   6.232
11875TIP3   OH235565   4.290   1.572   2.930
11875TIP3    H135566   4.234   1.495   2.940
11875TIP3    H235567   4.361   1.542   2.874
11876TIP3   OH235568   6.698   3.455   5.630
11876TIP3    H135569   6.746   3.439   5.711
11876TIP3    H235570   6.706   3.549   5.615
11877TIP3   OH235571   0.345   7.255   2.501
11877TIP3    H135572   0.400   7.290   2.431
11877TIP3    H235573   0.401   7.255   2.578
11878TIP3   OH235574   0.352   7.279   1.818
11878TIP3    H135575   0.258   7.273   1.801
11878TIP3    H235576   0.380   7.357   1.770
11879TIP3   OH235577   2.568   6.731   6.562
11879TIP3    H135578   2.631   6.757   6.495
11879TIP3    H235579   2.618   6.674   6.621
11880TIP3   OH235580   3.047   5.509   1.086
11880TIP3    H135581   3.002   5.589   1.113
11880TIP3    H235582   2.982   5.440   1.095
11881TIP3   OH235583   3.777   2.659   4.252
11881TIP3    H135584   3.865   2.691   4.231
11881TIP3    H235585   3.727   2.669   4.171
11882TIP3   OH235586   0.384   1.051   5.523
11882TIP3    H135587   0.317   0.996   5.483
11882TIP3    H235588   0.430   0.993   5.583
11883TIP3   OH235589   4.249   2.152   1.983
11883TIP3    H135590   4.175   2.121   2.035
11883TIP3    H235591   4.209   2.210   1.918
11884TIP3   OH235592   0.047   4.921   3.408
11884TIP3    H135593  -0.037   4.959   3.435
11884TIP3    H235594   0.051   4.838   3.454
11885TIP3   OH235595   8.379   1.632   6.628
11885TIP3    H135596   8.338   1.547   6.619
11885TIP3    H235597   8.470   1.618   6.601
11886TIP3   OH235598   3.580   4.767   0.717
11886TIP3    H135599   3.637   4.751   0.792
11886TIP3    H235600   3.520   4.835   0.746
11887TIP3   OH235601   5.641   1.547   4.142
11887TIP3    H135602   5.681   1.559   4.228
11887TIP3    H235603   5.692   1.602   4.084
11888TIP3   OH235604   2.198   0.181   4.654
11888TIP3    H135605   2.236   0.094   4.653
11888TIP3    H235606   2.188   0.204   4.562
11889TIP3   OH235607   4.443   2.007   3.690
11889TIP3    H135608   4.350   2.024   3.681
11889TIP3    H235609   4.461   2.019   3.783
11890TIP3   OH235610   4.709   1.451   4.768
11890TIP3    H135611   4.682   1.386   4.703
11890TIP3    H235612   4.661   1.427   4.847
11891TIP3   OH235613   5.159   1.670   2.856
11891TIP3    H135614   5.103   1.592   2.855
11891TIP3    H235615   5.195   1.673   2.945
11892TIP3   OH235616   2.032   5.521   1.527
11892TIP3    H135617   1.941   5.500   1.504
11892TIP3    H235618   2.025   5.565   1.612
11893TIP3   OH235619   8.029   6.882   2.809
11893TIP3    H135620   8.086   6.881   2.732
11893TIP3    H235621   8.078   6.836   2.877
11894TIP3   OH235622   2.568   0.232   4.679
11894TIP3    H135623   2.484   0.232   4.633
11894TIP3    H235624   2.632   0.203   4.613
11895TIP3   OH235625   4.145   0.502   0.656
11895TIP3    H135626   4.176   0.411   0.657
11895TIP3    H235627   4.098   0.512   0.739
11896TIP3   OH235628   6.582   2.338   5.560
11896TIP3    H135629   6.678   2.331   5.564
11896TIP3    H235630   6.551   2.250   5.582
11897TIP3   OH235631   4.838   7.656   4.170
11897TIP3    H135632   4.746   7.629   4.171
11897TIP3    H235633   4.835   7.750   4.183
11898TIP3   OH235634   3.013   2.056   6.497
11898TIP3    H135635   3.095   2.095   6.527
11898TIP3    H235636   2.964   2.129   6.458
11899TIP3   OH235637   2.810   7.163   0.421
11899TIP3    H135638   2.746   7.175   0.351
11899TIP3    H235639   2.758   7.150   0.500
11900TIP3   OH235640   3.304   2.499   1.563
11900TIP3    H135641   3.259   2.578   1.535
11900TIP3    H235642   3.262   2.428   1.514
11901TIP3   OH235643   1.758   5.281   4.392
11901TIP3    H135644   1.836   5.255   4.440
11901TIP3    H235645   1.716   5.346   4.447
11902TIP3   OH235646   3.269   5.897   3.237
11902TIP3    H135647   3.274   5.979   3.285
11902TIP3    H235648   3.356   5.858   3.246
11903TIP3   OH235649   2.962   2.334   4.982
11903TIP3    H135650   2.949   2.352   5.075
11903TIP3    H235651   2.900   2.391   4.938
11904TIP3   OH235652   6.262   3.322   2.235
11904TIP3    H135653   6.251   3.267   2.157
11904TIP3    H235654   6.248   3.262   2.308
11905TIP3   OH235655   4.503   1.563   0.758
11905TIP3    H135656   4.504   1.468   0.755
11905TIP3    H235657   4.590   1.589   0.729
11906TIP3   OH235658   1.788   2.601   3.614
11906TIP3    H135659   1.778   2.593   3.519
11906TIP3    H235660   1.864   2.658   3.625
11907TIP3   OH235661   5.566   0.320   2.576
11907TIP3    H135662   5.543   0.286   2.490
11907TIP3    H235663   5.483   0.328   2.622
11908TIP3   OH235664   7.919   3.007   1.024
11908TIP3    H135665   7.967   3.066   1.082
11908TIP3    H235666   7.850   3.061   0.985
11909TIP3   OH235667   5.234   5.979   5.813
11909TIP3    H135668   5.233   6.075   5.815
11909TIP3    H235669   5.290   5.958   5.738
11910TIP3   OH235670   3.657   7.228   4.906
11910TIP3    H135671   3.687   7.240   4.997
11910TIP3    H235672   3.633   7.136   4.901
11911TIP3   OH235673   7.330   0.115   3.647
11911TIP3    H135674   7.424   0.125   3.658
11911TIP3    H235675   7.299   0.199   3.615
11912TIP3   OH235676   4.421   7.678   2.917
11912TIP3    H135677   4.366   7.604   2.891
11912TIP3    H235678   4.499   7.636   2.956
11913TIP3   OH235679   4.564   6.874   5.314
11913TIP3    H135680   4.621   6.798   5.318
11913TIP3    H235681   4.482   6.846   5.355
11914TIP3   OH235682   0.895   2.303   2.375
11914TIP3    H135683   0.964   2.361   2.341
11914TIP3    H235684   0.942   2.225   2.403
11915TIP3   OH235685   4.103   0.400   3.682
11915TIP3    H135686   4.194   0.401   3.713
11915TIP3    H235687   4.059   0.340   3.742
11916TIP3   OH235688   3.096   1.000   6.338
11916TIP3    H135689   3.019   1.056   6.326
11916TIP3    H235690   3.121   0.975   6.249
11917TIP3   OH235691   2.481   2.766   5.648
11917TIP3    H135692   2.399   2.815   5.644
11917TIP3    H235693   2.548   2.833   5.663
11918TIP3   OH235694   6.853   3.678   0.208
11918TIP3    H135695   6.818   3.766   0.221
11918TIP3    H235696   6.923   3.670   0.273
11919TIP3   OH235697   0.363   0.970   2.568
11919TIP3    H135698   0.325   1.039   2.622
11919TIP3    H235699   0.298   0.954   2.499
11920TIP3   OH235700   6.380   5.407   5.821
11920TIP3    H135701   6.379   5.313   5.802
11920TIP3    H235702   6.300   5.422   5.871
11921TIP3   OH235703   5.930   3.614  -0.003
11921TIP3    H135704   6.019   3.640  -0.026
11921TIP3    H235705   5.873   3.667  -0.058
11922TIP3   OH235706   7.522   4.679   5.198
11922TIP3    H135707   7.610   4.650   5.223
11922TIP3    H235708   7.525   4.774   5.206
11923TIP3   OH235709   1.763   1.047   3.452
11923TIP3    H135710   1.708   1.002   3.388
11923TIP3    H235711   1.721   1.132   3.464
11924TIP3   OH235712   7.948   1.536   5.738
11924TIP3    H135713   7.952   1.454   5.689
11924TIP3    H235714   7.901   1.515   5.819
11925TIP3   OH235715   6.047   5.416   5.283
11925TIP3    H135716   5.994   5.480   5.329
11925TIP3    H235717   5.991   5.338   5.276
11926TIP3   OH235718   2.475   4.573   3.773
11926TIP3    H135719   2.564   4.608   3.783
11926TIP3    H235720   2.427   4.609   3.848
11927TIP3   OH235721   1.987   5.205   3.628
11927TIP3    H135722   2.015   5.120   3.596
11927TIP3    H235723   1.892   5.199   3.634
11928TIP3   OH235724   6.090   4.241   3.858
11928TIP3    H135725   6.130   4.196   3.783
11928TIP3    H235726   6.153   4.310   3.881
11929TIP3   OH235727   5.082   3.367   4.472
11929TIP3    H135728   5.034   3.354   4.391
11929TIP3    H235729   5.081   3.462   4.486
11930TIP3   OH235730   2.353   7.332   5.855
11930TIP3    H135731   2.438   7.361   5.888
11930TIP3    H235732   2.292   7.401   5.882
11931TIP3   OH235733   7.377   7.048   6.640
11931TIP3    H135734   7.400   7.046   6.733
11931TIP3    H235735   7.461   7.048   6.595
11932TIP3   OH235736   8.111   5.351   3.534
11932TIP3    H135737   8.189   5.309   3.497
11932TIP3    H235738   8.041   5.330   3.473
11933TIP3   OH235739   1.214   1.290   4.320
11933TIP3    H135740   1.176   1.211   4.284
11933TIP3    H235741   1.304   1.290   4.288
11934TIP3   OH235742   5.684   2.704   4.060
11934TIP3    H135743   5.620   2.727   4.128
11934TIP3    H235744   5.658   2.757   3.985
11935TIP3   OH235745   0.698   7.384   6.177
11935TIP3    H135746   0.636   7.332   6.227
11935TIP3    H235747   0.717   7.460   6.232
11936TIP3   OH235748   6.226   5.927   4.196
11936TIP3    H135749   6.138   5.909   4.164
11936TIP3    H235750   6.214   5.968   4.281
11937TIP3   OH235751   6.081   0.577   4.018
11937TIP3    H135752   6.146   0.578   3.948
11937TIP3    H235753   6.096   0.493   4.063
11938TIP3   OH235754   6.009   0.405   3.835
11938TIP3    H135755   5.985   0.482   3.885
11938TIP3    H235756   6.003   0.332   3.897
11939TIP3   OH235757   0.356   6.489   5.483
11939TIP3    H135758   0.418   6.426   5.520
11939TIP3    H235759   0.331   6.452   5.398
11940TIP3   OH235760   3.525   3.896   2.712
11940TIP3    H135761   3.566   3.812   2.736
11940TIP3    H235762   3.572   3.924   2.633
11941TIP3   OH235763   4.549   6.755   0.967
11941TIP3    H135764   4.636   6.770   1.004
11941TIP3    H235765   4.489   6.771   1.040
11942TIP3   OH235766   7.719  -0.087   3.225
11942TIP3    H135767   7.709  -0.067   3.318
11942TIP3    H235768   7.667  -0.020   3.180
11943TIP3   OH235769   8.258   1.033   3.693
11943TIP3    H135770   8.212   0.977   3.755
11943TIP3    H235771   8.248   0.989   3.608
11944TIP3   OH235772   1.641   2.409   1.546
11944TIP3    H135773   1.613   2.398   1.637
11944TIP3    H235774   1.581   2.474   1.510
11945TIP3   OH235775   2.885   1.655   0.781
11945TIP3    H135776   2.873   1.749   0.765
11945TIP3    H235777   2.873   1.615   0.695
11946TIP3   OH235778   5.329   4.905   5.983
11946TIP3    H135779   5.277   4.894   6.063
11946TIP3    H235780   5.357   4.996   5.985
11947TIP3   OH235781   5.439   6.086   3.807
11947TIP3    H135782   5.360   6.135   3.831
11947TIP3    H235783   5.486   6.144   3.747
11948TIP3   OH235784   4.817   7.807   2.716
11948TIP3    H135785   4.886   7.783   2.654
11948TIP3    H235786   4.847   7.773   2.800
11949TIP3   OH235787   0.834   4.268   1.125
11949TIP3    H135788   0.860   4.180   1.099
11949TIP3    H235789   0.821   4.314   1.042
11950TIP3   OH235790   0.530   2.795   1.261
11950TIP3    H135791   0.624   2.778   1.260
11950TIP3    H235792   0.498   2.748   1.339
11951TIP3   OH235793   0.792   4.240   5.521
11951TIP3    H135794   0.795   4.147   5.540
11951TIP3    H235795   0.723   4.250   5.456
11952TIP3   OH235796   0.166   4.100   4.972
11952TIP3    H135797   0.243   4.138   5.014
11952TIP3    H235798   0.155   4.150   4.891
11953TIP3   OH235799   1.174   3.473   4.537
11953TIP3    H135800   1.143   3.447   4.451
11953TIP3    H235801   1.160   3.396   4.593
11954TIP3   OH235802   0.803   3.192   5.346
11954TIP3    H135803   0.839   3.134   5.279
11954TIP3    H235804   0.730   3.237   5.303
11955TIP3   OH235805   5.973   7.498   6.420
11955TIP3    H135806   6.040   7.560   6.390
11955TIP3    H235807   5.979   7.501   6.516
11956TIP3   OH235808   7.210   3.625   1.442
11956TIP3    H135809   7.266   3.590   1.511
11956TIP3    H235810   7.149   3.683   1.489
11957TIP3   OH235811   0.999   1.330   0.358
11957TIP3    H135812   1.087   1.313   0.391
11957TIP3    H235813   0.941   1.287   0.420
11958TIP3   OH235814   3.342   1.954   3.129
11958TIP3    H135815   3.306   1.927   3.214
11958TIP3    H235816   3.345   1.873   3.078
11959TIP3   OH235817   1.678   7.787   5.474
11959TIP3    H135818   1.650   7.702   5.508
11959TIP3    H235819   1.596   7.831   5.450
11960TIP3   OH235820   7.035   3.693   3.058
11960TIP3    H135821   7.122   3.728   3.042
11960TIP3    H235822   7.032   3.675   3.151
11961TIP3   OH235823   0.903   1.436   4.683
11961TIP3    H135824   0.948   1.360   4.648
11961TIP3    H235825   0.961   1.470   4.751
11962TIP3   OH235826   3.722   3.072   0.451
11962TIP3    H135827   3.680   3.101   0.370
11962TIP3    H235828   3.650   3.058   0.512
11963TIP3   OH235829   5.138   7.213   4.331
11963TIP3    H135830   5.179   7.159   4.263
11963TIP3    H235831   5.086   7.276   4.282
11964TIP3   OH235832   0.096   2.329   2.972
11964TIP3    H135833   0.050   2.312   2.890
11964TIP3    H235834   0.060   2.266   3.034
11965TIP3   OH235835   6.072   5.252   2.801
11965TIP3    H135836   6.104   5.232   2.889
11965TIP3    H235837   6.147   5.233   2.744
11966TIP3   OH235838   1.754   4.719   2.592
11966TIP3    H135839   1.778   4.627   2.600
11966TIP3    H235840   1.714   4.726   2.505
11967TIP3   OH235841   0.101   2.517   6.425
11967TIP3    H135842   0.142   2.431   6.427
11967TIP3    H235843   0.161   2.573   6.475
11968TIP3   OH235844   8.099   1.841   4.453
11968TIP3    H135845   8.075   1.860   4.543
11968TIP3    H235846   8.153   1.915   4.426
11969TIP3   OH235847   6.034   4.713   2.756
11969TIP3    H135848   6.111   4.664   2.786
11969TIP3    H235849   5.971   4.704   2.828
11970TIP3   OH235850   8.377   6.379   3.892
11970TIP3    H135851   8.311   6.369   3.824
11970TIP3    H235852   8.332   6.426   3.962
11971TIP3   OH235853   5.957   5.496   1.603
11971TIP3    H135854   5.946   5.402   1.589
11971TIP3    H235855   5.942   5.509   1.696
11972TIP3   OH235856   7.791   0.122   0.736
11972TIP3    H135857   7.792   0.028   0.720
11972TIP3    H235858   7.883   0.147   0.746
11973TIP3   OH235859   0.894   6.243   3.384
11973TIP3    H135860   0.920   6.151   3.377
11973TIP3    H235861   0.943   6.288   3.316
11974TIP3   OH235862   2.653   1.693   5.597
11974TIP3    H135863   2.733   1.666   5.554
11974TIP3    H235864   2.605   1.743   5.531
11975TIP3   OH235865   0.863   5.053   4.257
11975TIP3    H135866   0.792   5.115   4.237
11975TIP3    H235867   0.901   5.031   4.172
11976TIP3   OH235868   7.400   1.124   5.550
11976TIP3    H135869   7.355   1.181   5.488
11976TIP3    H235870   7.488   1.115   5.515
11977TIP3   OH235871   3.525   2.242   3.918
11977TIP3    H135872   3.474   2.246   3.838
11977TIP3    H235873   3.495   2.162   3.962
11978TIP3   OH235874   3.158   3.190   5.116
11978TIP3    H135875   3.235   3.230   5.075
11978TIP3    H235876   3.188   3.104   5.144
11979TIP3   OH235877   5.803   7.480   2.299
11979TIP3    H135878   5.853   7.420   2.353
11979TIP3    H235879   5.738   7.425   2.255
11980TIP3   OH235880   3.275   6.603   5.492
11980TIP3    H135881   3.191   6.604   5.447
11980TIP3    H235882   3.329   6.543   5.440
11981TIP3   OH235883   4.769   6.439   3.743
11981TIP3    H135884   4.685   6.397   3.723
11981TIP3    H235885   4.758   6.529   3.713
11982TIP3   OH235886   1.518   1.353   2.461
11982TIP3    H135887   1.455   1.418   2.433
11982TIP3    H235888   1.511   1.284   2.395
11983TIP3   OH235889   0.266   4.467   2.366
11983TIP3    H135890   0.227   4.513   2.440
11983TIP3    H235891   0.360   4.483   2.375
11984TIP3   OH235892   3.275   3.308   4.464
11984TIP3    H135893   3.181   3.315   4.484
11984TIP3    H235894   3.288   3.214   4.448
11985TIP3   OH235895   3.447   1.282   1.502
11985TIP3    H135896   3.496   1.364   1.508
11985TIP3    H235897   3.397   1.290   1.421
11986TIP3   OH235898   6.909   1.674   0.258
11986TIP3    H135899   6.888   1.675   0.351
11986TIP3    H235900   7.004   1.687   0.255
11987TIP3   OH235901   6.489   4.418   4.062
11987TIP3    H135902   6.575   4.458   4.078
11987TIP3    H235903   6.464   4.381   4.146
11988TIP3   OH235904   5.786   0.174   0.477
11988TIP3    H135905   5.820   0.100   0.527
11988TIP3    H235906   5.784   0.246   0.540
11989TIP3   OH235907   1.333   5.093   1.597
11989TIP3    H135908   1.297   5.174   1.632
11989TIP3    H235909   1.263   5.057   1.542
11990TIP3   OH235910   8.362   4.392   6.249
11990TIP3    H135911   8.285   4.427   6.204
11990TIP3    H235912   8.326   4.334   6.316
11991TIP3   OH235913   2.090   3.625  -0.027
11991TIP3    H135914   2.159   3.671   0.020
11991TIP3    H235915   2.105   3.532  -0.007
11992TIP3   OH235916   4.141   4.515   2.024
11992TIP3    H135917   4.219   4.541   2.074
11992TIP3    H235918   4.085   4.472   2.088
11993TIP3   OH235919   6.262   4.558   2.788
11993TIP3    H135920   6.314   4.559   2.869
11993TIP3    H235921   6.250   4.465   2.769
11994TIP3   OH235922   6.811   5.171   2.975
11994TIP3    H135923   6.755   5.198   2.903
11994TIP3    H235924   6.896   5.210   2.955
11995TIP3   OH235925   3.486   6.193   1.313
11995TIP3    H135926   3.466   6.197   1.406
11995TIP3    H235927   3.433   6.262   1.274
11996TIP3   OH235928   3.626   7.650   6.552
11996TIP3    H135929   3.667   7.566   6.532
11996TIP3    H235930   3.697   7.714   6.542
11997TIP3   OH235931   5.952   1.275   5.407
11997TIP3    H135932   6.023   1.213   5.426
11997TIP3    H235933   5.971   1.351   5.461
11998TIP3   OH235934   2.828   0.275   5.830
11998TIP3    H135935   2.907   0.278   5.777
11998TIP3    H235936   2.858   0.252   5.918
11999TIP3   OH235937   3.232   7.099   2.697
11999TIP3    H135938   3.237   7.028   2.761
11999TIP3    H235939   3.232   7.179   2.749
12000TIP3   OH235940   5.045   1.297   3.910
12000TIP3    H135941   5.118   1.248   3.948
12000TIP3    H235942   5.067   1.304   3.817
12001TIP3   OH235943   3.562   3.213   4.067
12001TIP3    H135944   3.654   3.217   4.090
12001TIP3    H235945   3.522   3.160   4.136
12002TIP3   OH235946   4.826   5.945   5.506
12002TIP3    H135947   4.894   5.917   5.445
12002TIP3    H235948   4.856   6.030   5.538
12003TIP3   OH235949   0.883   0.095   4.222
12003TIP3    H135950   0.861   0.129   4.135
12003TIP3    H235951   0.838   0.155   4.283
12004TIP3   OH235952   8.158   7.771   1.240
12004TIP3    H135953   8.072   7.740   1.212
12004TIP3    H235954   8.211   7.772   1.160
12005TIP3   OH235955   8.131   6.956   5.526
12005TIP3    H135956   8.077   6.973   5.450
12005TIP3    H235957   8.148   7.042   5.564
12006TIP3   OH235958   7.338   7.361   1.496
12006TIP3    H135959   7.357   7.434   1.555
12006TIP3    H235960   7.422   7.317   1.485
12007TIP3   OH235961   7.998   6.092   3.653
12007TIP3    H135962   8.019   6.053   3.739
12007TIP3    H235963   7.933   6.033   3.615
12008TIP3   OH235964   5.151   6.709   6.206
12008TIP3    H135965   5.135   6.622   6.242
12008TIP3    H235966   5.063   6.747   6.194
12009TIP3   OH235967   0.035   7.550   1.284
12009TIP3    H135968   0.074   7.617   1.340
12009TIP3    H235969   0.067   7.570   1.196
12010TIP3   OH235970   1.917   2.627   3.340
12010TIP3    H135971   2.002   2.617   3.383
12010TIP3    H235972   1.930   2.591   3.252
12011TIP3   OH235973   6.750   2.712   6.048
12011TIP3    H135974   6.840   2.681   6.035
12011TIP3    H235975   6.713   2.653   6.113
12012TIP3   OH235976   4.999   3.399   2.632
12012TIP3    H135977   4.937   3.379   2.562
12012TIP3    H235978   5.000   3.322   2.687
12013TIP3   OH235979   0.825   3.198   5.643
12013TIP3    H135980   0.739   3.168   5.674
12013TIP3    H235981   0.815   3.206   5.549
12014TIP3   OH235982   3.223   7.140   1.951
12014TIP3    H135983   3.135   7.102   1.946
12014TIP3    H235984   3.246   7.135   2.043
12015TIP3   OH235985   4.722   3.846   5.987
12015TIP3    H135986   4.777   3.911   5.942
12015TIP3    H235987   4.784   3.785   6.026
12016TIP3   OH235988   3.049   7.887   5.297
12016TIP3    H135989   2.990   7.831   5.246
12016TIP3    H235990   2.999   7.908   5.376
12017TIP3   OH235991   6.658   2.984   0.776
12017TIP3    H135992   6.573   3.003   0.736
12017TIP3    H235993   6.655   3.030   0.860
12018TIP3   OH235994   3.773   2.081   2.245
12018TIP3    H135995   3.731   1.996   2.263
12018TIP3    H235996   3.816   2.068   2.160
12019TIP3   OH235997   7.807   3.951   1.872
12019TIP3    H135998   7.788   3.860   1.894
12019TIP3    H235999   7.720   3.992   1.867
12020TIP3   OH236000   0.679   6.106   4.592
12020TIP3    H136001   0.639   6.175   4.645
12020TIP3    H236002   0.772   6.129   4.589
12021TIP3   OH236003   3.815   3.732   0.972
12021TIP3    H136004   3.874   3.759   0.902
12021TIP3    H236005   3.854   3.652   1.007
12022TIP3   OH236006   3.115   6.841   1.008
12022TIP3    H136007   3.206   6.851   0.979
12022TIP3    H236008   3.121   6.837   1.104
12023TIP3   OH236009   7.442   1.272   3.669
12023TIP3    H136010   7.440   1.304   3.579
12023TIP3    H236011   7.535   1.272   3.693
12024TIP3   OH236012   5.250   0.268   0.489
12024TIP3    H136013   5.335   0.303   0.465
12024TIP3    H236014   5.241   0.288   0.583
12025TIP3   OH236015   8.207   2.904   3.250
12025TIP3    H136016   8.227   2.819   3.212
12025TIP3    H236017   8.258   2.907   3.331
12026TIP3   OH236018   1.487   3.498   3.650
12026TIP3    H136019   1.441   3.461   3.725
12026TIP3    H236020   1.516   3.585   3.679
12027TIP3   OH236021   2.938   5.195   2.940
12027TIP3    H136022   3.004   5.137   2.902
12027TIP3    H236023   2.859   5.141   2.945
12028TIP3   OH236024   6.527   3.257   1.469
12028TIP3    H136025   6.457   3.257   1.404
12028TIP3    H236026   6.522   3.171   1.510
12029TIP3   OH236027   4.505   4.889   0.396
12029TIP3    H136028   4.567   4.945   0.348
12029TIP3    H236029   4.515   4.915   0.487
12030TIP3   OH236030   5.329   6.928   0.712
12030TIP3    H136031   5.279   6.866   0.658
12030TIP3    H236032   5.378   6.872   0.773
12031TIP3   OH236033   4.816   0.732   2.739
12031TIP3    H136034   4.721   0.728   2.735
12031TIP3    H236035   4.845   0.722   2.648
12032TIP3   OH236036   3.829   3.361   6.178
12032TIP3    H136037   3.852   3.294   6.114
12032TIP3    H236038   3.744   3.334   6.213
12033TIP3   OH236039   4.387   4.073   4.182
12033TIP3    H136040   4.370   4.061   4.276
12033TIP3    H236041   4.481   4.091   4.177
12034TIP3   OH236042   7.337   0.961   4.442
12034TIP3    H136043   7.400   1.016   4.396
12034TIP3    H236044   7.389   0.915   4.508
12035TIP3   OH236045   5.745   7.114   2.798
12035TIP3    H136046   5.829   7.150   2.770
12035TIP3    H236047   5.758   7.092   2.890
12036TIP3   OH236048   2.069   3.006   4.536
12036TIP3    H136049   2.058   2.911   4.537
12036TIP3    H236050   2.055   3.033   4.627
12037TIP3   OH236051   6.650   6.326   0.397
12037TIP3    H136052   6.663   6.354   0.306
12037TIP3    H236053   6.624   6.405   0.443
12038TIP3   OH236054   5.839   4.874   2.559
12038TIP3    H136055   5.814   4.947   2.616
12038TIP3    H236056   5.866   4.805   2.619
12039TIP3   OH236057   3.955   5.669   1.930
12039TIP3    H136058   3.973   5.756   1.967
12039TIP3    H236059   4.035   5.647   1.882
12040TIP3   OH236060   7.592   5.531   1.883
12040TIP3    H136061   7.678   5.560   1.914
12040TIP3    H236062   7.580   5.445   1.924
12041TIP3   OH236063   7.325   5.707   2.129
12041TIP3    H136064   7.242   5.736   2.169
12041TIP3    H236065   7.311   5.614   2.111
12042TIP3   OH236066   1.408   4.888   1.209
12042TIP3    H136067   1.488   4.927   1.242
12042TIP3    H236068   1.428   4.795   1.200
12043TIP3   OH236069   6.594   0.356   0.857
12043TIP3    H136070   6.568   0.434   0.906
12043TIP3    H236071   6.683   0.337   0.889
12044TIP3   OH236072   2.334   6.986   1.504
12044TIP3    H136073   2.371   7.060   1.456
12044TIP3    H236074   2.351   6.910   1.447
12045TIP3   OH236075   5.432   5.367   3.192
12045TIP3    H136076   5.420   5.408   3.278
12045TIP3    H236077   5.523   5.339   3.191
12046TIP3   OH236078   7.902   5.105   1.479
12046TIP3    H136079   7.998   5.102   1.482
12046TIP3    H236080   7.877   5.169   1.545
12047TIP3   OH236081   1.600   0.427   0.515
12047TIP3    H136082   1.595   0.425   0.420
12047TIP3    H236083   1.508   0.434   0.543
12048TIP3   OH236084   6.071   1.242   6.172
12048TIP3    H136085   6.122   1.222   6.250
12048TIP3    H236086   6.076   1.162   6.119
12049TIP3   OH236087   0.146   1.471   1.895
12049TIP3    H136088   0.186   1.388   1.921
12049TIP3    H236089   0.103   1.452   1.812
12050TIP3   OH236090   5.223   2.089   5.755
12050TIP3    H136091   5.231   2.010   5.808
12050TIP3    H236092   5.282   2.075   5.681
12051TIP3   OH236093   2.864   1.452   6.228
12051TIP3    H136094   2.914   1.466   6.147
12051TIP3    H236095   2.798   1.387   6.205
12052TIP3   OH236096   7.008   1.812   1.292
12052TIP3    H136097   7.077   1.874   1.268
12052TIP3    H236098   6.951   1.860   1.352
12053TIP3   OH236099   5.684   2.946   0.633
12053TIP3    H136100   5.668   3.040   0.630
12053TIP3    H236101   5.702   2.927   0.726
12054TIP3   OH236102   3.018   3.854   1.715
12054TIP3    H136103   3.102   3.812   1.733
12054TIP3    H236104   2.969   3.846   1.797
12055TIP3   OH236105   0.978   0.377   1.858
12055TIP3    H136106   0.900   0.363   1.911
12055TIP3    H236107   1.047   0.398   1.921
12056TIP3   OH236108   8.356   7.057   4.656
12056TIP3    H136109   8.434   7.105   4.686
12056TIP3    H236110   8.321   7.112   4.586
12057TIP3   OH236111   8.131   0.175   5.850
12057TIP3    H136112   8.183   0.211   5.779
12057TIP3    H236113   8.056   0.234   5.858
12058TIP3   OH236114   7.655   3.879   4.198
12058TIP3    H136115   7.749   3.881   4.185
12058TIP3    H236116   7.618   3.882   4.110
12059TIP3   OH236117   8.107   6.731   5.703
12059TIP3    H136118   8.125   6.798   5.638
12059TIP3    H236119   8.079   6.780   5.781
12060TIP3   OH236120   3.494   3.462   6.046
12060TIP3    H136121   3.500   3.399   5.974
12060TIP3    H236122   3.580   3.504   6.048
12061TIP3   OH236123   0.223   1.772   0.322
12061TIP3    H136124   0.151   1.829   0.295
12061TIP3    H236125   0.182   1.686   0.335
12062TIP3   OH236126   3.225   6.415   0.508
12062TIP3    H136127   3.298   6.431   0.448
12062TIP3    H236128   3.168   6.491   0.497
12063TIP3   OH236129   7.149   0.579   6.175
12063TIP3    H136130   7.183   0.655   6.222
12063TIP3    H236131   7.225   0.545   6.126
12064TIP3   OH236132   6.661   2.925   4.804
12064TIP3    H136133   6.625   2.977   4.731
12064TIP3    H236134   6.737   2.881   4.766
12065TIP3   OH236135   1.184   0.755   2.168
12065TIP3    H136136   1.158   0.788   2.254
12065TIP3    H236137   1.166   0.661   2.173
12066TIP3   OH236138   4.871   1.751   3.689
12066TIP3    H136139   4.857   1.701   3.770
12066TIP3    H236140   4.823   1.832   3.702
12067TIP3   OH236141   0.052   4.215   1.918
12067TIP3    H136142   0.078   4.264   1.996
12067TIP3    H236143  -0.041   4.232   1.908
12068TIP3   OH236144   2.146   7.236   0.934
12068TIP3    H136145   2.176   7.256   0.845
12068TIP3    H236146   2.082   7.166   0.923
12069TIP3   OH236147   4.368   0.126   4.909
12069TIP3    H136148   4.299   0.192   4.914
12069TIP3    H236149   4.419   0.150   4.833
12070TIP3   OH236150   2.818   1.339   3.473
12070TIP3    H136151   2.812   1.246   3.496
12070TIP3    H236152   2.912   1.355   3.465
12071TIP3   OH236153   3.114   2.043   2.595
12071TIP3    H136154   3.148   2.128   2.568
12071TIP3    H236155   3.063   2.061   2.674
12072TIP3   OH236156   4.122   0.288   2.180
12072TIP3    H136157   4.039   0.274   2.225
12072TIP3    H236158   4.104   0.268   2.088
12073TIP3   OH236159   5.311   1.585   4.593
12073TIP3    H136160   5.250   1.652   4.625
12073TIP3    H236161   5.348   1.623   4.514
12074TIP3   OH236162   0.905   6.235   4.586
12074TIP3    H136163   0.999   6.219   4.583
12074TIP3    H236164   0.893   6.320   4.543
12075TIP3   OH236165   1.037   6.750   5.281
12075TIP3    H136166   0.990   6.789   5.207
12075TIP3    H236167   1.061   6.663   5.250
12076TIP3   OH236168   1.929   6.778   5.611
12076TIP3    H136169   1.906   6.738   5.695
12076TIP3    H236170   1.850   6.827   5.586
12077TIP3   OH236171   4.588   7.647   4.320
12077TIP3    H136172   4.616   7.566   4.362
12077TIP3    H236173   4.615   7.716   4.381
12078TIP3   OH236174   6.837   6.104   0.693
12078TIP3    H136175   6.817   6.010   0.692
12078TIP3    H236176   6.856   6.125   0.601
12079TIP3   OH236177   4.526   7.337   2.130
12079TIP3    H136178   4.541   7.289   2.212
12079TIP3    H236179   4.576   7.288   2.065
12080TIP3   OH236180   1.246   2.834   3.886
12080TIP3    H136181   1.225   2.927   3.894
12080TIP3    H236182   1.166   2.794   3.851
12081TIP3   OH236183   4.725   2.746   3.875
12081TIP3    H136184   4.778   2.686   3.927
12081TIP3    H236185   4.668   2.689   3.824
12082TIP3   OH236186   2.690   6.957   6.008
12082TIP3    H136187   2.694   7.045   6.046
12082TIP3    H236188   2.782   6.929   6.004
12083TIP3   OH236189   7.207   7.423   2.921
12083TIP3    H136190   7.295   7.388   2.904
12083TIP3    H236191   7.150   7.374   2.862
12084TIP3   OH236192   6.216   5.739   1.794
12084TIP3    H136193   6.307   5.757   1.820
12084TIP3    H236194   6.187   5.672   1.856
12085TIP3   OH236195   1.201   3.930   2.540
12085TIP3    H136196   1.226   3.840   2.561
12085TIP3    H236197   1.251   3.984   2.601
12086TIP3   OH236198   3.384   0.912   6.472
12086TIP3    H136199   3.297   0.917   6.431
12086TIP3    H236200   3.413   0.823   6.455
12087TIP3   OH236201   4.231   3.097   0.212
12087TIP3    H136202   4.219   3.188   0.186
12087TIP3    H236203   4.269   3.054   0.135
12088TIP3   OH236204   2.758   4.846   0.845
12088TIP3    H136205   2.765   4.779   0.913
12088TIP3    H236206   2.842   4.842   0.799
12089TIP3   OH236207   1.958   4.755   5.424
12089TIP3    H136208   1.952   4.721   5.335
12089TIP3    H236209   1.978   4.848   5.414
12090TIP3   OH236210   0.543   4.554   2.332
12090TIP3    H136211   0.555   4.598   2.247
12090TIP3    H236212   0.548   4.461   2.311
12091TIP3   OH236213   4.204   0.942   1.236
12091TIP3    H136214   4.202   0.999   1.159
12091TIP3    H236215   4.283   0.889   1.224
12092TIP3   OH236216   8.126   5.421   6.780
12092TIP3    H136217   8.140   5.351   6.844
12092TIP3    H236218   8.036   5.407   6.750
12093TIP3   OH236219   2.572   4.317   3.325
12093TIP3    H136220   2.538   4.246   3.270
12093TIP3    H236221   2.512   4.390   3.309
12094TIP3   OH236222   3.226   6.428   1.415
12094TIP3    H136223   3.253   6.488   1.345
12094TIP3    H236224   3.283   6.450   1.488
12095TIP3   OH236225   3.361   3.898   5.681
12095TIP3    H136226   3.296   3.836   5.650
12095TIP3    H236227   3.315   3.949   5.748
12096TIP3   OH236228   2.225   0.240   4.072
12096TIP3    H136229   2.194   0.161   4.028
12096TIP3    H236230   2.295   0.209   4.129
12097TIP3   OH236231   3.424   6.124   0.168
12097TIP3    H136232   3.469   6.040   0.170
12097TIP3    H236233   3.474   6.179   0.229
12098TIP3   OH236234   2.989   7.885   1.289
12098TIP3    H136235   3.040   7.811   1.322
12098TIP3    H236236   2.898   7.863   1.307
12099TIP3   OH236237   4.284   0.750   2.074
12099TIP3    H136238   4.357   0.782   2.126
12099TIP3    H236239   4.313   0.759   1.983
12100TIP3   OH236240   8.357   6.105   5.768
12100TIP3    H136241   8.351   6.188   5.720
12100TIP3    H236242   8.398   6.044   5.706
12101TIP3   OH236243   3.536   4.423   4.872
12101TIP3    H136244   3.521   4.353   4.808
12101TIP3    H236245   3.467   4.487   4.855
12102TIP3   OH236246   2.787   3.799   5.159
12102TIP3    H136247   2.880   3.811   5.179
12102TIP3    H236248   2.750   3.887   5.158
12103TIP3   OH236249   2.691   7.587   6.154
12103TIP3    H136250   2.742   7.650   6.204
12103TIP3    H236251   2.734   7.584   6.068
12104TIP3   OH236252   6.880   1.265   5.896
12104TIP3    H136253   6.896   1.250   5.989
12104TIP3    H236254   6.929   1.345   5.876
12105TIP3   OH236255   4.759   7.236   1.185
12105TIP3    H136256   4.776   7.328   1.203
12105TIP3    H236257   4.781   7.191   1.267
12106TIP3   OH236258   2.985   0.882   5.843
12106TIP3    H136259   3.057   0.882   5.780
12106TIP3    H236260   2.920   0.942   5.805
12107TIP3   OH236261   7.118   4.192   3.079
12107TIP3    H136262   7.202   4.223   3.110
12107TIP3    H236263   7.092   4.256   3.012
12108TIP3   OH236264   0.553   4.294   4.567
12108TIP3    H136265   0.638   4.324   4.601
12108TIP3    H236266   0.517   4.370   4.521
12109TIP3   OH236267   6.236   2.035   2.151
12109TIP3    H136268   6.239   1.950   2.195
12109TIP3    H236269   6.156   2.032   2.099
12110TIP3   OH236270   2.702   7.049   6.786
12110TIP3    H136271   2.638   7.115   6.813
12110TIP3    H236272   2.764   7.045   6.859
12111TIP3   OH236273   2.992   5.138   4.616
12111TIP3    H136274   2.983   5.045   4.635
12111TIP3    H236275   3.025   5.176   4.697
12112TIP3   OH236276   5.180   3.283   0.934
12112TIP3    H136277   5.114   3.326   0.989
12112TIP3    H236278   5.264   3.307   0.974
12113TIP3   OH236279   6.063   1.783   5.671
12113TIP3    H136280   6.135   1.723   5.689
12113TIP3    H236281   6.106   1.861   5.635
12114TIP3   OH236282   6.646   2.433   3.281
12114TIP3    H136283   6.571   2.394   3.236
12114TIP3    H236284   6.675   2.503   3.223
12115TIP3   OH236285   6.341   1.382   5.679
12115TIP3    H136286   6.290   1.367   5.759
12115TIP3    H236287   6.293   1.335   5.611
12116TIP3   OH236288   0.664   4.264   6.757
12116TIP3    H136289   0.725   4.205   6.714
12116TIP3    H236290   0.708   4.291   6.838
12117TIP3   OH236291   7.734   3.706   4.416
12117TIP3    H136292   7.712   3.765   4.344
12117TIP3    H236293   7.650   3.691   4.460
12118TIP3   OH236294   2.163   6.058   5.838
12118TIP3    H136295   2.192   6.128   5.895
12118TIP3    H236296   2.109   6.002   5.894
12119TIP3   OH236297   6.707   0.512   0.463
12119TIP3    H136298   6.768   0.442   0.487
12119TIP3    H236299   6.743   0.590   0.505
12120TIP3   OH236300   1.385   3.610   6.838
12120TIP3    H136301   1.381   3.526   6.793
12120TIP3    H236302   1.330   3.669   6.787
12121TIP3   OH236303   0.676   0.020   3.799
12121TIP3    H136304   0.640  -0.017   3.880
12121TIP3    H236305   0.606   0.010   3.735
12122TIP3   OH236306   7.459   0.170   0.606
12122TIP3    H136307   7.412   0.222   0.671
12122TIP3    H236308   7.552   0.190   0.621
12123TIP3   OH236309   7.913   6.239   0.985
12123TIP3    H136310   7.854   6.172   1.020
12123TIP3    H236311   7.990   6.191   0.955
12124TIP3   OH236312   0.939   2.762   4.829
12124TIP3    H136313   0.860   2.710   4.845
12124TIP3    H236314   0.948   2.762   4.733
12125TIP3   OH236315   0.281   5.058   4.766
12125TIP3    H136316   0.207   5.048   4.706
12125TIP3    H236317   0.286   4.975   4.814
12126TIP3   OH236318   1.108   4.128   2.377
12126TIP3    H136319   1.118   4.198   2.443
12126TIP3    H236320   1.130   4.048   2.424
12127TIP3   OH236321   3.335   5.980   6.350
12127TIP3    H136322   3.429   5.994   6.358
12127TIP3    H236323   3.312   5.927   6.426
12128TIP3   OH236324   8.123   4.734   6.080
12128TIP3    H136325   8.032   4.705   6.087
12128TIP3    H236326   8.123   4.797   6.008
12129TIP3   OH236327   0.234   0.156   4.080
12129TIP3    H136328   0.311   0.206   4.057
12129TIP3    H236329   0.224   0.093   4.008
12130TIP3   OH236330   0.394   1.303   5.952
12130TIP3    H136331   0.376   1.364   6.023
12130TIP3    H236332   0.417   1.358   5.878
12131TIP3   OH236333   7.910   0.554   6.111
12131TIP3    H136334   7.898   0.550   6.016
12131TIP3    H236335   7.998   0.518   6.125
12132TIP3   OH236336   3.895   3.929   2.692
12132TIP3    H136337   3.837   4.004   2.707
12132TIP3    H236338   3.856   3.884   2.616
12133TIP3   OH236339   4.641   3.092   4.748
12133TIP3    H136340   4.735   3.096   4.765
12133TIP3    H236341   4.630   3.136   4.664
12134TIP3   OH236342   7.985   2.700   4.993
12134TIP3    H136343   7.900   2.732   4.963
12134TIP3    H236344   8.048   2.754   4.946
12135TIP3   OH236345   4.777   1.993   4.447
12135TIP3    H136346   4.802   2.084   4.428
12135TIP3    H236347   4.834   1.967   4.519
12136TIP3   OH236348   6.556   0.499   2.420
12136TIP3    H136349   6.538   0.573   2.478
12136TIP3    H236350   6.507   0.517   2.340
12137TIP3   OH236351   1.665   3.650   4.234
12137TIP3    H136352   1.630   3.589   4.299
12137TIP3    H236353   1.594   3.660   4.171
12138TIP3   OH236354   7.024   3.801   1.585
12138TIP3    H136355   7.077   3.865   1.633
12138TIP3    H236356   7.005   3.732   1.650
12139TIP3   OH236357   3.341   7.479   3.371
12139TIP3    H136358   3.270   7.415   3.376
12139TIP3    H236359   3.414   7.436   3.416
12140TIP3   OH236360   1.681   2.609   0.382
12140TIP3    H136361   1.738   2.573   0.450
12140TIP3    H236362   1.697   2.554   0.305
12141TIP3   OH236363   7.207   5.214   1.078
12141TIP3    H136364   7.169   5.294   1.042
12141TIP3    H236365   7.288   5.243   1.119
12142TIP3   OH236366   2.146   1.977   5.127
12142TIP3    H136367   2.231   1.938   5.149
12142TIP3    H236368   2.151   2.067   5.160
12143TIP3   OH236369   0.240   7.807   5.196
12143TIP3    H136370   0.257   7.879   5.134
12143TIP3    H236371   0.145   7.806   5.206
12144TIP3   OH236372   0.557   0.692   1.098
12144TIP3    H136373   0.500   0.639   1.154
12144TIP3    H236374   0.507   0.772   1.081
12145TIP3   OH236375   5.107   2.933   2.167
12145TIP3    H136376   5.099   2.850   2.213
12145TIP3    H236377   5.018   2.951   2.135
12146TIP3   OH236378   3.148   1.029   3.348
12146TIP3    H136379   3.198   0.950   3.330
12146TIP3    H236380   3.060   1.009   3.316
12147TIP3   OH236381   5.055   5.664   4.088
12147TIP3    H136382   5.031   5.657   4.181
12147TIP3    H236383   5.085   5.754   4.078
12148TIP3   OH236384   5.328   7.546   2.187
12148TIP3    H136385   5.399   7.524   2.247
12148TIP3    H236386   5.320   7.641   2.193
12149TIP3   OH236387   7.287   4.452   2.778
12149TIP3    H136388   7.279   4.443   2.873
12149TIP3    H236389   7.381   4.449   2.761
12150TIP3   OH236390   7.699   0.160   6.338
12150TIP3    H136391   7.778   0.179   6.287
12150TIP3    H236392   7.633   0.219   6.302
12151TIP3   OH236393   3.742   5.253   0.567
12151TIP3    H136394   3.759   5.336   0.611
12151TIP3    H236395   3.760   5.186   0.633
12152TIP3   OH236396   1.972   5.484   6.134
12152TIP3    H136397   1.884   5.513   6.110
12152TIP3    H236398   2.011   5.559   6.178
12153TIP3   OH236399   5.003   1.433   4.384
12153TIP3    H136400   4.912   1.413   4.361
12153TIP3    H236401   5.055   1.371   4.333
12154TIP3   OH236402   0.752   7.840   1.297
12154TIP3    H136403   0.676   7.782   1.294
12154TIP3    H236404   0.789   7.837   1.209
12155TIP3   OH236405   5.295   6.828   5.185
12155TIP3    H136406   5.239   6.782   5.123
12155TIP3    H236407   5.238   6.892   5.227
12156TIP3   OH236408   4.933   7.514   4.928
12156TIP3    H136409   5.020   7.509   4.888
12156TIP3    H236410   4.904   7.604   4.914
12157TIP3   OH236411   1.315   0.172   5.461
12157TIP3    H136412   1.312   0.097   5.401
12157TIP3    H236413   1.243   0.156   5.522
12158TIP3   OH236414   7.584   3.958   5.802
12158TIP3    H136415   7.573   3.866   5.827
12158TIP3    H236416   7.533   4.006   5.868
12159TIP3   OH236417   7.588   1.422   6.777
12159TIP3    H136418   7.532   1.378   6.841
12159TIP3    H236419   7.598   1.358   6.706
12160TIP3   OH236420   4.663   5.642   3.346
12160TIP3    H136421   4.655   5.719   3.289
12160TIP3    H236422   4.587   5.648   3.405
12161TIP3   OH236423   1.227   1.850   6.124
12161TIP3    H136424   1.315   1.826   6.153
12161TIP3    H236425   1.169   1.787   6.165
12162TIP3   OH236426   0.446   1.764   5.328
12162TIP3    H136427   0.366   1.713   5.335
12162TIP3    H236428   0.442   1.803   5.241
12163TIP3   OH236429   5.731   0.675   3.515
12163TIP3    H136430   5.825   0.681   3.502
12163TIP3    H236431   5.720   0.608   3.583
12164TIP3   OH236432   3.716   5.799   5.847
12164TIP3    H136433   3.732   5.734   5.915
12164TIP3    H236434   3.638   5.846   5.877
12165TIP3   OH236435   3.016   6.307   2.083
12165TIP3    H136436   3.005   6.356   2.001
12165TIP3    H236437   2.945   6.243   2.081
12166TIP3   OH236438   3.774   5.020   1.024
12166TIP3    H136439   3.812   5.027   1.111
12166TIP3    H236440   3.689   4.979   1.038
12167TIP3   OH236441   7.196   1.487   3.074
12167TIP3    H136442   7.129   1.489   3.143
12167TIP3    H236443   7.278   1.504   3.120
12168TIP3   OH236444   8.295   1.255   1.861
12168TIP3    H136445   8.261   1.323   1.804
12168TIP3    H236446   8.356   1.205   1.806
12169TIP3   OH236447   7.914   0.473   5.091
12169TIP3    H136448   7.985   0.430   5.044
12169TIP3    H236449   7.858   0.401   5.121
12170TIP3   OH236450   0.339   1.855   2.741
12170TIP3    H136451   0.363   1.764   2.724
12170TIP3    H236452   0.416   1.893   2.784
12171TIP3   OH236453   0.953   5.208   5.757
12171TIP3    H136454   0.859   5.206   5.777
12171TIP3    H236455   0.969   5.297   5.727
12172TIP3   OH236456   4.237   1.754   4.743
12172TIP3    H136457   4.249   1.847   4.760
12172TIP3    H236458   4.325   1.718   4.743
12173TIP3   OH236459   7.112   7.560   5.127
12173TIP3    H136460   7.033   7.511   5.101
12173TIP3    H236461   7.082   7.616   5.199
12174TIP3   OH236462   6.494   5.390   2.309
12174TIP3    H136463   6.588   5.410   2.307
12174TIP3    H236464   6.467   5.412   2.398
12175TIP3   OH236465   3.593   0.452   0.628
12175TIP3    H136466   3.618   0.527   0.576
12175TIP3    H236467   3.522   0.483   0.684
12176TIP3   OH236468   1.745   6.394   5.884
12176TIP3    H136469   1.703   6.322   5.837
12176TIP3    H236470   1.677   6.429   5.941
12177TIP3   OH236471   3.231   5.971   3.863
12177TIP3    H136472   3.277   6.031   3.805
12177TIP3    H236473   3.298   5.909   3.893
12178TIP3   OH236474   7.066   2.947   1.385
12178TIP3    H136475   7.051   3.021   1.444
12178TIP3    H236476   7.035   2.871   1.433
12179TIP3   OH236477   1.730   2.212   1.375
12179TIP3    H136478   1.725   2.260   1.292
12179TIP3    H236479   1.715   2.279   1.442
12180TIP3   OH236480   1.710   7.629   2.229
12180TIP3    H136481   1.639   7.568   2.253
12180TIP3    H236482   1.733   7.604   2.139
12181TIP3   OH236483   1.085   3.873   5.203
12181TIP3    H136484   1.144   3.942   5.233
12181TIP3    H236485   1.039   3.844   5.282
12182TIP3   OH236486   1.474   7.447   0.851
12182TIP3    H136487   1.555   7.414   0.812
12182TIP3    H236488   1.470   7.404   0.937
12183TIP3   OH236489   4.493   1.017   4.147
12183TIP3    H136490   4.406   1.041   4.116
12183TIP3    H236491   4.493   0.921   4.150
12184TIP3   OH236492   0.141   5.241   4.490
12184TIP3    H136493   0.146   5.317   4.548
12184TIP3    H236494   0.192   5.266   4.413
12185TIP3   OH236495   4.066   0.574   5.327
12185TIP3    H136496   4.001   0.628   5.372
12185TIP3    H236497   4.134   0.636   5.301
12186TIP3   OH236498   7.245   0.548   1.083
12186TIP3    H136499   7.182   0.516   1.146
12186TIP3    H236500   7.199   0.548   0.999
12187TIP3   OH236501   7.494   7.677   3.609
12187TIP3    H136502   7.488   7.583   3.626
12187TIP3    H236503   7.544   7.682   3.528
12188TIP3   OH236504   7.571   7.006   2.579
12188TIP3    H136505   7.651   7.012   2.526
12188TIP3    H236506   7.578   6.920   2.621
12189TIP3   OH236507   4.251   2.077   5.968
12189TIP3    H136508   4.286   2.165   5.983
12189TIP3    H236509   4.196   2.087   5.890
12190TIP3   OH236510   6.461   7.388   1.424
12190TIP3    H136511   6.375   7.419   1.396
12190TIP3    H236512   6.450   7.368   1.517
12191TIP3   OH236513   5.554   5.797   5.899
12191TIP3    H136514   5.545   5.852   5.821
12191TIP3    H236515   5.635   5.749   5.884
12192TIP3   OH236516   4.897   1.918   6.176
12192TIP3    H136517   4.961   1.952   6.114
12192TIP3    H236518   4.937   1.839   6.213
12193TIP3   OH236519   0.794   7.239   1.391
12193TIP3    H136520   0.764   7.326   1.363
12193TIP3    H236521   0.715   7.184   1.385
12194TIP3   OH236522   5.140   5.660   3.221
12194TIP3    H136523   5.110   5.728   3.160
12194TIP3    H236524   5.061   5.613   3.246
12195TIP3   OH236525   4.114  -0.020   6.813
12195TIP3    H136526   4.162   0.062   6.806
12195TIP3    H236527   4.163  -0.081   6.757
12196TIP3   OH236528   1.407   2.709   5.864
12196TIP3    H136529   1.334   2.678   5.917
12196TIP3    H236530   1.484   2.666   5.902
12197TIP3   OH236531   5.688   3.997   4.612
12197TIP3    H136532   5.735   4.077   4.590
12197TIP3    H236533   5.721   3.972   4.698
12198TIP3   OH236534   2.599   4.986   4.605
12198TIP3    H136535   2.580   5.001   4.697
12198TIP3    H236536   2.548   4.909   4.582
12199TIP3   OH236537   4.071   0.873   4.581
12199TIP3    H136538   4.044   0.870   4.489
12199TIP3    H236539   4.075   0.967   4.602
12200TIP3   OH236540   7.306   2.079   0.991
12200TIP3    H136541   7.258   2.154   1.025
12200TIP3    H236542   7.342   2.110   0.907
12201TIP3   OH236543   7.363   7.704   4.346
12201TIP3    H136544   7.399   7.625   4.305
12201TIP3    H236545   7.268   7.695   4.336
12202TIP3   OH236546   4.024   3.413   5.102
12202TIP3    H136547   4.009   3.329   5.145
12202TIP3    H236548   4.068   3.466   5.168
12203TIP3   OH236549   0.087   5.636   5.772
12203TIP3    H136550   0.096   5.613   5.680
12203TIP3    H236551   0.006   5.687   5.777
12204TIP3   OH236552   4.524   5.656   2.402
12204TIP3    H136553   4.547   5.634   2.311
12204TIP3    H236554   4.592   5.612   2.454
12205TIP3   OH236555   6.077   3.621   3.708
12205TIP3    H136556   6.016   3.553   3.677
12205TIP3    H236557   6.036   3.703   3.681
12206TIP3   OH236558   1.692   6.464   5.162
12206TIP3    H136559   1.670   6.476   5.070
12206TIP3    H236560   1.641   6.530   5.209
12207TIP3   OH236561   6.395   0.737   6.237
12207TIP3    H136562   6.323   0.739   6.300
12207TIP3    H236563   6.466   0.786   6.279
12208TIP3   OH236564   7.244   3.448   2.221
12208TIP3    H136565   7.281   3.491   2.144
12208TIP3    H236566   7.221   3.360   2.190
12209TIP3   OH236567   2.795   3.988   6.806
12209TIP3    H136568   2.701   4.007   6.814
12209TIP3    H236569   2.831   4.066   6.764
12210TIP3   OH236570   2.708   2.837   3.900
12210TIP3    H136571   2.692   2.750   3.937
12210TIP3    H236572   2.750   2.886   3.971
12211TIP3   OH236573   2.069   4.162   0.079
12211TIP3    H136574   2.072   4.242   0.131
12211TIP3    H236575   2.034   4.096   0.139
12212TIP3   OH236576   2.421   2.121   2.898
12212TIP3    H136577   2.404   2.071   2.978
12212TIP3    H236578   2.425   2.212   2.927
12213TIP3   OH236579   0.152   5.549   5.009
12213TIP3    H136580   0.221   5.487   5.031
12213TIP3    H236581   0.187   5.634   5.035
12214TIP3   OH236582   6.552   0.527   6.116
12214TIP3    H136583   6.528   0.615   6.143
12214TIP3    H236584   6.503   0.469   6.173
12215TIP3   OH236585   1.210   2.260   5.284
12215TIP3    H136586   1.156   2.182   5.273
12215TIP3    H236587   1.176   2.303   5.362
12216TIP3   OH236588   0.908   0.082   3.957
12216TIP3    H136589   0.943   0.148   3.897
12216TIP3    H236590   0.822   0.060   3.921
12217TIP3   OH236591   2.055   2.925   5.799
12217TIP3    H136592   2.077   2.861   5.866
12217TIP3    H236593   2.129   2.986   5.799
12218TIP3   OH236594   6.987   0.948   1.102
12218TIP3    H136595   6.895   0.932   1.122
12218TIP3    H236596   7.036   0.899   1.168
12219TIP3   OH236597   7.090   7.751   4.624
12219TIP3    H136598   7.109   7.726   4.714
12219TIP3    H236599   7.085   7.669   4.576
12220TIP3   OH236600   7.377   5.896   2.576
12220TIP3    H136601   7.310   5.962   2.593
12220TIP3    H236602   7.432   5.896   2.654
12221TIP3   OH236603   0.756   0.499   3.527
12221TIP3    H136604   0.836   0.493   3.579
12221TIP3    H236605   0.753   0.416   3.478
12222TIP3   OH236606   1.818   3.349   2.180
12222TIP3    H136607   1.770   3.346   2.098
12222TIP3    H236608   1.901   3.305   2.161
12223TIP3   OH236609   1.138   2.108   1.960
12223TIP3    H136610   1.062   2.164   1.948
12223TIP3    H236611   1.179   2.104   1.873
12224TIP3   OH236612   7.853   4.944   3.601
12224TIP3    H136613   7.881   4.905   3.684
12224TIP3    H236614   7.819   4.870   3.550
12225TIP3   OH236615   4.352   0.643   4.992
12225TIP3    H136616   4.374   0.571   5.051
12225TIP3    H236617   4.398   0.622   4.910
12226TIP3   OH236618   2.459   0.576   1.876
12226TIP3    H136619   2.551   0.599   1.890
12226TIP3    H236620   2.418   0.589   1.962
12227TIP3   OH236621   6.795   4.765   1.599
12227TIP3    H136622   6.760   4.830   1.660
12227TIP3    H236623   6.888   4.758   1.623
12228TIP3   OH236624   5.890   4.411   6.251
12228TIP3    H136625   5.825   4.355   6.293
12228TIP3    H236626   5.934   4.353   6.189
12229TIP3   OH236627   7.636   2.035   4.539
12229TIP3    H136628   7.635   1.942   4.518
12229TIP3    H236629   7.603   2.078   4.461
12230TIP3   OH236630   2.867   5.206   5.539
12230TIP3    H136631   2.785   5.223   5.494
12230TIP3    H236632   2.846   5.212   5.632
12231TIP3   OH236633   0.197   0.730   3.181
12231TIP3    H136634   0.154   0.731   3.096
12231TIP3    H236635   0.141   0.783   3.237
12232TIP3   OH236636   6.776   6.002   1.047
12232TIP3    H136637   6.794   5.943   1.120
12232TIP3    H236638   6.846   5.984   0.984
12233TIP3   OH236639   5.326   3.186   4.416
12233TIP3    H136640   5.294   3.261   4.465
12233TIP3    H236641   5.294   3.200   4.327
12234TIP3   OH236642   4.590   7.516   0.540
12234TIP3    H136643   4.618   7.586   0.600
12234TIP3    H236644   4.599   7.554   0.453
12235TIP3   OH236645   7.125   4.533   3.714
12235TIP3    H136646   7.219   4.531   3.732
12235TIP3    H236647   7.087   4.476   3.781
12236TIP3   OH236648   7.323   2.114   6.361
12236TIP3    H136649   7.406   2.086   6.401
12236TIP3    H236650   7.345   2.128   6.269
12237TIP3   OH236651   1.972   6.969   6.152
12237TIP3    H136652   1.996   6.958   6.060
12237TIP3    H236653   1.876   6.966   6.153
12238TIP3   OH236654   6.862   0.196   4.988
12238TIP3    H136655   6.929   0.131   5.009
12238TIP3    H236656   6.898   0.278   5.022
12239TIP3   OH236657   6.957   0.999   3.795
12239TIP3    H136658   6.896   1.033   3.861
12239TIP3    H236659   6.913   0.922   3.759
12240TIP3   OH236660   3.898   1.742   3.804
12240TIP3    H136661   3.959   1.803   3.845
12240TIP3    H236662   3.830   1.728   3.870
12241TIP3   OH236663   3.633   5.887   1.344
12241TIP3    H136664   3.578   5.954   1.385
12241TIP3    H236665   3.694   5.860   1.412
12242TIP3   OH236666   0.490   2.242   1.136
12242TIP3    H136667   0.445   2.163   1.106
12242TIP3    H236668   0.480   2.241   1.231
12243TIP3   OH236669   2.211   2.111   4.596
12243TIP3    H136670   2.260   2.030   4.590
12243TIP3    H236671   2.272   2.179   4.567
12244TIP3   OH236672   4.021   6.650   0.744
12244TIP3    H136673   3.990   6.636   0.655
12244TIP3    H236674   3.991   6.738   0.766
12245TIP3   OH236675   7.988   1.829   6.018
12245TIP3    H136676   7.973   1.893   5.948
12245TIP3    H236677   8.060   1.775   5.986
12246TIP3   OH236678   5.451   4.724   3.872
12246TIP3    H136679   5.443   4.819   3.864
12246TIP3    H236680   5.497   4.697   3.793
12247TIP3   OH236681   1.693   3.156   4.462
12247TIP3    H136682   1.787   3.173   4.466
12247TIP3    H236683   1.676   3.096   4.534
12248TIP3   OH236684   7.223   7.706   2.858
12248TIP3    H136685   7.201   7.612   2.852
12248TIP3    H236686   7.279   7.712   2.935
12249TIP3   OH236687   4.621   0.433   4.401
12249TIP3    H136688   4.659   0.481   4.328
12249TIP3    H236689   4.694   0.381   4.436
12250TIP3   OH236690   4.108   2.376   4.267
12250TIP3    H136691   4.060   2.409   4.342
12250TIP3    H236692   4.200   2.386   4.290
12251TIP3   OH236693   5.355   2.543   5.706
12251TIP3    H136694   5.392   2.630   5.692
12251TIP3    H236695   5.347   2.536   5.802
12252TIP3   OH236696   8.001  -0.002   6.044
12252TIP3    H136697   8.030  -0.021   5.955
12252TIP3    H236698   8.057   0.070   6.072
12253TIP3   OH236699   5.035   7.736   2.910
12253TIP3    H136700   5.118   7.747   2.864
12253TIP3    H236701   5.054   7.758   3.001
12254TIP3   OH236702   5.978   6.578   2.659
12254TIP3    H136703   5.887   6.555   2.640
12254TIP3    H236704   6.003   6.522   2.733
12255TIP3   OH236705   0.742   0.685   0.464
12255TIP3    H136706   0.650   0.668   0.485
12255TIP3    H236707   0.771   0.606   0.418
12256TIP3   OH236708   1.600   6.671   3.817
12256TIP3    H136709   1.670   6.731   3.839
12256TIP3    H236710   1.520   6.716   3.843
12257TIP3   OH236711   6.176   1.727   5.084
12257TIP3    H136712   6.091   1.752   5.050
12257TIP3    H236713   6.235   1.731   5.009
12258TIP3   OH236714   7.467   5.666   4.882
12258TIP3    H136715   7.554   5.645   4.916
12258TIP3    H236716   7.452   5.600   4.814
12259TIP3   OH236717   5.424   1.939   1.221
12259TIP3    H136718   5.350   1.986   1.261
12259TIP3    H236719   5.393   1.848   1.216
12260TIP3   OH236720   1.450   7.520   4.489
12260TIP3    H136721   1.357   7.525   4.467
12260TIP3    H236722   1.457   7.557   4.577
12261TIP3   OH236723   2.310   5.103   1.606
12261TIP3    H136724   2.298   5.197   1.590
12261TIP3    H236725   2.405   5.091   1.605
12262TIP3   OH236726   8.032   6.113   2.391
12262TIP3    H136727   8.069   6.190   2.435
12262TIP3    H236728   7.940   6.112   2.418
12263TIP3   OH236729   4.917   5.959   1.549
12263TIP3    H136730   4.924   5.870   1.516
12263TIP3    H236731   4.901   5.949   1.643
12264TIP3   OH236732   5.634   5.050   0.753
12264TIP3    H136733   5.579   5.055   0.831
12264TIP3    H236734   5.635   5.140   0.719
12265TIP3   OH236735   4.444   5.051   4.972
12265TIP3    H136736   4.459   4.957   4.980
12265TIP3    H236737   4.432   5.082   5.062
12266TIP3   OH236738   3.226   6.935   0.502
12266TIP3    H136739   3.201   6.848   0.534
12266TIP3    H236740   3.276   6.918   0.423
12267TIP3   OH236741   6.020   5.833   4.074
12267TIP3    H136742   6.004   5.883   3.995
12267TIP3    H236743   5.942   5.777   4.083
12268TIP3   OH236744   2.127   0.927   0.383
12268TIP3    H136745   2.144   1.010   0.427
12268TIP3    H236746   2.202   0.872   0.406
12269TIP3   OH236747   4.672   5.725   5.540
12269TIP3    H136748   4.678   5.817   5.514
12269TIP3    H236749   4.739   5.715   5.607
12270TIP3   OH236750   0.833   0.258   0.771
12270TIP3    H136751   0.903   0.264   0.837
12270TIP3    H236752   0.870   0.301   0.694
12271TIP3   OH236753   1.143   3.217   0.891
12271TIP3    H136754   1.188   3.182   0.968
12271TIP3    H236755   1.104   3.299   0.921
12272TIP3   OH236756   8.320   2.362   4.058
12272TIP3    H136757   8.300   2.443   4.011
12272TIP3    H236758   8.390   2.386   4.119
12273TIP3   OH236759   7.360   4.412   0.479
12273TIP3    H136760   7.430   4.362   0.438
12273TIP3    H236761   7.297   4.346   0.508
12274TIP3   OH236762   6.076   6.175   5.538
12274TIP3    H136763   6.020   6.250   5.519
12274TIP3    H236764   6.155   6.189   5.485
12275TIP3   OH236765   0.102   7.379   0.511
12275TIP3    H136766   0.010   7.382   0.487
12275TIP3    H236767   0.112   7.444   0.580
12276TIP3   OH236768   4.072   5.387   1.029
12276TIP3    H136769   3.977   5.398   1.022
12276TIP3    H236770   4.083   5.302   1.071
12277TIP3   OH236771   4.192   7.008   3.960
12277TIP3    H136772   4.115   7.016   4.017
12277TIP3    H236773   4.180   6.924   3.915
12278TIP3   OH236774   5.132   6.655   2.507
12278TIP3    H136775   5.125   6.751   2.499
12278TIP3    H236776   5.225   6.637   2.496
12279TIP3   OH236777   3.367   3.853   3.973
12279TIP3    H136778   3.281   3.842   4.014
12279TIP3    H236779   3.422   3.786   4.015
12280TIP3   OH236780   0.099  -0.075   2.667
12280TIP3    H136781   0.040  -0.066   2.593
12280TIP3    H236782   0.177  -0.026   2.641
12281TIP3   OH236783   4.441   7.022   5.066
12281TIP3    H136784   4.528   6.988   5.084
12281TIP3    H236785   4.384   6.974   5.126
12282TIP3   OH236786   7.758   2.106   4.771
12282TIP3    H136787   7.691   2.065   4.826
12282TIP3    H236788   7.727   2.092   4.682
12283TIP3   OH236789   7.883   3.076   6.702
12283TIP3    H136790   7.922   2.993   6.673
12283TIP3    H236791   7.950   3.117   6.756
12284TIP3   OH236792   2.049   5.532   2.582
12284TIP3    H136793   2.026   5.439   2.582
12284TIP3    H236794   2.002   5.569   2.656
12285TIP3   OH236795   7.352   6.066   3.307
12285TIP3    H136796   7.300   6.003   3.356
12285TIP3    H236797   7.372   6.135   3.371
12286TIP3   OH236798   0.957   1.323   1.328
12286TIP3    H136799   0.951   1.398   1.388
12286TIP3    H236800   1.008   1.258   1.377
12287TIP3   OH236801   4.786   7.501   0.117
12287TIP3    H136802   4.738   7.579   0.090
12287TIP3    H236803   4.829   7.526   0.199
12288TIP3   OH236804   1.100   0.321   4.485
12288TIP3    H136805   1.142   0.349   4.403
12288TIP3    H236806   1.169   0.327   4.551
12289TIP3   OH236807   3.477   5.000   3.822
12289TIP3    H136808   3.491   5.057   3.746
12289TIP3    H236809   3.422   5.053   3.880
12290TIP3   OH236810   1.864   7.404   3.992
12290TIP3    H136811   1.829   7.352   3.920
12290TIP3    H236812   1.876   7.341   4.063
12291TIP3   OH236813   3.821   0.470   3.686
12291TIP3    H136814   3.887   0.474   3.617
12291TIP3    H236815   3.740   0.500   3.644
12292TIP3   OH236816   3.498   0.513   5.711
12292TIP3    H136817   3.526   0.591   5.757
12292TIP3    H236818   3.577   0.481   5.667
12293TIP3   OH236819   3.378   3.560   5.442
12293TIP3    H136820   3.391   3.519   5.356
12293TIP3    H236821   3.400   3.491   5.504
12294TIP3   OH236822   6.963   4.363   0.406
12294TIP3    H136823   7.041   4.312   0.426
12294TIP3    H236824   6.985   4.452   0.433
12295TIP3   OH236825   0.765   4.453   2.861
12295TIP3    H136826   0.701   4.522   2.878
12295TIP3    H236827   0.849   4.491   2.889
12296TIP3   OH236828   3.903   2.685   3.938
12296TIP3    H136829   3.812   2.660   3.949
12296TIP3    H236830   3.912   2.767   3.986
12297TIP3   OH236831   4.292   7.102   5.825
12297TIP3    H136832   4.334   7.165   5.766
12297TIP3    H236833   4.241   7.156   5.885
12298TIP3   OH236834   1.264   2.259   0.351
12298TIP3    H136835   1.176   2.271   0.315
12298TIP3    H236836   1.259   2.178   0.401
12299TIP3   OH236837   6.275   5.091   6.032
12299TIP3    H136838   6.317   5.019   6.079
12299TIP3    H236839   6.243   5.051   5.951
12300TIP3   OH236840   8.140   7.494   5.754
12300TIP3    H136841   8.233   7.515   5.748
12300TIP3    H236842   8.095   7.573   5.723
12301TIP3   OH236843   7.936   4.542   0.665
12301TIP3    H136844   7.928   4.446   0.666
12301TIP3    H236845   7.963   4.564   0.754
12302TIP3   OH236846   0.211   0.476   4.767
12302TIP3    H136847   0.221   0.503   4.858
12302TIP3    H236848   0.229   0.382   4.767
12303TIP3   OH236849   5.398   7.480   3.876
12303TIP3    H136850   5.455   7.405   3.859
12303TIP3    H236851   5.321   7.465   3.821
12304TIP3   OH236852   5.639   5.792   4.688
12304TIP3    H136853   5.640   5.820   4.596
12304TIP3    H236854   5.546   5.782   4.708
12305TIP3   OH236855   0.560   7.556   5.846
12305TIP3    H136856   0.642   7.529   5.805
12305TIP3    H236857   0.530   7.630   5.794
12306TIP3   OH236858   5.775   3.845   0.669
12306TIP3    H136859   5.746   3.774   0.726
12306TIP3    H236860   5.868   3.829   0.655
12307TIP3   OH236861   7.063   7.461   3.978
12307TIP3    H136862   7.044   7.422   3.892
12307TIP3    H236863   7.041   7.554   3.967
12308TIP3   OH236864   0.361   6.246   0.433
12308TIP3    H136865   0.372   6.158   0.396
12308TIP3    H236866   0.408   6.243   0.517
12309TIP3   OH236867   6.137   0.984   0.581
12309TIP3    H136868   6.084   1.060   0.607
12309TIP3    H236869   6.200   1.019   0.519
12310TIP3   OH236870   4.266   2.460   1.937
12310TIP3    H136871   4.220   2.403   1.875
12310TIP3    H236872   4.223   2.545   1.925
12311TIP3   OH236873   4.975   3.962   4.152
12311TIP3    H136874   5.013   3.887   4.105
12311TIP3    H236875   4.897   3.984   4.101
12312TIP3   OH236876   4.858   0.421   2.149
12312TIP3    H136877   4.910   0.438   2.228
12312TIP3    H236878   4.816   0.505   2.130
12313TIP3   OH236879   8.022   5.260   6.211
12313TIP3    H136880   8.104   5.308   6.224
12313TIP3    H236881   8.045   5.169   6.229
12314TIP3   OH236882   8.013   1.664   1.398
12314TIP3    H136883   7.921   1.669   1.423
12314TIP3    H236884   8.018   1.588   1.341
12315TIP3   OH236885   7.236   1.578   6.256
12315TIP3    H136886   7.245   1.568   6.351
12315TIP3    H236887   7.155   1.533   6.234
12316TIP3   OH236888   1.436   7.297   1.830
12316TIP3    H136889   1.442   7.206   1.801
12316TIP3    H236890   1.510   7.308   1.890
12317TIP3   OH236891   6.225   0.662   2.120
12317TIP3    H136892   6.160   0.621   2.177
12317TIP3    H236893   6.178   0.678   2.038
12318TIP3   OH236894   7.335   6.179   4.892
12318TIP3    H136895   7.335   6.090   4.928
12318TIP3    H236896   7.252   6.187   4.846
12319TIP3   OH236897   0.081   5.797   2.853
12319TIP3    H136898   0.014   5.744   2.810
12319TIP3    H236899   0.049   5.887   2.846
12320TIP3   OH236900   7.070   1.956   2.077
12320TIP3    H136901   7.076   1.981   2.169
12320TIP3    H236902   7.123   1.877   2.069
12321TIP3   OH236903   0.909   5.901   5.299
12321TIP3    H136904   1.005   5.907   5.294
12321TIP3    H236905   0.882   5.982   5.341
12322TIP3   OH236906   4.623   4.499   5.896
12322TIP3    H136907   4.676   4.579   5.891
12322TIP3    H236908   4.636   4.467   5.984
12323TIP3   OH236909   5.142   5.115   1.796
12323TIP3    H136910   5.209   5.117   1.865
12323TIP3    H236911   5.188   5.080   1.720
12324TIP3   OH236912   0.862   0.926   0.513
12324TIP3    H136913   0.827   0.843   0.480
12324TIP3    H236914   0.810   0.993   0.469
12325TIP3   OH236915   6.105   7.815   6.658
12325TIP3    H136916   6.096   7.904   6.692
12325TIP3    H236917   6.181   7.818   6.601
12326TIP3   OH236918   3.059   5.563   2.540
12326TIP3    H136919   3.021   5.481   2.572
12326TIP3    H236920   3.059   5.621   2.616
12327TIP3   OH236921   1.200   1.347   0.638
12327TIP3    H136922   1.183   1.260   0.601
12327TIP3    H236923   1.248   1.330   0.719
12328TIP3   OH236924   3.626   2.486   5.244
12328TIP3    H136925   3.674   2.501   5.325
12328TIP3    H236926   3.644   2.395   5.221
12329TIP3   OH236927   4.333   4.940   6.554
12329TIP3    H136928   4.261   4.912   6.611
12329TIP3    H236929   4.409   4.942   6.612
12330TIP3   OH236930   0.249   6.638   4.731
12330TIP3    H136931   0.241   6.658   4.638
12330TIP3    H236932   0.213   6.715   4.775
12331TIP3   OH236933   3.850   7.405   5.716
12331TIP3    H136934   3.838   7.428   5.808
12331TIP3    H236935   3.944   7.394   5.705
12332TIP3   OH236936   3.225   2.496   2.212
12332TIP3    H136937   3.185   2.561   2.270
12332TIP3    H236938   3.153   2.466   2.156
12333TIP3   OH236939   1.859   4.692   1.521
12333TIP3    H136940   1.788   4.686   1.457
12333TIP3    H236941   1.839   4.771   1.571
12334TIP3   OH236942   2.470   0.891   2.234
12334TIP3    H136943   2.416   0.829   2.284
12334TIP3    H236944   2.544   0.839   2.203
12335TIP3   OH236945   8.301   7.699   5.951
12335TIP3    H136946   8.329   7.669   5.864
12335TIP3    H236947   8.253   7.780   5.934
12336TIP3   OH236948   2.169   7.305   4.453
12336TIP3    H136949   2.154   7.214   4.478
12336TIP3    H236950   2.107   7.355   4.506
12337TIP3   OH236951   2.094   7.700   4.556
12337TIP3    H136952   2.035   7.776   4.565
12337TIP3    H236953   2.108   7.692   4.462
12338TIP3   OH236954   5.901   4.795   4.957
12338TIP3    H136955   5.937   4.796   5.046
12338TIP3    H236956   5.972   4.762   4.903
12339TIP3   OH236957   1.134   1.754   4.139
12339TIP3    H136958   1.044   1.754   4.106
12339TIP3    H236959   1.178   1.822   4.089
12340TIP3   OH236960   0.515   0.180   3.016
12340TIP3    H136961   0.545   0.180   3.107
12340TIP3    H236962   0.565   0.250   2.974
12341TIP3   OH236963   3.026   6.961   4.350
12341TIP3    H136964   3.077   7.040   4.333
12341TIP3    H236965   3.022   6.954   4.445
12342TIP3   OH236966   1.477   5.696   1.663
12342TIP3    H136967   1.498   5.789   1.668
12342TIP3    H236968   1.394   5.692   1.615
12343TIP3   OH236969   4.978   6.114   5.097
12343TIP3    H136970   4.957   6.127   5.005
12343TIP3    H236971   4.897   6.080   5.136
12344TIP3   OH236972   4.604   5.980   4.892
12344TIP3    H136973   4.575   6.043   4.959
12344TIP3    H236974   4.532   5.918   4.884
12345TIP3   OH236975   7.360   6.526   6.125
12345TIP3    H136976   7.444   6.568   6.142
12345TIP3    H236977   7.298   6.574   6.180
12346TIP3   OH236978   0.908   6.540   1.420
12346TIP3    H136979   0.839   6.510   1.479
12346TIP3    H236980   0.959   6.461   1.402
12347TIP3   OH236981   6.998   0.203   4.750
12347TIP3    H136982   6.945   0.169   4.822
12347TIP3    H236983   7.043   0.278   4.788
12348TIP3   OH236984   7.980   2.492   0.995
12348TIP3    H136985   8.040   2.564   1.016
12348TIP3    H236986   8.018   2.416   1.038
12349TIP3   OH236987   3.970   4.992   5.526
12349TIP3    H136988   4.029   4.941   5.470
12349TIP3    H236989   3.885   4.950   5.516
12350TIP3   OH236990   8.267   1.777   0.393
12350TIP3    H136991   8.283   1.770   0.487
12350TIP3    H236992   8.327   1.846   0.364
12351TIP3   OH236993   3.450   4.991   5.507
12351TIP3    H136994   3.458   4.902   5.543
12351TIP3    H236995   3.356   5.009   5.507
12352TIP3   OH236996   7.050   1.349   3.780
12352TIP3    H136997   7.027   1.308   3.697
12352TIP3    H236998   7.034   1.442   3.766
12353TIP3   OH236999   3.728   6.321   3.188
12353TIP3    H137000   3.650   6.335   3.243
12353TIP3    H237001   3.762   6.409   3.173
12354TIP3   OH237002   1.679   1.719   1.849
12354TIP3    H137003   1.700   1.813   1.844
12354TIP3    H237004   1.762   1.677   1.873
12355TIP3   OH237005   2.331   1.174   0.420
12355TIP3    H137006   2.382   1.241   0.465
12355TIP3    H237007   2.362   1.091   0.456
12356TIP3   OH237008   1.391   2.446   4.819
12356TIP3    H137009   1.328   2.454   4.891
12356TIP3    H237010   1.476   2.451   4.862
12357TIP3   OH237011   7.297   0.285   0.404
12357TIP3    H137012   7.365   0.256   0.465
12357TIP3    H237013   7.315   0.235   0.324
12358TIP3   OH237014   0.724   4.543   1.238
12358TIP3    H137015   0.680   4.458   1.238
12358TIP3    H237016   0.721   4.571   1.329
12359TIP3   OH237017   5.995   3.573   5.647
12359TIP3    H137018   5.956   3.621   5.574
12359TIP3    H237019   5.925   3.566   5.712
12360TIP3   OH237020   2.351   1.494   6.501
12360TIP3    H137021   2.304   1.454   6.574
12360TIP3    H237022   2.443   1.476   6.519
12361TIP3   OH237023   1.274   4.826   3.795
12361TIP3    H137024   1.200   4.807   3.738
12361TIP3    H237025   1.269   4.760   3.864
12362TIP3   OH237026   0.105   5.535   3.265
12362TIP3    H137027   0.012   5.519   3.248
12362TIP3    H237028   0.122   5.620   3.225
12363TIP3   OH237029   1.234   7.771   6.242
12363TIP3    H137030   1.262   7.800   6.329
12363TIP3    H237031   1.240   7.849   6.187
12364TIP3   OH237032   7.651   0.986   5.551
12364TIP3    H137033   7.675   0.898   5.521
12364TIP3    H237034   7.582   0.971   5.615
12365TIP3   OH237035   1.472   0.490   1.625
12365TIP3    H137036   1.377   0.497   1.616
12365TIP3    H237037   1.485   0.402   1.661
12366TIP3   OH237038   2.425   3.400   3.626
12366TIP3    H137039   2.446   3.373   3.536
12366TIP3    H237040   2.332   3.423   3.623
12367TIP3   OH237041   8.184   2.822   1.620
12367TIP3    H137042   8.206   2.879   1.694
12367TIP3    H237043   8.166   2.737   1.660
12368TIP3   OH237044   4.947   0.665   3.138
12368TIP3    H137045   4.900   0.748   3.131
12368TIP3    H237046   4.999   0.660   3.057
12369TIP3   OH237047   5.967   6.582   0.727
12369TIP3    H137048   5.931   6.502   0.688
12369TIP3    H237049   6.015   6.551   0.804
12370TIP3   OH237050   2.944   7.549   0.819
12370TIP3    H137051   2.880   7.576   0.753
12370TIP3    H237052   2.945   7.621   0.882
12371TIP3   OH237053   0.038   4.849   1.724
12371TIP3    H137054   0.025   4.796   1.803
12371TIP3    H237055  -0.024   4.921   1.735
12372TIP3   OH237056   4.504   3.330   0.099
12372TIP3    H137057   4.475   3.363   0.014
12372TIP3    H237058   4.440   3.364   0.161
12373TIP3   OH237059   5.534   5.923   1.987
12373TIP3    H137060   5.549   6.017   1.983
12373TIP3    H237061   5.500   5.907   2.075
12374TIP3   OH237062   0.930   0.827   5.769
12374TIP3    H137063   0.912   0.900   5.710
12374TIP3    H237064   0.859   0.765   5.753
12375TIP3   OH237065   4.240   4.422   5.402
12375TIP3    H137066   4.192   4.347   5.437
12375TIP3    H237067   4.228   4.415   5.307
12376TIP3   OH237068   5.833   5.551   3.565
12376TIP3    H137069   5.790   5.630   3.535
12376TIP3    H237070   5.818   5.487   3.496
12377TIP3   OH237071   0.989   2.409   4.883
12377TIP3    H137072   0.994   2.388   4.789
12377TIP3    H237073   0.993   2.325   4.927
12378TIP3   OH237074   5.801   1.298   6.567
12378TIP3    H137075   5.778   1.372   6.511
12378TIP3    H237076   5.817   1.226   6.506
12379TIP3   OH237077   4.042   4.346   3.209
12379TIP3    H137078   3.956   4.321   3.244
12379TIP3    H237079   4.100   4.344   3.285
12380TIP3   OH237080   7.377   7.386   5.216
12380TIP3    H137081   7.289   7.406   5.184
12380TIP3    H237082   7.374   7.410   5.309
12381TIP3   OH237083   7.380   1.448   4.927
12381TIP3    H137084   7.292   1.431   4.892
12381TIP3    H237085   7.435   1.381   4.887
12382TIP3   OH237086   7.801   2.045   1.957
12382TIP3    H137087   7.812   2.116   1.893
12382TIP3    H237088   7.890   2.023   1.984
12383TIP3   OH237089   3.011   7.789   1.751
12383TIP3    H137090   3.093   7.744   1.730
12383TIP3    H237091   3.006   7.789   1.846
12384TIP3   OH237092   0.036   1.055   1.215
12384TIP3    H137093   0.105   1.017   1.269
12384TIP3    H237094   0.039   1.005   1.133
12385TIP3   OH237095   8.214   5.554   3.235
12385TIP3    H137096   8.209   5.635   3.185
12385TIP3    H237097   8.128   5.546   3.277
12386TIP3   OH237098   0.631   4.352   6.134
12386TIP3    H137099   0.703   4.393   6.182
12386TIP3    H237100   0.653   4.259   6.132
12387TIP3   OH237101   6.758   5.713   4.416
12387TIP3    H137102   6.710   5.791   4.385
12387TIP3    H237103   6.755   5.653   4.341
12388TIP3   OH237104   0.363   4.684   4.097
12388TIP3    H137105   0.369   4.739   4.175
12388TIP3    H237106   0.280   4.638   4.106
12389TIP3   OH237107   8.101   6.094   3.031
12389TIP3    H137108   8.110   6.076   3.124
12389TIP3    H237109   8.101   6.189   3.024
12390TIP3   OH237110   2.097   4.929   6.238
12390TIP3    H137111   2.175   4.951   6.289
12390TIP3    H237112   2.024   4.944   6.298
12391TIP3   OH237113   0.987   2.054   2.443
12391TIP3    H137114   1.044   1.992   2.399
12391TIP3    H237115   0.965   2.013   2.526
12392TIP3   OH237116   3.573  -0.006   4.272
12392TIP3    H137117   3.513   0.068   4.263
12392TIP3    H237118   3.610   0.004   4.360
12393TIP3   OH237119   1.646   3.683   6.252
12393TIP3    H137120   1.707   3.615   6.277
12393TIP3    H237121   1.614   3.656   6.165
12394TIP3   OH237122   1.112   4.900   1.688
12394TIP3    H137123   1.124   4.816   1.644
12394TIP3    H237124   1.038   4.941   1.645
12395TIP3   OH237125   7.717   1.421   0.274
12395TIP3    H137126   7.812   1.433   0.283
12395TIP3    H237127   7.682   1.508   0.258
12396TIP3   OH237128   6.629   0.344   5.900
12396TIP3    H137129   6.713   0.350   5.855
12396TIP3    H237130   6.627   0.419   5.958
12397TIP3   OH237131   5.742   5.839   0.821
12397TIP3    H137132   5.650   5.823   0.844
12397TIP3    H237133   5.777   5.753   0.799
12398TIP3   OH237134   6.041   6.289   1.965
12398TIP3    H137135   5.982   6.277   1.890
12398TIP3    H237136   6.126   6.305   1.925
12399TIP3   OH237137   8.206   2.540   3.349
12399TIP3    H137138   8.240   2.504   3.267
12399TIP3    H237139   8.131   2.485   3.371
12400TIP3   OH237140   5.226   6.992   2.842
12400TIP3    H137141   5.317   7.017   2.857
12400TIP3    H237142   5.231   6.902   2.809
12401TIP3   OH237143   8.386   4.127   4.603
12401TIP3    H137144   8.367   4.036   4.580
12401TIP3    H237145   8.307   4.157   4.647
12402TIP3   OH237146   2.377   1.621   2.061
12402TIP3    H137147   2.374   1.575   2.144
12402TIP3    H237148   2.455   1.677   2.068
12403TIP3   OH237149   1.775   1.379   5.704
12403TIP3    H137150   1.854   1.378   5.650
12403TIP3    H237151   1.804   1.414   5.788
12404TIP3   OH237152   4.921   2.815   6.027
12404TIP3    H137153   4.874   2.858   6.099
12404TIP3    H237154   4.861   2.747   5.997
12405TIP3   OH237155   6.188   1.252   0.163
12405TIP3    H137156   6.206   1.346   0.160
12405TIP3    H237157   6.126   1.242   0.236
12406TIP3   OH237158   0.506   0.192   5.161
12406TIP3    H137159   0.527   0.120   5.221
12406TIP3    H237160   0.591   0.225   5.133
12407TIP3   OH237161   0.485   3.486   4.507
12407TIP3    H137162   0.428   3.563   4.502
12407TIP3    H237163   0.429   3.413   4.483
12408TIP3   OH237164   6.452   1.272   6.775
12408TIP3    H137165   6.364   1.256   6.740
12408TIP3    H237166   6.438   1.279   6.870
12409TIP3   OH237167   5.600   3.520   5.032
12409TIP3    H137168   5.664   3.523   5.103
12409TIP3    H237169   5.551   3.602   5.041
12410TIP3   OH237170   2.190   0.279   6.222
12410TIP3    H137171   2.202   0.245   6.133
12410TIP3    H237172   2.269   0.331   6.238
12411TIP3   OH237173   7.434   6.747   2.339
12411TIP3    H137174   7.415   6.832   2.300
12411TIP3    H237175   7.459   6.692   2.265
12412TIP3   OH237176   1.914   0.970   0.703
12412TIP3    H137177   1.908   1.029   0.778
12412TIP3    H237178   2.007   0.958   0.690
12413TIP3   OH237179   2.766   0.818   5.301
12413TIP3    H137180   2.812   0.823   5.217
12413TIP3    H237181   2.765   0.909   5.332
12414TIP3   OH237182   1.261   2.494   5.096
12414TIP3    H137183   1.199   2.536   5.036
12414TIP3    H237184   1.218   2.413   5.122
12415TIP3   OH237185   7.894   6.861   0.830
12415TIP3    H137186   7.892   6.777   0.874
12415TIP3    H237187   7.804   6.876   0.801
12416TIP3   OH237188   4.815   1.264   6.316
12416TIP3    H137189   4.811   1.344   6.368
12416TIP3    H237190   4.875   1.207   6.364
12417TIP3   OH237191   4.726   3.020   3.008
12417TIP3    H137192   4.766   2.982   2.930
12417TIP3    H237193   4.800   3.045   3.063
12418TIP3   OH237194   6.714   1.104   1.230
12418TIP3    H137195   6.695   1.024   1.278
12418TIP3    H237196   6.653   1.168   1.265
12419TIP3   OH237197   6.345   0.724   6.790
12419TIP3    H137198   6.282   0.674   6.843
12419TIP3    H237199   6.407   0.758   6.853
12420TIP3   OH237200   6.654   6.583   6.676
12420TIP3    H137201   6.627   6.578   6.768
12420TIP3    H237202   6.673   6.675   6.661
12421TIP3   OH237203   3.739   1.008   0.069
12421TIP3    H137204   3.692   0.926   0.079
12421TIP3    H237205   3.824   0.993   0.111
12422TIP3   OH237206   7.177   7.898   2.147
12422TIP3    H137207   7.235   7.897   2.071
12422TIP3    H237208   7.102   7.845   2.121
12423TIP3   OH237209   5.638   6.904   6.444
12423TIP3    H137210   5.724   6.867   6.424
12423TIP3    H237211   5.618   6.869   6.531
12424TIP3   OH237212   5.362   7.430   0.833
12424TIP3    H137213   5.306   7.508   0.839
12424TIP3    H237214   5.314   7.371   0.775
12425TIP3   OH237215   1.645   5.704   2.325
12425TIP3    H137216   1.624   5.686   2.233
12425TIP3    H237217   1.686   5.624   2.356
12426TIP3   OH237218   6.345   1.416   2.146
12426TIP3    H137219   6.366   1.377   2.061
12426TIP3    H237220   6.429   1.426   2.190
12427TIP3   OH237221   4.071   3.568   2.346
12427TIP3    H137222   4.132   3.518   2.291
12427TIP3    H237223   3.984   3.539   2.317
12428TIP3   OH237224   2.235   5.280   2.326
12428TIP3    H137225   2.285   5.286   2.408
12428TIP3    H237226   2.158   5.228   2.349
12429TIP3   OH237227   7.494   4.663   0.798
12429TIP3    H137228   7.406   4.669   0.835
12429TIP3    H237229   7.480   4.646   0.705
12430TIP3   OH237230   7.107   4.707   6.734
12430TIP3    H137231   7.164   4.725   6.809
12430TIP3    H237232   7.043   4.778   6.735
12431TIP3   OH237233   1.848   2.027   3.041
12431TIP3    H137234   1.796   2.084   2.984
12431TIP3    H237235   1.823   1.938   3.016
12432TIP3   OH237236   2.418   5.347   5.273
12432TIP3    H137237   2.341   5.390   5.235
12432TIP3    H237238   2.427   5.386   5.360
12433TIP3   OH237239   4.799   2.389   5.545
12433TIP3    H137240   4.819   2.303   5.510
12433TIP3    H237241   4.879   2.416   5.590
12434TIP3   OH237242   4.432   5.143   5.269
12434TIP3    H137243   4.383   5.168   5.348
12434TIP3    H237244   4.461   5.054   5.286
12435TIP3   OH237245   1.864   5.939   4.242
12435TIP3    H137246   1.859   5.897   4.328
12435TIP3    H237247   1.869   6.033   4.262
12436TIP3   OH237248   4.131   4.101   0.854
12436TIP3    H137249   4.056   4.107   0.912
12436TIP3    H237250   4.117   4.170   0.789
12437TIP3   OH237251   6.482   2.589   0.515
12437TIP3    H137252   6.571   2.606   0.547
12437TIP3    H237253   6.494   2.557   0.426
12438TIP3   OH237254   8.163   3.965   0.609
12438TIP3    H137255   8.120   3.916   0.539
12438TIP3    H237256   8.201   4.041   0.566
12439TIP3   OH237257   2.276   3.854   5.877
12439TIP3    H137258   2.371   3.850   5.892
12439TIP3    H237259   2.244   3.768   5.905
12440TIP3   OH237260   6.601   6.062   5.934
12440TIP3    H137261   6.648   6.000   5.879
12440TIP3    H237262   6.665   6.130   5.953
12441TIP3   OH237263   3.657   4.019   4.539
12441TIP3    H137264   3.624   3.930   4.547
12441TIP3    H237265   3.730   4.024   4.601
12442TIP3   OH237266   7.703   5.391   3.375
12442TIP3    H137267   7.638   5.460   3.392
12442TIP3    H237268   7.673   5.351   3.293
12443TIP3   OH237269   4.317   3.306   4.333
12443TIP3    H137270   4.227   3.339   4.329
12443TIP3    H237271   4.310   3.224   4.382
12444TIP3   OH237272   6.403   5.845   5.957
12444TIP3    H137273   6.367   5.862   6.044
12444TIP3    H237274   6.453   5.924   5.936
12445TIP3   OH237275   6.108   2.035   3.865
12445TIP3    H137276   6.135   2.031   3.773
12445TIP3    H237277   6.085   2.126   3.879
12446TIP3   OH237278   1.385   4.705   2.846
12446TIP3    H137279   1.364   4.634   2.908
12446TIP3    H237280   1.355   4.784   2.891
12447TIP3   OH237281   7.309   7.369   6.392
12447TIP3    H137282   7.237   7.310   6.413
12447TIP3    H237283   7.291   7.449   6.440
12448TIP3   OH237284   7.135   5.331   3.544
12448TIP3    H137285   7.070   5.391   3.507
12448TIP3    H237286   7.113   5.246   3.507
12449TIP3   OH237287   2.604   3.931   4.528
12449TIP3    H137288   2.664   3.963   4.595
12449TIP3    H237289   2.657   3.928   4.448
12450TIP3   OH237290   5.242   7.559   4.299
12450TIP3    H137291   5.310   7.521   4.243
12450TIP3    H237292   5.286   7.631   4.344
12451TIP3   OH237293   1.905   0.382   2.678
12451TIP3    H137294   1.983   0.346   2.720
12451TIP3    H237295   1.844   0.396   2.750
12452TIP3   OH237296   7.373   7.101   5.419
12452TIP3    H137297   7.406   7.114   5.508
12452TIP3    H237298   7.435   7.040   5.379
12453TIP3   OH237299   5.727   6.434   2.506
12453TIP3    H137300   5.671   6.360   2.530
12453TIP3    H237301   5.693   6.508   2.556
12454TIP3   OH237302   6.937   4.713   2.557
12454TIP3    H137303   6.893   4.641   2.512
12454TIP3    H237304   6.943   4.684   2.648
12455TIP3   OH237305   7.605   5.654   3.242
12455TIP3    H137306   7.575   5.685   3.328
12455TIP3    H237307   7.692   5.693   3.231
12456TIP3   OH237308   7.498   0.930   5.793
12456TIP3    H137309   7.504   0.839   5.822
12456TIP3    H237310   7.471   0.979   5.871
12457TIP3   OH237311   5.333   4.529   0.246
12457TIP3    H137312   5.291   4.550   0.162
12457TIP3    H237313   5.282   4.456   0.281
12458TIP3   OH237314  -0.007   6.072   4.584
12458TIP3    H137315   0.071   6.099   4.634
12458TIP3    H237316   0.011   6.100   4.494
12459TIP3   OH237317   0.460   4.977   1.852
12459TIP3    H137318   0.510   4.971   1.770
12459TIP3    H237319   0.368   4.972   1.825
12460TIP3   OH237320  -0.039   7.008   4.020
12460TIP3    H137321  -0.033   6.955   3.941
12460TIP3    H237322   0.000   6.953   4.089
12461TIP3   OH237323   5.990   7.557   4.718
12461TIP3    H137324   6.051   7.630   4.732
12461TIP3    H237325   5.905   7.599   4.711
12462TIP3   OH237326   2.496   4.400   0.588
12462TIP3    H137327   2.460   4.311   0.584
12462TIP3    H237328   2.502   4.427   0.496
12463TIP3   OH237329   7.404   3.742   6.150
12463TIP3    H137330   7.381   3.804   6.219
12463TIP3    H237331   7.414   3.658   6.195
12464TIP3   OH237332   4.209   6.260   5.482
12464TIP3    H137333   4.189   6.337   5.428
12464TIP3    H237334   4.147   6.193   5.453
12465TIP3   OH237335   6.690   7.613   4.016
12465TIP3    H137336   6.700   7.521   4.040
12465TIP3    H237337   6.612   7.615   3.961
12466TIP3   OH237338   3.720   4.835   3.836
12466TIP3    H137339   3.764   4.887   3.903
12466TIP3    H237340   3.634   4.875   3.827
12467TIP3   OH237341   6.271   4.313   0.518
12467TIP3    H137342   6.256   4.285   0.608
12467TIP3    H237343   6.221   4.251   0.465
12468TIP3   OH237344   0.719   0.832   3.656
12468TIP3    H137345   0.645   0.795   3.704
12468TIP3    H237346   0.744   0.762   3.595
12469TIP3   OH237347   1.891   6.413   1.828
12469TIP3    H137348   1.870   6.411   1.734
12469TIP3    H237349   1.815   6.374   1.870
12470TIP3   OH237350   1.152   1.366   1.927
12470TIP3    H137351   1.061   1.392   1.943
12470TIP3    H237352   1.202   1.415   1.993
12471TIP3   OH237353   5.665   7.419   3.002
12471TIP3    H137354   5.735   7.361   2.971
12471TIP3    H237355   5.681   7.502   2.957
12472TIP3   OH237356   2.629   1.504   6.556
12472TIP3    H137357   2.720   1.527   6.575
12472TIP3    H237358   2.618   1.417   6.594
12473TIP3   OH237359   1.699   1.995   4.634
12473TIP3    H137360   1.661   1.908   4.639
12473TIP3    H237361   1.765   1.988   4.565
12474TIP3   OH237362   2.608   6.211   3.276
12474TIP3    H137363   2.600   6.138   3.214
12474TIP3    H237364   2.575   6.287   3.227
12475TIP3   OH237365   0.498   2.484   5.752
12475TIP3    H137366   0.512   2.517   5.841
12475TIP3    H237367   0.576   2.513   5.704
12476TIP3   OH237368   6.403   3.975   3.873
12476TIP3    H137369   6.416   3.903   3.811
12476TIP3    H237370   6.310   3.975   3.892
12477TIP3   OH237371   2.998   1.326   5.748
12477TIP3    H137372   2.932   1.280   5.799
12477TIP3    H237373   3.069   1.343   5.810
12478TIP3   OH237374   8.001   7.801   4.430
12478TIP3    H137375   7.929   7.770   4.483
12478TIP3    H237376   8.031   7.724   4.382
12479TIP3   OH237377   4.479   1.023   1.616
12479TIP3    H137378   4.574   1.032   1.613
12479TIP3    H237379   4.448   1.080   1.545
12480TIP3   OH237380   4.109   2.869   6.118
12480TIP3    H137381   4.027   2.880   6.165
12480TIP3    H237382   4.166   2.822   6.179
12481TIP3   OH237383   3.195   1.582   2.813
12481TIP3    H137384   3.102   1.567   2.794
12481TIP3    H237385   3.232   1.494   2.822
12482TIP3   OH237386   6.870   6.847   5.216
12482TIP3    H137387   6.784   6.813   5.191
12482TIP3    H237388   6.907   6.881   5.134
12483TIP3   OH237389   1.538   1.153   2.217
12483TIP3    H137390   1.511   1.072   2.175
12483TIP3    H237391   1.568   1.209   2.146
12484TIP3   OH237392   3.026   6.982   6.583
12484TIP3    H137393   3.047   7.013   6.495
12484TIP3    H237394   3.098   6.922   6.605
12485TIP3   OH237395   0.780   4.489   2.128
12485TIP3    H137396   0.703   4.544   2.111
12485TIP3    H237397   0.851   4.530   2.079
12486TIP3   OH237398   0.378   0.507   1.211
12486TIP3    H137399   0.290   0.471   1.223
12486TIP3    H237400   0.426   0.439   1.165
12487TIP3   OH237401   2.886   4.439   4.435
12487TIP3    H137402   2.961   4.476   4.481
12487TIP3    H237403   2.894   4.471   4.345
12488TIP3   OH237404   6.345   2.477   2.505
12488TIP3    H137405   6.293   2.450   2.580
12488TIP3    H237406   6.287   2.532   2.453
12489TIP3   OH237407   5.013   5.034   6.716
12489TIP3    H137408   4.934   5.021   6.768
12489TIP3    H237409   4.981   5.038   6.625
12490TIP3   OH237410   0.131   5.019   4.057
12490TIP3    H137411   0.066   5.057   4.116
12490TIP3    H237412   0.155   5.091   3.998
12491TIP3   OH237413   7.638   1.038   1.455
12491TIP3    H137414   7.676   0.999   1.534
12491TIP3    H237415   7.593   1.116   1.487
12492TIP3   OH237416   1.741   3.766   2.317
12492TIP3    H137417   1.773   3.834   2.376
12492TIP3    H237418   1.648   3.758   2.337
12493TIP3   OH237419   4.790   7.609   3.517
12493TIP3    H137420   4.857   7.553   3.478
12493TIP3    H237421   4.834   7.693   3.530
12494TIP3   OH237422   4.285   4.863   1.471
12494TIP3    H137423   4.242   4.782   1.501
12494TIP3    H237424   4.304   4.911   1.551
12495TIP3   OH237425   6.617   2.006   0.962
12495TIP3    H137426   6.709   2.014   0.988
12495TIP3    H237427   6.603   1.912   0.952
12496TIP3   OH237428   0.260   6.288   2.903
12496TIP3    H137429   0.277   6.377   2.873
12496TIP3    H237430   0.165   6.282   2.909
12497TIP3   OH237431   6.698   7.057   4.537
12497TIP3    H137432   6.613   7.062   4.492
12497TIP3    H237433   6.731   6.970   4.517
12498TIP3   OH237434   3.980   6.653   1.554
12498TIP3    H137435   3.919   6.599   1.503
12498TIP3    H237436   3.928   6.687   1.626
12499TIP3   OH237437   8.000   7.314   4.742
12499TIP3    H137438   8.009   7.235   4.690
12499TIP3    H237439   7.941   7.289   4.814
12500TIP3   OH237440   5.340   3.082   1.798
12500TIP3    H137441   5.364   3.087   1.890
12500TIP3    H237442   5.244   3.077   1.798
12501TIP3   OH237443   6.796   6.107   6.366
12501TIP3    H137444   6.715   6.154   6.346
12501TIP3    H237445   6.864   6.174   6.359
12502TIP3   OH237446   5.640   5.011   3.841
12502TIP3    H137447   5.676   5.058   3.917
12502TIP3    H237448   5.546   5.029   3.844
12503TIP3   OH237449   3.446   7.910   5.288
12503TIP3    H137450   3.426   8.003   5.287
12503TIP3    H237451   3.362   7.867   5.308
12504TIP3   OH237452   6.820   3.282   0.707
12504TIP3    H137453   6.879   3.254   0.777
12504TIP3    H237454   6.753   3.334   0.751
12505TIP3   OH237455   5.487   4.475   6.209
12505TIP3    H137456   5.526   4.389   6.226
12505TIP3    H237457   5.415   4.456   6.149
12506TIP3   OH237458   3.498   4.047   6.202
12506TIP3    H137459   3.410   4.011   6.207
12506TIP3    H237460   3.505   4.105   6.278
12507TIP3   OH237461   4.403   4.261   1.067
12507TIP3    H137462   4.437   4.184   1.022
12507TIP3    H237463   4.461   4.332   1.039
12508TIP3   OH237464   1.815   2.264   3.251
12508TIP3    H137465   1.804   2.348   3.207
12508TIP3    H237466   1.800   2.199   3.183
12509TIP3   OH237467   5.548   1.143   6.782
12509TIP3    H137468   5.465   1.152   6.829
12509TIP3    H237469   5.522   1.115   6.694
12510TIP3   OH237470   4.552   3.366   4.908
12510TIP3    H137471   4.508   3.375   4.824
12510TIP3    H237472   4.632   3.317   4.889
12511TIP3   OH237473   5.498   0.410   6.404
12511TIP3    H137474   5.421   0.465   6.397
12511TIP3    H237475   5.556   0.441   6.335
12512TIP3   OH237476   4.639   3.268   1.676
12512TIP3    H137477   4.704   3.321   1.722
12512TIP3    H237478   4.587   3.331   1.626
12513TIP3   OH237479   7.120   2.825   5.265
12513TIP3    H137480   7.215   2.834   5.273
12513TIP3    H237481   7.086   2.855   5.349
12514TIP3   OH237482   0.923   6.093   0.885
12514TIP3    H137483   0.856   6.153   0.916
12514TIP3    H237484   0.877   6.036   0.823
12515TIP3   OH237485   1.335   7.172   6.013
12515TIP3    H137486   1.373   7.127   5.938
12515TIP3    H237487   1.241   7.175   5.994
12516TIP3   OH237488   7.682   5.297   0.522
12516TIP3    H137489   7.602   5.244   0.530
12516TIP3    H237490   7.683   5.323   0.430
12517TIP3   OH237491   7.657   4.343   6.878
12517TIP3    H137492   7.642   4.346   6.783
12517TIP3    H237493   7.681   4.252   6.896
12518TIP3   OH237494   0.380   3.847   0.103
12518TIP3    H137495   0.466   3.865   0.142
12518TIP3    H237496   0.350   3.931   0.071
12519TIP3   OH237497   1.361   3.937   5.691
12519TIP3    H137498   1.297   3.877   5.730
12519TIP3    H237499   1.350   4.019   5.739
12520TIP3   OH237500   1.526   0.816   5.544
12520TIP3    H137501   1.561   0.753   5.480
12520TIP3    H237502   1.431   0.804   5.540
12521TIP3   OH237503   0.341   7.594   3.384
12521TIP3    H137504   0.402   7.659   3.420
12521TIP3    H237505   0.397   7.526   3.347
12522TIP3   OH237506   6.096   2.064   5.064
12522TIP3    H137507   6.191   2.074   5.060
12522TIP3    H237508   6.073   2.086   5.154
12523TIP3   OH237509   1.493   3.186   3.207
12523TIP3    H137510   1.499   3.093   3.230
12523TIP3    H237511   1.430   3.221   3.270
12524TIP3   OH237512   4.392   0.677   5.816
12524TIP3    H137513   4.459   0.628   5.769
12524TIP3    H237514   4.376   0.754   5.762
12525TIP3   OH237515   3.746   6.336   4.101
12525TIP3    H137516   3.696   6.276   4.047
12525TIP3    H237517   3.703   6.333   4.187
12526TIP3   OH237518   3.526   2.271   5.608
12526TIP3    H137519   3.475   2.348   5.583
12526TIP3    H237520   3.610   2.306   5.639
12527TIP3   OH237521   3.358   4.357   2.303
12527TIP3    H137522   3.436   4.355   2.359
12527TIP3    H237523   3.288   4.323   2.358
12528TIP3   OH237524   1.026   5.030   2.677
12528TIP3    H137525   0.934   5.009   2.691
12528TIP3    H237526   1.045   4.996   2.589
12529TIP3   OH237527   4.307   1.027   0.787
12529TIP3    H137528   4.318   1.072   0.703
12529TIP3    H237529   4.214   1.032   0.805
12530TIP3   OH237530   5.519   7.432   3.216
12530TIP3    H137531   5.587   7.436   3.149
12530TIP3    H237532   5.445   7.391   3.173
12531TIP3   OH237533   5.163   4.205   1.304
12531TIP3    H137534   5.207   4.122   1.324
12531TIP3    H237535   5.153   4.205   1.209
12532TIP3   OH237536   1.582   0.113   4.576
12532TIP3    H137537   1.563   0.019   4.586
12532TIP3    H237538   1.672   0.115   4.544
12533TIP3   OH237539   3.420   5.808   4.822
12533TIP3    H137540   3.332   5.826   4.855
12533TIP3    H237541   3.406   5.768   4.737
12534TIP3   OH237542   3.359   1.171   4.656
12534TIP3    H137543   3.397   1.236   4.715
12534TIP3    H237544   3.269   1.200   4.642
12535TIP3   OH237545   0.827   1.917   3.533
12535TIP3    H137546   0.764   1.859   3.489
12535TIP3    H237547   0.774   1.969   3.592
12536TIP3   OH237548   3.150   6.487   6.680
12536TIP3    H137549   3.116   6.539   6.752
12536TIP3    H237550   3.099   6.406   6.682
12537TIP3   OH237551   0.324   5.235   0.628
12537TIP3    H137552   0.244   5.219   0.579
12537TIP3    H237553   0.373   5.153   0.621
12538TIP3   OH237554   6.399   3.439   5.697
12538TIP3    H137555   6.330   3.462   5.634
12538TIP3    H237556   6.475   3.419   5.643
12539TIP3   OH237557   5.399   1.063   0.772
12539TIP3    H137558   5.341   1.003   0.819
12539TIP3    H237559   5.374   1.053   0.680
12540TIP3   OH237560   4.601   2.374   4.829
12540TIP3    H137561   4.681   2.362   4.880
12540TIP3    H237562   4.552   2.293   4.841
12541TIP3   OH237563   2.359   3.798   2.868
12541TIP3    H137564   2.396   3.771   2.952
12541TIP3    H237565   2.265   3.784   2.877
12542TIP3   OH237566   8.360   5.512   1.760
12542TIP3    H137567   8.339   5.591   1.811
12542TIP3    H237568   8.364   5.442   1.825
12543TIP3   OH237569   5.399   4.968   6.866
12543TIP3    H137570   5.479   5.010   6.835
12543TIP3    H237571   5.428   4.882   6.897
12544TIP3   OH237572   1.592   0.938   0.940
12544TIP3    H137573   1.522   0.971   0.998
12544TIP3    H237574   1.669   0.932   0.996
12545TIP3   OH237575   5.696   5.796   0.050
12545TIP3    H137576   5.622   5.853   0.027
12545TIP3    H237577   5.704   5.803   0.145
12546TIP3   OH237578   0.715   2.968   4.209
12546TIP3    H137579   0.666   3.049   4.202
12546TIP3    H237580   0.800   2.994   4.245
12547TIP3   OH237581   2.490   4.764   4.509
12547TIP3    H137582   2.518   4.677   4.479
12547TIP3    H237583   2.416   4.746   4.567
12548TIP3   OH237584   1.447   4.437   0.347
12548TIP3    H137585   1.484   4.407   0.430
12548TIP3    H237586   1.478   4.526   0.338
12549TIP3   OH237587   3.289   4.825   2.595
12549TIP3    H137588   3.235   4.832   2.516
12549TIP3    H237589   3.321   4.913   2.610
12550TIP3   OH237590   8.054   0.732   0.100
12550TIP3    H137591   8.041   0.638   0.088
12550TIP3    H237592   8.035   0.748   0.192
12551TIP3   OH237593   4.158   5.049   4.237
12551TIP3    H137594   4.155   5.123   4.176
12551TIP3    H237595   4.118   5.083   4.317
12552TIP3   OH237596   3.306   6.447   4.227
12552TIP3    H137597   3.276   6.422   4.140
12552TIP3    H237598   3.262   6.385   4.286
12553TIP3   OH237599   6.951   6.649   0.501
12553TIP3    H137600   7.037   6.689   0.488
12553TIP3    H237601   6.965   6.557   0.481
12554TIP3   OH237602   2.055   3.598   6.327
12554TIP3    H137603   2.099   3.647   6.396
12554TIP3    H237604   2.009   3.665   6.276
12555TIP3   OH237605   2.231   5.684   5.263
12555TIP3    H137606   2.182   5.721   5.337
12555TIP3    H237607   2.316   5.660   5.300
12556TIP3   OH237608   7.824   6.631   3.029
12556TIP3    H137609   7.902   6.584   2.999
12556TIP3    H237610   7.755   6.564   3.032
12557TIP3   OH237611   0.056   5.290   5.713
12557TIP3    H137612   0.036   5.375   5.673
12557TIP3    H237613   0.089   5.237   5.641
12558TIP3   OH237614   2.632   0.983   0.334
12558TIP3    H137615   2.646   0.926   0.258
12558TIP3    H237616   2.571   1.050   0.303
12559TIP3   OH237617   4.598   4.150   6.783
12559TIP3    H137618   4.507   4.174   6.767
12559TIP3    H237619   4.600   4.125   6.876
12560TIP3   OH237620   1.262   6.445   6.282
12560TIP3    H137621   1.185   6.434   6.226
12560TIP3    H237622   1.265   6.539   6.299
12561TIP3   OH237623   6.730   2.585   1.359
12561TIP3    H137624   6.664   2.602   1.426
12561TIP3    H237625   6.736   2.668   1.311
12562TIP3   OH237626   2.122   7.791   5.200
12562TIP3    H137627   2.132   7.766   5.292
12562TIP3    H237628   2.138   7.710   5.152
12563TIP3   OH237629   2.412   5.560   5.461
12563TIP3    H137630   2.363   5.547   5.542
12563TIP3    H237631   2.485   5.617   5.486
12564TIP3   OH237632   4.682   6.211   5.969
12564TIP3    H137633   4.723   6.245   5.889
12564TIP3    H237634   4.594   6.250   5.969
12565TIP3   OH237635   3.562   2.899   1.537
12565TIP3    H137636   3.586   2.981   1.494
12565TIP3    H237637   3.528   2.844   1.466
12566TIP3   OH237638   5.140   3.000   0.289
12566TIP3    H137639   5.197   3.032   0.219
12566TIP3    H237640   5.194   3.004   0.368
12567TIP3   OH237641   1.986   4.839   5.709
12567TIP3    H137642   1.951   4.788   5.636
12567TIP3    H237643   2.080   4.821   5.709
12568TIP3   OH237644   1.563   0.894   4.720
12568TIP3    H137645   1.645   0.907   4.769
12568TIP3    H237646   1.567   0.803   4.691
12569TIP3   OH237647   2.925   0.571   0.696
12569TIP3    H137648   2.849   0.630   0.697
12569TIP3    H237649   2.982   0.607   0.627
12570TIP3   OH237650   0.782   1.514   6.836
12570TIP3    H137651   0.707   1.573   6.848
12570TIP3    H237652   0.776   1.486   6.745
12571TIP3   OH237653   1.336   0.195   1.917
12571TIP3    H137654   1.263   0.157   1.867
12571TIP3    H237655   1.413   0.179   1.863
12572TIP3   OH237656   7.473   0.746   2.451
12572TIP3    H137657   7.426   0.663   2.438
12572TIP3    H237658   7.465   0.762   2.545
12573TIP3   OH237659   2.919   5.343   2.666
12573TIP3    H137660   2.942   5.252   2.650
12573TIP3    H237661   2.890   5.345   2.757
12574TIP3   OH237662   2.661   5.435   0.913
12574TIP3    H137663   2.590   5.420   0.850
12574TIP3    H237664   2.695   5.347   0.932
12575TIP3   OH237665   6.118   1.270   4.788
12575TIP3    H137666   6.178   1.329   4.744
12575TIP3    H237667   6.050   1.327   4.824
12576TIP3   OH237668   7.849   5.693   5.517
12576TIP3    H137669   7.766   5.739   5.501
12576TIP3    H237670   7.877   5.724   5.603
12577TIP3   OH237671   1.165   5.763   3.023
12577TIP3    H137672   1.234   5.824   3.048
12577TIP3    H237673   1.200   5.717   2.947
12578TIP3   OH237674   2.052   4.851   3.792
12578TIP3    H137675   2.041   4.756   3.795
12578TIP3    H237676   2.049   4.872   3.699
12579TIP3   OH237677   1.784   5.619   3.361
12579TIP3    H137678   1.848   5.619   3.432
12579TIP3    H237679   1.814   5.552   3.300
12580TIP3   OH237680   4.910   6.863   6.218
12580TIP3    H137681   4.908   6.880   6.312
12580TIP3    H237682   4.832   6.810   6.202
12581TIP3   OH237683   4.810   6.399   4.620
12581TIP3    H137684   4.743   6.334   4.598
12581TIP3    H237685   4.768   6.455   4.686
12582TIP3   OH237686   3.055   1.611   1.800
12582TIP3    H137687   3.141   1.571   1.786
12582TIP3    H237688   2.997   1.564   1.741
12583TIP3   OH237689   7.724   1.732   0.382
12583TIP3    H137690   7.790   1.695   0.441
12583TIP3    H237691   7.662   1.775   0.440
12584TIP3   OH237692   2.516   3.460   6.160
12584TIP3    H137693   2.512   3.554   6.143
12584TIP3    H237694   2.428   3.437   6.190
12585TIP3   OH237695   2.630   7.551   3.465
12585TIP3    H137696   2.625   7.591   3.552
12585TIP3    H237697   2.546   7.573   3.424
12586TIP3   OH237698   1.580   7.385   4.146
12586TIP3    H137699   1.497   7.432   4.139
12586TIP3    H237700   1.562   7.298   4.112
12587TIP3   OH237701   5.096   6.868   3.080
12587TIP3    H137702   5.144   6.880   2.998
12587TIP3    H237703   5.055   6.953   3.096
12588TIP3   OH237704   2.054   6.984   5.390
12588TIP3    H137705   2.022   6.978   5.301
12588TIP3    H237706   2.038   6.897   5.427
12589TIP3   OH237707   5.814   2.148   1.638
12589TIP3    H137708   5.878   2.139   1.566
12589TIP3    H237709   5.734   2.176   1.594
12590TIP3   OH237710   7.202   2.373   6.247
12590TIP3    H137711   7.121   2.321   6.255
12590TIP3    H237712   7.248   2.334   6.173
12591TIP3   OH237713   2.628   1.357   4.519
12591TIP3    H137714   2.640   1.262   4.518
12591TIP3    H237715   2.662   1.385   4.603
12592TIP3   OH237716   5.943   4.292   6.011
12592TIP3    H137717   5.962   4.318   5.921
12592TIP3    H237718   5.850   4.267   6.010
12593TIP3   OH237719   5.976   3.277   0.936
12593TIP3    H137720   5.985   3.184   0.917
12593TIP3    H237721   6.023   3.289   1.019
12594TIP3   OH237722   6.299   1.619   4.215
12594TIP3    H137723   6.394   1.609   4.217
12594TIP3    H237724   6.271   1.565   4.140
12595TIP3   OH237725   5.748   5.728   3.143
12595TIP3    H137726   5.837   5.694   3.134
12595TIP3    H237727   5.700   5.691   3.068
12596TIP3   OH237728   6.962   5.734   4.104
12596TIP3    H137729   6.986   5.796   4.173
12596TIP3    H237730   6.875   5.702   4.130
12597TIP3   OH237731   3.351   2.124   5.962
12597TIP3    H137732   3.261   2.149   5.984
12597TIP3    H237733   3.393   2.207   5.941
12598TIP3   OH237734   3.975   6.154   4.488
12598TIP3    H137735   4.063   6.186   4.503
12598TIP3    H237736   3.918   6.217   4.533
12599TIP3   OH237737   6.262   2.601   2.924
12599TIP3    H137738   6.266   2.514   2.962
12599TIP3    H237739   6.300   2.658   2.991
12600TIP3   OH237740   2.120   0.191   6.864
12600TIP3    H137741   2.210   0.218   6.883
12600TIP3    H237742   2.106   0.217   6.773
12601TIP3   OH237743   7.066   7.036   6.810
12601TIP3    H137744   7.009   7.112   6.799
12601TIP3    H237745   7.107   7.024   6.724
12602TIP3   OH237746   8.124   4.381   4.279
12602TIP3    H137747   8.172   4.453   4.239
12602TIP3    H237748   8.135   4.308   4.219
12603TIP3   OH237749   3.464   3.390   3.633
12603TIP3    H137750   3.382   3.346   3.658
12603TIP3    H237751   3.472   3.462   3.696
12604TIP3   OH237752   2.204   4.765   1.905
12604TIP3    H137753   2.158   4.841   1.940
12604TIP3    H237754   2.161   4.748   1.821
12605TIP3   OH237755   6.452   6.054   6.529
12605TIP3    H137756   6.419   5.989   6.466
12605TIP3    H237757   6.474   6.130   6.475
12606TIP3   OH237758   7.988   5.681   4.877
12606TIP3    H137759   8.081   5.702   4.881
12606TIP3    H237760   7.980   5.620   4.803
12607TIP3   OH237761   3.398   0.168   4.611
12607TIP3    H137762   3.336   0.111   4.656
12607TIP3    H237763   3.371   0.166   4.519
12608TIP3   OH237764   7.882   7.472   1.681
12608TIP3    H137765   7.945   7.544   1.674
12608TIP3    H237766   7.911   7.409   1.615
12609TIP3   OH237767   6.996   5.227   0.459
12609TIP3    H137768   6.977   5.292   0.391
12609TIP3    H237769   6.915   5.177   0.467
12610TIP3   OH237770   8.198   1.608   5.574
12610TIP3    H137771   8.136   1.602   5.647
12610TIP3    H237772   8.160   1.675   5.516
12611TIP3   OH237773   2.867   6.795   5.477
12611TIP3    H137774   2.824   6.712   5.497
12611TIP3    H237775   2.923   6.811   5.553
12612TIP3   OH237776   6.049   4.410   3.113
12612TIP3    H137777   6.137   4.401   3.078
12612TIP3    H237778   6.012   4.322   3.109
12613TIP3   OH237779   1.173   4.685   4.119
12613TIP3    H137780   1.188   4.723   4.206
12613TIP3    H237781   1.228   4.607   4.117
12614TIP3   OH237782   6.223   7.586   3.583
12614TIP3    H137783   6.213   7.609   3.675
12614TIP3    H237784   6.211   7.491   3.580
12615TIP3   OH237785   6.675   0.194   4.780
12615TIP3    H137786   6.730   0.181   4.857
12615TIP3    H237787   6.706   0.129   4.717
12616TIP3   OH237788   7.600   7.698   5.811
12616TIP3    H137789   7.602   7.620   5.866
12616TIP3    H237790   7.511   7.701   5.776
12617TIP3   OH237791   1.828   4.037   0.690
12617TIP3    H137792   1.811   3.943   0.679
12617TIP3    H237793   1.741   4.076   0.698
12618TIP3   OH237794   0.742   4.409   4.770
12618TIP3    H137795   0.653   4.430   4.798
12618TIP3    H237796   0.777   4.352   4.839
12619TIP3   OH237797   4.701   3.624   0.494
12619TIP3    H137798   4.688   3.578   0.412
12619TIP3    H237799   4.621   3.609   0.544
12620TIP3   OH237800   2.664   6.345   1.014
12620TIP3    H137801   2.601   6.289   0.969
12620TIP3    H237802   2.618   6.429   1.025
12621TIP3   OH237803   6.381   0.096   2.487
12621TIP3    H137804   6.347   0.185   2.480
12621TIP3    H237805   6.308   0.044   2.520
12622TIP3   OH237806   4.888   7.294  -0.020
12622TIP3    H137807   4.956   7.302   0.047
12622TIP3    H237808   4.820   7.356   0.007
12623TIP3   OH237809   5.380   2.603   0.233
12623TIP3    H137810   5.447   2.671   0.231
12623TIP3    H237811   5.306   2.644   0.279
12624TIP3   OH237812   8.026   5.154   5.288
12624TIP3    H137813   8.018   5.178   5.380
12624TIP3    H237814   8.024   5.237   5.241
12625TIP3   OH237815   0.808   7.501   1.328
12625TIP3    H137816   0.803   7.551   1.247
12625TIP3    H237817   0.850   7.560   1.390
12626TIP3   OH237818   8.150  -0.004   0.238
12626TIP3    H137819   8.116  -0.018   0.326
12626TIP3    H237820   8.244  -0.019   0.245
12627TIP3   OH237821   6.877   4.496   1.351
12627TIP3    H137822   6.784   4.478   1.362
12627TIP3    H237823   6.883   4.591   1.340
12628TIP3   OH237824   6.340   1.973   0.137
12628TIP3    H137825   6.349   1.932   0.052
12628TIP3    H237826   6.412   2.036   0.142
12629TIP3   OH237827   4.747   4.689   2.432
12629TIP3    H137828   4.724   4.630   2.503
12629TIP3    H237829   4.831   4.656   2.399
12630TIP3   OH237830   5.924   2.775   0.782
12630TIP3    H137831   5.949   2.866   0.763
12630TIP3    H237832   5.941   2.728   0.700
12631TIP3   OH237833   0.528   3.833   0.923
12631TIP3    H137834   0.544   3.918   0.881
12631TIP3    H237835   0.494   3.856   1.010
12632TIP3   OH237836   1.311   2.184   3.596
12632TIP3    H137837   1.219   2.160   3.605
12632TIP3    H237838   1.354   2.104   3.565
12633TIP3   OH237839   0.385   0.762   0.269
12633TIP3    H137840   0.331   0.725   0.198
12633TIP3    H237841   0.463   0.706   0.271
12634TIP3   OH237842   2.116   0.545   6.062
12634TIP3    H137843   2.192   0.490   6.043
12634TIP3    H237844   2.124   0.565   6.156
12635TIP3   OH237845   4.434   3.521   6.376
12635TIP3    H137846   4.460   3.544   6.287
12635TIP3    H237847   4.434   3.426   6.378
12636TIP3   OH237848   6.686   7.278   2.472
12636TIP3    H137849   6.690   7.200   2.418
12636TIP3    H237850   6.593   7.298   2.479
12637TIP3   OH237851   3.977   4.199   1.336
12637TIP3    H137852   4.071   4.207   1.354
12637TIP3    H237853   3.969   4.114   1.293
12638TIP3   OH237854   7.430   3.403   2.757
12638TIP3    H137855   7.469   3.439   2.837
12638TIP3    H237856   7.421   3.478   2.698
12639TIP3   OH237857   6.010   1.389   4.391
12639TIP3    H137858   6.070   1.463   4.379
12639TIP3    H237859   6.063   1.311   4.374
12640TIP3   OH237860   1.981   5.314   4.561
12640TIP3    H137861   2.035   5.270   4.495
12640TIP3    H237862   1.950   5.393   4.517
12641TIP3   OH237863   3.742   5.233   6.754
12641TIP3    H137864   3.740   5.170   6.826
12641TIP3    H237865   3.827   5.276   6.763
12642TIP3   OH237866   4.062   0.127   3.050
12642TIP3    H137867   4.145   0.161   3.015
12642TIP3    H237868   4.070   0.137   3.144
12643TIP3   OH237869   3.822   2.590   0.925
12643TIP3    H137870   3.847   2.574   1.015
12643TIP3    H237871   3.739   2.637   0.931
12644TIP3   OH237872   0.884   7.735   1.492
12644TIP3    H137873   0.843   7.767   1.411
12644TIP3    H237874   0.814   7.737   1.557
12645TIP3   OH237875   7.808   0.866   0.064
12645TIP3    H137876   7.814   0.950   0.109
12645TIP3    H237877   7.864   0.808   0.115
12646TIP3   OH237878   2.746   6.260   4.912
12646TIP3    H137879   2.673   6.223   4.962
12646TIP3    H237880   2.705   6.324   4.854
12647TIP3   OH237881   5.846   3.595   5.867
12647TIP3    H137882   5.765   3.643   5.882
12647TIP3    H237883   5.857   3.541   5.944
12648TIP3   OH237884   5.487   4.936   2.779
12648TIP3    H137885   5.448   4.900   2.858
12648TIP3    H237886   5.580   4.946   2.801
12649TIP3   OH237887   0.121   1.488   2.607
12649TIP3    H137888   0.149   1.534   2.686
12649TIP3    H237889   0.107   1.398   2.636
12650TIP3   OH237890   8.212   7.486   3.291
12650TIP3    H137891   8.305   7.508   3.286
12650TIP3    H237892   8.175   7.522   3.210
12651TIP3   OH237893   5.742   5.575   1.425
12651TIP3    H137894   5.829   5.553   1.459
12651TIP3    H237895   5.740   5.671   1.423
12652TIP3   OH237896   0.401   0.628   5.608
12652TIP3    H137897   0.453   0.567   5.554
12652TIP3    H237898   0.375   0.575   5.684
12653TIP3   OH237899   0.890   6.811   5.505
12653TIP3    H137900   0.809   6.803   5.455
12653TIP3    H237901   0.959   6.811   5.438
12654TIP3   OH237902   0.449   0.814   2.189
12654TIP3    H137903   0.513   0.885   2.188
12654TIP3    H237904   0.373   0.848   2.142
12655TIP3   OH237905   2.695   6.704   1.236
12655TIP3    H137906   2.780   6.680   1.275
12655TIP3    H237907   2.718   6.738   1.149
12656TIP3   OH237908   6.660   5.506   3.529
12656TIP3    H137909   6.701   5.421   3.549
12656TIP3    H237910   6.568   5.493   3.550
12657TIP3   OH237911   0.410   6.210   6.422
12657TIP3    H137912   0.505   6.204   6.435
12657TIP3    H237913   0.374   6.139   6.475
12658TIP3   OH237914   1.799   1.569   3.028
12658TIP3    H137915   1.743   1.547   3.102
12658TIP3    H237916   1.863   1.631   3.063
12659TIP3   OH237917   7.152   6.590   6.813
12659TIP3    H137918   7.212   6.656   6.849
12659TIP3    H237919   7.076   6.640   6.784
12660TIP3   OH237920   2.459  -0.010   5.166
12660TIP3    H137921   2.439  -0.042   5.254
12660TIP3    H237922   2.553   0.007   5.167
12661TIP3   OH237923   3.168   3.706   5.590
12661TIP3    H137924   3.234   3.659   5.540
12661TIP3    H237925   3.121   3.638   5.639
12662TIP3   OH237926   4.706   2.498   2.390
12662TIP3    H137927   4.621   2.466   2.418
12662TIP3    H237928   4.690   2.537   2.304
12663TIP3   OH237929   0.155   7.268   1.039
12663TIP3    H137930   0.133   7.248   0.948
12663TIP3    H237931   0.071   7.270   1.085
12664TIP3   OH237932   6.143   5.912   3.009
12664TIP3    H137933   6.189   5.969   2.948
12664TIP3    H237934   6.160   5.951   3.095
12665TIP3   OH237935   4.860   1.788   0.299
12665TIP3    H137936   4.952   1.774   0.324
12665TIP3    H237937   4.831   1.859   0.356
12666TIP3   OH237938   1.575   5.923   1.694
12666TIP3    H137939   1.568   5.940   1.788
12666TIP3    H237940   1.661   5.957   1.670
12667TIP3   OH237941   2.112   5.825   1.228
12667TIP3    H137942   2.110   5.919   1.243
12667TIP3    H237943   2.190   5.810   1.175
12668TIP3   OH237944   4.249   7.451   5.283
12668TIP3    H137945   4.226   7.464   5.375
12668TIP3    H237946   4.289   7.534   5.256
12669TIP3   OH237947   0.526   6.305   1.114
12669TIP3    H137948   0.486   6.218   1.115
12669TIP3    H237949   0.481   6.353   1.184
12670TIP3   OH237950   2.002   7.907   0.649
12670TIP3    H137951   2.061   7.832   0.639
12670TIP3    H237952   2.054   7.982   0.622
12671TIP3   OH237953   8.000   2.246   3.070
12671TIP3    H137954   7.908   2.253   3.046
12671TIP3    H237955   8.038   2.189   3.004
12672TIP3   OH237956   7.959   3.758   6.059
12672TIP3    H137957   7.927   3.820   5.993
12672TIP3    H237958   8.004   3.813   6.124
12673TIP3   OH237959   2.813   0.257   2.780
12673TIP3    H137960   2.807   0.264   2.875
12673TIP3    H237961   2.845   0.168   2.765
12674TIP3   OH237962   1.886   4.307   3.062
12674TIP3    H137963   1.805   4.292   3.111
12674TIP3    H237964   1.871   4.391   3.017
12675TIP3   OH237965   3.941   1.477   6.271
12675TIP3    H137966   3.979   1.513   6.351
12675TIP3    H237967   3.897   1.552   6.230
12676TIP3   OH237968   0.941   5.681   5.493
12676TIP3    H137969   0.968   5.755   5.548
12676TIP3    H237970   0.943   5.715   5.404
12677TIP3   OH237971   2.780   6.199   4.463
12677TIP3    H137972   2.813   6.236   4.544
12677TIP3    H237973   2.850   6.213   4.399
12678TIP3   OH237974   5.469   3.449   4.492
12678TIP3    H137975   5.496   3.541   4.492
12678TIP3    H237976   5.424   3.437   4.409
12679TIP3   OH237977   8.370   6.534   2.089
12679TIP3    H137978   8.359   6.557   1.997
12679TIP3    H237979   8.375   6.439   2.090
12680TIP3   OH237980   1.451   1.857   4.475
12680TIP3    H137981   1.357   1.874   4.467
12680TIP3    H237982   1.457   1.762   4.489
12681TIP3   OH237983   1.464   2.120   0.690
12681TIP3    H137984   1.452   2.108   0.784
12681TIP3    H237985   1.448   2.033   0.653
12682TIP3   OH237986   1.535   0.653   4.210
12682TIP3    H137987   1.581   0.658   4.294
12682TIP3    H237988   1.547   0.562   4.182
12683TIP3   OH237989   4.135   3.336   2.521
12683TIP3    H137990   4.069   3.400   2.496
12683TIP3    H237991   4.133   3.271   2.450
12684TIP3   OH237992   6.044   5.261   4.709
12684TIP3    H137993   5.991   5.217   4.777
12684TIP3    H237994   5.990   5.335   4.682
12685TIP3   OH237995   6.641   5.996   4.458
12685TIP3    H137996   6.604   5.928   4.514
12685TIP3    H237997   6.699   6.045   4.517
12686TIP3   OH237998   4.713   5.484   2.269
12686TIP3    H137999   4.686   5.392   2.264
12686TIP3    H238000   4.729   5.509   2.178
12687TIP3   OH238001   7.070   3.158   3.004
12687TIP3    H138002   7.059   3.248   3.033
12687TIP3    H238003   7.092   3.165   2.912
12688TIP3   OH238004   4.043   5.374   2.185
12688TIP3    H138005   4.050   5.305   2.251
12688TIP3    H238006   4.115   5.434   2.205
12689TIP3   OH238007   6.808   6.593   3.760
12689TIP3    H138008   6.754   6.562   3.688
12689TIP3    H238009   6.794   6.528   3.829
12690TIP3   OH238010   7.286   2.124   3.310
12690TIP3    H138011   7.349   2.053   3.322
12690TIP3    H238012   7.291   2.144   3.216
12691TIP3   OH238013   1.781   3.250   3.042
12691TIP3    H138014   1.858   3.301   3.069
12691TIP3    H238015   1.792   3.166   3.087
12692TIP3   OH238016   5.102   6.955   4.012
12692TIP3    H138017   5.010   6.974   4.029
12692TIP3    H238018   5.142   6.952   4.099
12693TIP3   OH238019   0.479   0.958   4.916
12693TIP3    H138020   0.426   0.997   4.846
12693TIP3    H238021   0.502   1.032   4.972
12694TIP3   OH238022   7.812   2.579   4.467
12694TIP3    H138023   7.827   2.666   4.431
12694TIP3    H238024   7.900   2.547   4.488
12695TIP3   OH238025   0.823   7.110   0.151
12695TIP3    H138026   0.904   7.161   0.159
12695TIP3    H238027   0.819   7.058   0.232
12696TIP3   OH238028   5.388   4.988   3.945
12696TIP3    H138029   5.430   5.032   4.019
12696TIP3    H238030   5.310   5.040   3.926
12697TIP3   OH238031   0.634   0.565   5.849
12697TIP3    H138032   0.554   0.519   5.823
12697TIP3    H238033   0.614   0.599   5.936
12698TIP3   OH238034   8.294   7.126   6.483
12698TIP3    H138035   8.315   7.116   6.391
12698TIP3    H238036   8.250   7.211   6.489
12699TIP3   OH238037   2.393   5.659   5.756
12699TIP3    H138038   2.375   5.733   5.698
12699TIP3    H238039   2.393   5.697   5.844
12700TIP3   OH238040   2.236   4.254   0.645
12700TIP3    H138041   2.141   4.260   0.632
12700TIP3    H238042   2.264   4.345   0.657
12701TIP3   OH238043   7.299   1.094   6.767
12701TIP3    H138044   7.294   1.002   6.792
12701TIP3    H238045   7.334   1.138   6.844
12702TIP3   OH238046   3.046   5.720   3.927
12702TIP3    H138047   2.960   5.763   3.924
12702TIP3    H238048   3.086   5.740   3.843
12703TIP3   OH238049   1.136   4.289   0.484
12703TIP3    H138050   1.213   4.320   0.437
12703TIP3    H238051   1.074   4.265   0.415
12704TIP3   OH238052   5.624   7.885   3.097
12704TIP3    H138053   5.651   7.874   3.005
12704TIP3    H238054   5.627   7.979   3.111
12705TIP3   OH238055   3.612   3.067   0.745
12705TIP3    H138056   3.575   3.071   0.833
12705TIP3    H238057   3.680   3.000   0.750
12706TIP3   OH238058   3.609   3.019   5.180
12706TIP3    H138059   3.596   2.968   5.260
12706TIP3    H238060   3.575   2.964   5.110
12707TIP3   OH238061   5.326   1.468   6.391
12707TIP3    H138062   5.366   1.398   6.339
12707TIP3    H238063   5.290   1.528   6.325
12708TIP3   OH238064   6.813   7.852   5.287
12708TIP3    H138065   6.727   7.845   5.328
12708TIP3    H238066   6.797   7.836   5.194
12709TIP3   OH238067   4.425   1.443   1.633
12709TIP3    H138068   4.379   1.383   1.574
12709TIP3    H238069   4.510   1.456   1.592
12710TIP3   OH238070   0.871   2.500   1.043
12710TIP3    H138071   0.863   2.514   0.949
12710TIP3    H238072   0.844   2.583   1.082
12711TIP3   OH238073   4.498   4.419   1.890
12711TIP3    H138074   4.496   4.336   1.938
12711TIP3    H238075   4.413   4.460   1.909
12712TIP3   OH238076   0.952   6.859   3.610
12712TIP3    H138077   0.876   6.802   3.615
12712TIP3    H238078   0.928   6.926   3.546
12713TIP3   OH238079   7.808   3.244   2.476
12713TIP3    H138080   7.870   3.257   2.547
12713TIP3    H238081   7.842   3.298   2.404
12714TIP3   OH238082   0.967   2.314   2.733
12714TIP3    H138083   1.029   2.385   2.714
12714TIP3    H238084   0.882   2.358   2.743
12715TIP3   OH238085   2.084   2.343   0.045
12715TIP3    H138086   2.179   2.348   0.056
12715TIP3    H238087   2.069   2.361  -0.048
12716TIP3   OH238088   4.238   1.590   0.790
12716TIP3    H138089   4.332   1.585   0.773
12716TIP3    H238090   4.218   1.513   0.843
12717TIP3   OH238091   5.092   4.714   1.244
12717TIP3    H138092   5.033   4.727   1.170
12717TIP3    H238093   5.060   4.634   1.286
12718TIP3   OH238094   8.115   1.211   2.844
12718TIP3    H138095   8.153   1.271   2.779
12718TIP3    H238096   8.167   1.225   2.923
12719TIP3   OH238097   3.412   6.463   0.309
12719TIP3    H138098   3.441   6.447   0.219
12719TIP3    H238099   3.483   6.513   0.349
12720TIP3   OH238100   5.085   5.675   0.819
12720TIP3    H138101   4.991   5.686   0.831
12720TIP3    H238102   5.125   5.736   0.881
12721TIP3   OH238103   7.624   6.204   1.660
12721TIP3    H138104   7.613   6.112   1.680
12721TIP3    H238105   7.625   6.208   1.564
12722TIP3   OH238106   1.924   5.080   4.851
12722TIP3    H138107   1.832   5.065   4.830
12722TIP3    H238108   1.926   5.166   4.894
12723TIP3   OH238109   3.019   3.794   6.581
12723TIP3    H138110   3.098   3.743   6.561
12723TIP3    H238111   3.042   3.845   6.659
12724TIP3   OH238112   1.016   7.464   4.173
12724TIP3    H138113   1.109   7.453   4.154
12724TIP3    H238114   0.971   7.428   4.096
12725TIP3   OH238115   5.508   7.684   4.189
12725TIP3    H138116   5.555   7.710   4.269
12725TIP3    H238117   5.572   7.697   4.119
12726TIP3   OH238118   0.292   2.373   6.213
12726TIP3    H138119   0.363   2.313   6.195
12726TIP3    H238120   0.335   2.455   6.239
12727TIP3   OH238121   2.410   2.916   4.217
12727TIP3    H138122   2.417   2.924   4.122
12727TIP3    H238123   2.330   2.963   4.240
12728TIP3   OH238124   4.513   3.141   1.871
12728TIP3    H138125   4.560   3.193   1.806
12728TIP3    H238126   4.470   3.072   1.821
12729TIP3   OH238127   5.138   7.458   4.745
12729TIP3    H138128   5.147   7.384   4.685
12729TIP3    H238129   5.205   7.520   4.718
12730TIP3   OH238130   1.828   5.560   6.910
12730TIP3    H138131   1.777   5.593   6.836
12730TIP3    H238132   1.871   5.482   6.876
12731TIP3   OH238133   1.662   5.285   0.512
12731TIP3    H138134   1.627   5.237   0.587
12731TIP3    H238135   1.667   5.376   0.542
12732TIP3   OH238136   3.125   3.409   5.659
12732TIP3    H138137   3.220   3.398   5.661
12732TIP3    H238138   3.098   3.400   5.750
12733TIP3   OH238139   8.319   6.405   1.534
12733TIP3    H138140   8.344   6.312   1.532
12733TIP3    H238141   8.247   6.409   1.596
12734TIP3   OH238142   3.394   5.259   4.084
12734TIP3    H138143   3.354   5.334   4.130
12734TIP3    H238144   3.425   5.296   4.002
12735TIP3   OH238145   4.015   4.343   3.715
12735TIP3    H138146   4.105   4.314   3.698
12735TIP3    H238147   3.994   4.401   3.642
12736TIP3   OH238148   0.914   3.669   4.557
12736TIP3    H138149   0.903   3.622   4.475
12736TIP3    H238150   0.940   3.757   4.532
12737TIP3   OH238151   1.096   4.175   5.782
12737TIP3    H138152   1.031   4.178   5.852
12737TIP3    H238153   1.176   4.145   5.825
12738TIP3   OH238154   6.543   7.027   1.966
12738TIP3    H138155   6.453   7.044   1.938
12738TIP3    H238156   6.534   6.987   2.052
12739TIP3   OH238157   6.758   5.076   0.476
12739TIP3    H138158   6.701   5.128   0.419
12739TIP3    H238159   6.725   4.987   0.469
12740TIP3   OH238160   2.467   5.063   5.206
12740TIP3    H138161   2.426   5.149   5.217
12740TIP3    H238162   2.558   5.083   5.181
12741TIP3   OH238163   1.676   5.449   6.404
12741TIP3    H138164   1.585   5.459   6.376
12741TIP3    H238165   1.707   5.538   6.417
12742TIP3   OH238166   4.130   0.988   1.495
12742TIP3    H138167   4.169   1.072   1.518
12742TIP3    H238168   4.156   0.973   1.404
12743TIP3   OH238169   4.662   4.036   0.208
12743TIP3    H138170   4.623   4.120   0.233
12743TIP3    H238171   4.649   4.030   0.114
12744TIP3   OH238172   7.121   1.976   1.618
12744TIP3    H138173   7.035   1.946   1.590
12744TIP3    H238174   7.105   2.021   1.701
12745TIP3   OH238175   1.665   7.274   2.573
12745TIP3    H138176   1.596   7.211   2.552
12745TIP3    H238177   1.664   7.336   2.499
12746TIP3   OH238178   5.585   2.489   2.190
12746TIP3    H138179   5.601   2.521   2.101
12746TIP3    H238180   5.636   2.547   2.246
12747TIP3   OH238181   2.372   0.221   2.728
12747TIP3    H138182   2.315   0.218   2.805
12747TIP3    H238183   2.439   0.155   2.746
12748TIP3   OH238184   2.018   3.071   6.231
12748TIP3    H138185   2.055   3.055   6.318
12748TIP3    H238186   1.932   3.110   6.248
12749TIP3   OH238187   4.500   3.915   2.513
12749TIP3    H138188   4.422   3.912   2.458
12749TIP3    H238189   4.549   3.836   2.491
12750TIP3   OH238190   0.573   4.297   0.810
12750TIP3    H138191   0.638   4.364   0.831
12750TIP3    H238192   0.521   4.288   0.890
12751TIP3   OH238193   7.566   1.061   0.095
12751TIP3    H138194   7.641   1.110   0.060
12751TIP3    H238195   7.530   1.117   0.163
12752TIP3   OH238196   3.683   1.264   6.062
12752TIP3    H138197   3.741   1.294   5.992
12752TIP3    H238198   3.711   1.174   6.080
12753TIP3   OH238199   6.477   2.960   6.310
12753TIP3    H138200   6.533   2.938   6.235
12753TIP3    H238201   6.423   2.883   6.323
12754TIP3   OH238202   0.538   7.309   5.957
12754TIP3    H138203   0.598   7.294   6.030
12754TIP3    H238204   0.563   7.395   5.923
12755TIP3   OH238205   6.783   7.388   4.990
12755TIP3    H138206   6.759   7.467   4.941
12755TIP3    H238207   6.861   7.355   4.946
12756TIP3   OH238208   1.409   3.765   4.059
12756TIP3    H138209   1.428   3.855   4.084
12756TIP3    H238210   1.438   3.759   3.968
12757TIP3   OH238211   8.305   1.193   5.372
12757TIP3    H138212   8.278   1.240   5.451
12757TIP3    H238213   8.373   1.132   5.402
12758TIP3   OH238214   5.998   1.528   6.412
12758TIP3    H138215   5.927   1.473   6.379
12758TIP3    H238216   5.969   1.554   6.500
12759TIP3   OH238217   7.708   4.662   3.697
12759TIP3    H138218   7.761   4.725   3.745
12759TIP3    H238219   7.618   4.687   3.716
12760TIP3   OH238220   4.929   5.111   5.157
12760TIP3    H138221   4.894   5.072   5.237
12760TIP3    H238222   4.903   5.203   5.162
12761TIP3   OH238223   6.827   4.992   0.785
12761TIP3    H138224   6.821   4.905   0.746
12761TIP3    H238225   6.753   5.040   0.748
12762TIP3   OH238226   7.558   4.620   1.656
12762TIP3    H138227   7.635   4.565   1.667
12762TIP3    H238228   7.522   4.594   1.571
12763TIP3   OH238229   8.371   4.528   4.886
12763TIP3    H138230   8.355   4.438   4.858
12763TIP3    H238231   8.448   4.523   4.942
12764TIP3   OH238232   1.481   4.867   4.376
12764TIP3    H138233   1.510   4.788   4.330
12764TIP3    H238234   1.511   4.939   4.320
12765TIP3   OH238235   0.822   4.101   3.851
12765TIP3    H138236   0.891   4.040   3.878
12765TIP3    H238237   0.777   4.056   3.779
12766TIP3   OH238238   4.390   2.822   3.891
12766TIP3    H138239   4.320   2.760   3.911
12766TIP3    H238240   4.467   2.767   3.879
12767TIP3   OH238241   2.584   6.934   5.053
12767TIP3    H138242   2.497   6.894   5.054
12767TIP3    H238243   2.570   7.023   5.085
12768TIP3   OH238244   1.845   4.471   2.649
12768TIP3    H138245   1.780   4.424   2.597
12768TIP3    H238246   1.929   4.432   2.624
12769TIP3   OH238247   8.167   6.318   2.503
12769TIP3    H138248   8.093   6.374   2.477
12769TIP3    H238249   8.242   6.377   2.505
12770TIP3   OH238250   8.165   5.234   1.653
12770TIP3    H138251   8.218   5.301   1.610
12770TIP3    H238252   8.102   5.283   1.706
12771TIP3   OH238253   4.678   3.418   6.197
12771TIP3    H138254   4.733   3.473   6.253
12771TIP3    H238255   4.626   3.366   6.258
12772TIP3   OH238256   0.207   4.454   4.553
12772TIP3    H138257   0.208   4.534   4.605
12772TIP3    H238258   0.266   4.472   4.479
12773TIP3   OH238259   2.229   5.989   1.683
12773TIP3    H138260   2.199   6.043   1.609
12773TIP3    H238261   2.153   5.980   1.739
12774TIP3   OH238262   6.362   1.212   0.729
12774TIP3    H138263   6.399   1.299   0.745
12774TIP3    H238264   6.364   1.203   0.633
12775TIP3   OH238265   4.759   6.691   3.601
12775TIP3    H138266   4.789   6.633   3.531
12775TIP3    H238267   4.839   6.725   3.641
12776TIP3   OH238268   4.396   6.020   1.011
12776TIP3    H138269   4.311   6.034   1.052
12776TIP3    H238270   4.422   6.106   0.979
12777TIP3   OH238271   2.174   0.780   1.293
12777TIP3    H138272   2.253   0.746   1.251
12777TIP3    H238273   2.131   0.831   1.224
12778TIP3   OH238274   6.278   4.352   3.444
12778TIP3    H138275   6.284   4.401   3.526
12778TIP3    H238276   6.269   4.420   3.376
12779TIP3   OH238277   1.956   1.833   0.581
12779TIP3    H138278   1.905   1.775   0.638
12779TIP3    H238279   2.039   1.787   0.569
12780TIP3   OH238280   4.822   6.520   3.430
12780TIP3    H138281   4.783   6.540   3.345
12780TIP3    H238282   4.830   6.424   3.430
12781TIP3   OH238283   1.122   7.551   6.064
12781TIP3    H138284   1.100   7.634   6.105
12781TIP3    H238285   1.055   7.539   5.996
12782TIP3   OH238286   4.823   4.788   4.981
12782TIP3    H138287   4.827   4.692   4.981
12782TIP3    H238288   4.801   4.811   5.071
12783TIP3   OH238289   4.385   3.842   6.341
12783TIP3    H138290   4.469   3.809   6.371
12783TIP3    H238291   4.407   3.917   6.286
12784TIP3   OH238292   4.223   6.561   6.568
12784TIP3    H138293   4.299   6.600   6.526
12784TIP3    H238294   4.233   6.583   6.661
12785TIP3   OH238295   0.486   1.294   5.441
12785TIP3    H138296   0.459   1.207   5.472
12785TIP3    H238297   0.414   1.323   5.386
12786TIP3   OH238298   2.283   2.915   1.030
12786TIP3    H138299   2.210   2.902   0.970
12786TIP3    H238300   2.350   2.958   0.977
12787TIP3   OH238301   4.768   1.383   0.865
12787TIP3    H138302   4.776   1.434   0.785
12787TIP3    H238303   4.821   1.430   0.929
12788TIP3   OH238304   5.668   1.894   1.816
12788TIP3    H138305   5.686   1.976   1.769
12788TIP3    H238306   5.586   1.911   1.862
12789TIP3   OH238307   7.968   1.639   0.653
12789TIP3    H138308   8.000   1.645   0.563
12789TIP3    H238309   7.943   1.728   0.676
12790TIP3   OH238310   2.968   4.299   6.517
12790TIP3    H138311   3.027   4.358   6.564
12790TIP3    H238312   3.020   4.266   6.444
12791TIP3   OH238313   2.920   7.461   5.289
12791TIP3    H138314   2.999   7.488   5.336
12791TIP3    H238315   2.894   7.538   5.239
12792TIP3   OH238316   3.338   1.761   6.694
12792TIP3    H138317   3.287   1.829   6.738
12792TIP3    H238318   3.275   1.717   6.637
12793TIP3   OH238319   1.705   3.598   1.893
12793TIP3    H138320   1.746   3.642   1.818
12793TIP3    H238321   1.779   3.568   1.946
12794TIP3   OH238322   2.643   6.909   5.374
12794TIP3    H138323   2.730   6.869   5.381
12794TIP3    H238324   2.594   6.850   5.318
12795TIP3   OH238325   5.338   1.943   0.836
12795TIP3    H138326   5.363   1.998   0.910
12795TIP3    H238327   5.288   2.001   0.778
12796TIP3   OH238328  -0.045   7.270   6.019
12796TIP3    H138329  -0.033   7.350   6.070
12796TIP3    H238330   0.013   7.281   5.944
12797TIP3   OH238331   5.701   4.192   2.323
12797TIP3    H138332   5.797   4.187   2.324
12797TIP3    H238333   5.675   4.181   2.415
12798TIP3   OH238334   0.942   6.171   0.514
12798TIP3    H138335   0.860   6.124   0.530
12798TIP3    H238336   0.979   6.185   0.601
12799TIP3   OH238337   3.450   4.688   6.186
12799TIP3    H138338   3.356   4.703   6.177
12799TIP3    H238339   3.467   4.699   6.279
12800TIP3   OH238340   1.344   2.796   2.021
12800TIP3    H138341   1.354   2.717   1.969
12800TIP3    H238342   1.329   2.764   2.110
12801TIP3   OH238343   0.251   1.243   5.275
12801TIP3    H138344   0.222   1.155   5.254
12801TIP3    H238345   0.196   1.270   5.349
12802TIP3   OH238346   5.737   2.568   1.554
12802TIP3    H138347   5.674   2.527   1.613
12802TIP3    H238348   5.746   2.506   1.481
12803TIP3   OH238349   0.534   1.062   4.253
12803TIP3    H138350   0.557   1.032   4.341
12803TIP3    H238351   0.597   1.131   4.234
12804TIP3   OH238352   0.774   2.899   6.126
12804TIP3    H138353   0.821   2.958   6.186
12804TIP3    H238354   0.833   2.888   6.052
12805TIP3   OH238355   2.231   4.407   3.975
12805TIP3    H138356   2.291   4.334   3.992
12805TIP3    H238357   2.280   4.485   4.000
12806TIP3   OH238358   3.582   3.762   1.243
12806TIP3    H138359   3.671   3.730   1.256
12806TIP3    H238360   3.552   3.782   1.332
12807TIP3   OH238361   3.721   4.478   1.666
12807TIP3    H138362   3.658   4.458   1.736
12807TIP3    H238363   3.687   4.432   1.589
12808TIP3   OH238364   4.836   0.710   1.450
12808TIP3    H138365   4.840   0.651   1.525
12808TIP3    H238366   4.871   0.793   1.483
12809TIP3   OH238367   7.462   0.583   3.040
12809TIP3    H138368   7.495   0.669   3.068
12809TIP3    H238369   7.412   0.551   3.115
12810TIP3   OH238370   4.341   4.489   2.974
12810TIP3    H138371   4.297   4.405   2.968
12810TIP3    H238372   4.369   4.496   3.066
12811TIP3   OH238373   4.176   7.266   2.032
12811TIP3    H138374   4.135   7.353   2.027
12811TIP3    H238375   4.231   7.262   1.954
12812TIP3   OH238376   8.009   2.363   3.350
12812TIP3    H138377   7.943   2.339   3.416
12812TIP3    H238378   7.997   2.299   3.280
12813TIP3   OH238379   5.865   7.835   1.043
12813TIP3    H138380   5.781   7.796   1.019
12813TIP3    H238381   5.886   7.894   0.970
12814TIP3   OH238382   2.423   0.119   4.929
12814TIP3    H138383   2.452   0.114   5.021
12814TIP3    H238384   2.499   0.153   4.882
12815TIP3   OH238385   7.337   2.430   3.784
12815TIP3    H138386   7.330   2.492   3.712
12815TIP3    H238387   7.257   2.378   3.779
12816TIP3   OH238388   2.622   0.125   0.658
12816TIP3    H138389   2.584   0.089   0.738
12816TIP3    H238390   2.555   0.111   0.591
12817TIP3   OH238391   1.795   0.993   4.818
12817TIP3    H138392   1.858   0.922   4.810
12817TIP3    H238393   1.812   1.031   4.904
12818TIP3   OH238394   6.536   5.927   1.703
12818TIP3    H138395   6.620   5.951   1.742
12818TIP3    H238396   6.495   5.869   1.767
12819TIP3   OH238397   1.735   3.415   2.443
12819TIP3    H138398   1.769   3.380   2.361
12819TIP3    H238399   1.653   3.459   2.418
12820TIP3   OH238400   5.993   2.989   2.110
12820TIP3    H138401   5.969   2.981   2.018
12820TIP3    H238402   6.081   3.027   2.109
12821TIP3   OH238403   4.029   4.717   2.867
12821TIP3    H138404   3.993   4.681   2.786
12821TIP3    H238405   3.971   4.790   2.888
12822TIP3   OH238406   2.964   1.299   4.378
12822TIP3    H138407   2.962   1.373   4.318
12822TIP3    H238408   2.908   1.233   4.337
12823TIP3   OH238409   7.586   5.903   4.996
12823TIP3    H138410   7.658   5.866   5.047
12823TIP3    H238411   7.535   5.827   4.968
12824TIP3   OH238412   1.751   5.785   0.038
12824TIP3    H138413   1.745   5.864   0.092
12824TIP3    H238414   1.787   5.718   0.096
12825TIP3   OH238415   4.092   1.088   2.857
12825TIP3    H138416   4.053   1.028   2.793
12825TIP3    H238417   4.080   1.044   2.941
12826TIP3   OH238418   6.875   6.506   5.206
12826TIP3    H138419   6.834   6.516   5.292
12826TIP3    H238420   6.967   6.484   5.226
12827TIP3   OH238421   7.537   1.235   0.343
12827TIP3    H138422   7.619   1.284   0.340
12827TIP3    H238423   7.490   1.272   0.418
12828TIP3   OH238424   2.124   3.078   4.041
12828TIP3    H138425   2.029   3.080   4.031
12828TIP3    H238426   2.141   3.130   4.120
12829TIP3   OH238427   0.247   6.524   4.114
12829TIP3    H138428   0.336   6.539   4.145
12829TIP3    H238429   0.243   6.431   4.094
12830TIP3   OH238430   4.312   3.410   6.028
12830TIP3    H138431   4.280   3.470   6.095
12830TIP3    H238432   4.263   3.434   5.949
12831TIP3   OH238433   0.340   2.116   4.764
12831TIP3    H138434   0.422   2.066   4.766
12831TIP3    H238435   0.275   2.059   4.805
12832TIP3   OH238436   0.507   0.615   0.559
12832TIP3    H138437   0.432   0.660   0.519
12832TIP3    H238438   0.487   0.522   0.552
12833TIP3   OH238439   7.271   2.511   0.806
12833TIP3    H138440   7.262   2.529   0.713
12833TIP3    H238441   7.240   2.590   0.849
12834TIP3   OH238442   3.998   1.274   0.574
12834TIP3    H138443   3.905   1.272   0.552
12834TIP3    H238444   4.002   1.247   0.666
12835TIP3   OH238445   1.366   4.527   6.192
12835TIP3    H138446   1.413   4.457   6.236
12835TIP3    H238447   1.322   4.484   6.118
12836TIP3   OH238448   4.103   0.307   6.425
12836TIP3    H138449   4.184   0.266   6.392
12836TIP3    H238450   4.076   0.251   6.498
12837TIP3   OH238451   5.772   2.785   1.359
12837TIP3    H138452   5.752   2.716   1.422
12837TIP3    H238453   5.868   2.790   1.360
12838TIP3   OH238454   4.002   7.098   2.168
12838TIP3    H138455   4.070   7.145   2.120
12838TIP3    H238456   4.049   7.050   2.236
12839TIP3   OH238457   1.836   0.416   6.046
12839TIP3    H138458   1.793   0.338   6.010
12839TIP3    H238459   1.915   0.426   5.993
12840TIP3   OH238460   7.808   0.993   6.903
12840TIP3    H138461   7.723   1.005   6.945
12840TIP3    H238462   7.793   1.009   6.810
12841TIP3   OH238463   0.490   1.143   6.680
12841TIP3    H138464   0.446   1.076   6.732
12841TIP3    H238465   0.582   1.117   6.679
12842TIP3   OH238466   2.912   7.838   4.843
12842TIP3    H138467   2.893   7.913   4.900
12842TIP3    H238468   2.899   7.872   4.755
12843TIP3   OH238469   1.539   4.615   4.635
12843TIP3    H138470   1.454   4.653   4.659
12843TIP3    H238471   1.519   4.555   4.564
12844TIP3   OH238472   7.777   7.252   1.872
12844TIP3    H138473   7.870   7.263   1.895
12844TIP3    H238474   7.759   7.326   1.814
12845TIP3   OH238475   8.111   2.492   5.932
12845TIP3    H138476   8.124   2.562   5.997
12845TIP3    H238477   8.091   2.538   5.851
12846TIP3   OH238478   4.913   6.202   6.118
12846TIP3    H138479   4.839   6.211   6.058
12846TIP3    H238480   4.879   6.230   6.203
12847TIP3   OH238481   3.152   2.765   4.696
12847TIP3    H138482   3.081   2.781   4.758
12847TIP3    H238483   3.108   2.731   4.618
12848TIP3   OH238484   4.697   6.614   4.805
12848TIP3    H138485   4.641   6.538   4.819
12848TIP3    H238486   4.680   6.671   4.880
12849TIP3   OH238487   3.197   7.648   2.303
12849TIP3    H138488   3.155   7.563   2.296
12849TIP3    H238489   3.239   7.648   2.389
12850TIP3   OH238490   7.024   7.261   2.787
12850TIP3    H138491   7.020   7.192   2.854
12850TIP3    H238492   7.084   7.226   2.721
12851TIP3   OH238493   0.707   2.460   0.443
12851TIP3    H138494   0.731   2.443   0.351
12851TIP3    H238495   0.611   2.463   0.442
12852TIP3   OH238496   0.556   7.392   3.253
12852TIP3    H138497   0.633   7.438   3.286
12852TIP3    H238498   0.516   7.353   3.331
12853TIP3   OH238499   1.402   6.191   5.511
12853TIP3    H138500   1.438   6.228   5.591
12853TIP3    H238501   1.475   6.190   5.449
12854TIP3   OH238502   4.393   5.742   6.305
12854TIP3    H138503   4.415   5.702   6.221
12854TIP3    H238504   4.471   5.732   6.358
12855TIP3   OH238505   8.188   0.588   2.204
12855TIP3    H138506   8.213   0.596   2.296
12855TIP3    H238507   8.272   0.585   2.157
12856TIP3   OH238508   4.902   6.199   0.051
12856TIP3    H138509   4.830   6.262   0.051
12856TIP3    H238510   4.920   6.183   0.144
12857TIP3   OH238511   2.021   4.474   1.871
12857TIP3    H138512   2.049   4.490   1.781
12857TIP3    H238513   2.087   4.518   1.925
12858TIP3   OH238514   1.412   3.855   5.422
12858TIP3    H138515   1.356   3.777   5.423
12858TIP3    H238516   1.385   3.904   5.500
12859TIP3   OH238517   8.022   5.832   2.860
12859TIP3    H138518   8.003   5.913   2.907
12859TIP3    H238519   7.936   5.799   2.832
12860TIP3   OH238520   7.499   0.291   3.355
12860TIP3    H138521   7.411   0.325   3.372
12860TIP3    H238522   7.550   0.368   3.332
12861TIP3   OH238523   4.276   5.523   5.705
12861TIP3    H138524   4.220   5.452   5.672
12861TIP3    H238525   4.245   5.538   5.794
12862TIP3   OH238526   1.613   1.306   6.751
12862TIP3    H138527   1.632   1.220   6.787
12862TIP3    H238528   1.601   1.292   6.658
12863TIP3   OH238529   2.252   1.808   1.325
12863TIP3    H138530   2.156   1.803   1.335
12863TIP3    H238531   2.283   1.721   1.353
12864TIP3   OH238532   1.874   6.638   6.629
12864TIP3    H138533   1.816   6.572   6.590
12864TIP3    H238534   1.924   6.673   6.555
12865TIP3   OH238535   3.890   1.216   4.540
12865TIP3    H138536   3.960   1.202   4.476
12865TIP3    H238537   3.855   1.303   4.519
12866TIP3   OH238538   2.308   7.154   2.351
12866TIP3    H138539   2.215   7.177   2.359
12866TIP3    H238540   2.312   7.102   2.271
12867TIP3   OH238541   3.579   0.970   3.078
12867TIP3    H138542   3.549   1.034   3.143
12867TIP3    H238543   3.662   1.004   3.046
12868TIP3   OH238544   1.433   3.009   6.540
12868TIP3    H138545   1.468   3.036   6.625
12868TIP3    H238546   1.509   2.980   6.491
12869TIP3   OH238547   1.976   5.869   6.285
12869TIP3    H138548   1.892   5.903   6.252
12869TIP3    H238549   2.009   5.939   6.341
12870TIP3   OH238550   7.174   4.234   5.639
12870TIP3    H138551   7.208   4.144   5.638
12870TIP3    H238552   7.210   4.274   5.560
12871TIP3   OH238553   5.418   7.066   6.393
12871TIP3    H138554   5.498   7.015   6.405
12871TIP3    H238555   5.390   7.046   6.303
12872TIP3   OH238556   3.532   1.163   2.637
12872TIP3    H138557   3.614   1.213   2.639
12872TIP3    H238558   3.531   1.124   2.550
12873TIP3   OH238559   7.064   1.785   4.587
12873TIP3    H138560   7.138   1.805   4.530
12873TIP3    H238561   6.992   1.838   4.552
12874TIP3   OH238562   1.920   0.608   1.394
12874TIP3    H138563   1.824   0.610   1.393
12874TIP3    H238564   1.943   0.656   1.474
12875TIP3   OH238565   7.712   0.768   5.398
12875TIP3    H138566   7.787   0.723   5.436
12875TIP3    H238567   7.719   0.751   5.304
12876TIP3   OH238568   6.395   3.054   5.270
12876TIP3    H138569   6.366   2.966   5.294
12876TIP3    H238570   6.348   3.112   5.330
12877TIP3   OH238571   0.235   6.746   6.410
12877TIP3    H138572   0.223   6.841   6.416
12877TIP3    H238573   0.330   6.734   6.403
12878TIP3   OH238574   1.600   6.527   6.512
12878TIP3    H138575   1.533   6.573   6.563
12878TIP3    H238576   1.577   6.545   6.421
12879TIP3   OH238577   4.991   3.410   3.926
12879TIP3    H138578   4.919   3.450   3.876
12879TIP3    H238579   5.029   3.346   3.865
12880TIP3   OH238580   0.684   7.387   1.838
12880TIP3    H138581   0.659   7.313   1.894
12880TIP3    H238582   0.606   7.442   1.835
12881TIP3   OH238583   7.048   6.013   4.558
12881TIP3    H138584   6.970   5.997   4.611
12881TIP3    H238585   7.085   6.094   4.594
12882TIP3   OH238586   6.680   0.806   3.622
12882TIP3    H138587   6.743   0.867   3.582
12882TIP3    H238588   6.729   0.767   3.694
12883TIP3   OH238589   6.048   7.667   4.109
12883TIP3    H138590   6.058   7.599   4.176
12883TIP3    H238591   6.002   7.738   4.154
12884TIP3   OH238592   3.379   2.597   4.075
12884TIP3    H138593   3.308   2.652   4.042
12884TIP3    H238594   3.335   2.533   4.131
12885TIP3   OH238595   1.528   6.976   0.079
12885TIP3    H138596   1.544   7.070   0.069
12885TIP3    H238597   1.594   6.947   0.142
12886TIP3   OH238598   0.277   1.902   2.464
12886TIP3    H138599   0.197   1.851   2.471
12886TIP3    H238600   0.290   1.938   2.552
12887TIP3   OH238601   7.878   6.414   1.835
12887TIP3    H138602   7.898   6.436   1.744
12887TIP3    H238603   7.785   6.433   1.845
12888TIP3   OH238604   0.452   2.522   3.552
12888TIP3    H138605   0.420   2.490   3.636
12888TIP3    H238606   0.519   2.586   3.575
12889TIP3   OH238607   6.634   4.874   4.900
12889TIP3    H138608   6.636   4.839   4.989
12889TIP3    H238609   6.571   4.946   4.904
12890TIP3   OH238610   4.914   5.905   6.005
12890TIP3    H138611   4.835   5.931   5.956
12890TIP3    H238612   4.900   5.939   6.093
12891TIP3   OH238613   2.650   0.071   2.561
12891TIP3    H138614   2.605   0.067   2.645
12891TIP3    H238615   2.686   0.160   2.558
12892TIP3   OH238616   2.043   6.457   0.794
12892TIP3    H138617   2.018   6.546   0.818
12892TIP3    H238618   2.075   6.464   0.704
12893TIP3   OH238619   2.297   2.206   3.778
12893TIP3    H138620   2.372   2.201   3.837
12893TIP3    H238621   2.324   2.267   3.709
12894TIP3   OH238622   2.818   2.981   5.089
12894TIP3    H138623   2.755   2.989   5.161
12894TIP3    H238624   2.876   3.057   5.099
12895TIP3   OH238625   8.058   4.722   3.611
12895TIP3    H138626   8.028   4.753   3.526
12895TIP3    H238627   8.015   4.637   3.623
12896TIP3   OH238628   0.225   3.307   5.818
12896TIP3    H138629   0.177   3.287   5.898
12896TIP3    H238630   0.285   3.233   5.806
12897TIP3   OH238631   4.836   5.250   4.444
12897TIP3    H138632   4.907   5.204   4.488
12897TIP3    H238633   4.852   5.343   4.463
12898TIP3   OH238634   2.727   4.596   5.918
12898TIP3    H138635   2.685   4.564   5.839
12898TIP3    H238636   2.819   4.568   5.910
12899TIP3   OH238637   3.553   4.961   6.698
12899TIP3    H138638   3.614   4.898   6.660
12899TIP3    H238639   3.609   5.025   6.743
12900TIP3   OH238640   0.930   6.646   1.087
12900TIP3    H138641   1.004   6.704   1.065
12900TIP3    H238642   0.971   6.572   1.132
12901TIP3   OH238643   0.578   7.169   2.660
12901TIP3    H138644   0.647   7.235   2.646
12901TIP3    H238645   0.537   7.195   2.742
12902TIP3   OH238646   1.889   5.153   5.903
12902TIP3    H138647   1.800   5.185   5.916
12902TIP3    H238648   1.890   5.066   5.942
12903TIP3   OH238649   4.781   6.340   2.079
12903TIP3    H138650   4.776   6.382   2.165
12903TIP3    H238651   4.770   6.412   2.017
12904TIP3   OH238652   1.674   7.361   2.025
12904TIP3    H138653   1.754   7.414   2.026
12904TIP3    H238654   1.697   7.283   1.975
12905TIP3   OH238655   7.379   3.120   0.548
12905TIP3    H138656   7.395   3.032   0.580
12905TIP3    H238657   7.315   3.110   0.478
12906TIP3   OH238658   6.616   6.449   3.581
12906TIP3    H138659   6.629   6.369   3.632
12906TIP3    H238660   6.528   6.441   3.546
12907TIP3   OH238661   0.633   1.994   3.243
12907TIP3    H138662   0.582   2.011   3.322
12907TIP3    H238663   0.604   2.060   3.180
12908TIP3   OH238664   7.312   5.876   4.695
12908TIP3    H138665   7.320   5.868   4.790
12908TIP3    H238666   7.279   5.965   4.681
12909TIP3   OH238667   2.538   6.406   3.090
12909TIP3    H138668   2.465   6.355   3.054
12909TIP3    H238669   2.522   6.496   3.061
12910TIP3   OH238670   3.869   1.359   3.592
12910TIP3    H138671   3.948   1.384   3.640
12910TIP3    H238672   3.818   1.439   3.586
12911TIP3   OH238673   4.808   5.023   1.037
12911TIP3    H138674   4.850   4.983   0.961
12911TIP3    H238675   4.724   4.979   1.044
12912TIP3   OH238676   7.563   1.265   4.847
12912TIP3    H138677   7.585   1.214   4.769
12912TIP3    H238678   7.638   1.255   4.905
12913TIP3   OH238679  -0.035   5.205   4.855
12913TIP3    H138680   0.035   5.262   4.824
12913TIP3    H238681  -0.038   5.221   4.950
12914TIP3   OH238682   4.779   2.843   2.361
12914TIP3    H138683   4.790   2.883   2.275
12914TIP3    H238684   4.866   2.850   2.402
12915TIP3   OH238685   7.855   5.453   3.770
12915TIP3    H138686   7.923   5.385   3.771
12915TIP3    H238687   7.776   5.407   3.743
12916TIP3   OH238688   1.891   0.794   1.582
12916TIP3    H138689   1.873   0.770   1.673
12916TIP3    H238690   1.977   0.836   1.584
12917TIP3   OH238691   6.849   2.283   5.390
12917TIP3    H138692   6.928   2.243   5.353
12917TIP3    H238693   6.875   2.373   5.411
12918TIP3   OH238694   3.852   7.806   0.825
12918TIP3    H138695   3.934   7.850   0.802
12918TIP3    H238696   3.875   7.753   0.901
12919TIP3   OH238697   7.593   7.627   2.474
12919TIP3    H138698   7.671   7.639   2.529
12919TIP3    H238699   7.530   7.583   2.531
12920TIP3   OH238700   1.954   1.458   5.924
12920TIP3    H138701   1.949   1.545   5.885
12920TIP3    H238702   1.998   1.472   6.008
12921TIP3   OH238703   6.565   6.195   6.253
12921TIP3    H138704   6.471   6.180   6.263
12921TIP3    H238705   6.592   6.133   6.185
12922TIP3   OH238706   6.476   4.295   4.331
12922TIP3    H138707   6.567   4.297   4.359
12922TIP3    H238708   6.431   4.357   4.389
12923TIP3   OH238709   0.997   4.857   5.593
12923TIP3    H138710   1.088   4.841   5.621
12923TIP3    H238711   0.945   4.838   5.671
12924TIP3   OH238712   4.401   1.865   6.546
12924TIP3    H138713   4.391   1.960   6.555
12924TIP3    H238714   4.492   1.848   6.573
12925TIP3   OH238715   1.955   0.675   1.815
12925TIP3    H138716   1.946   0.742   1.883
12925TIP3    H238717   2.046   0.647   1.822
12926TIP3   OH238718   1.175   3.085   3.076
12926TIP3    H138719   1.190   3.117   3.165
12926TIP3    H238720   1.241   3.129   3.023
12927TIP3   OH238721   6.202   6.469   5.062
12927TIP3    H138722   6.216   6.562   5.081
12927TIP3    H238723   6.184   6.467   4.968
12928TIP3   OH238724   4.834   3.686   1.075
12928TIP3    H138725   4.738   3.689   1.072
12928TIP3    H238726   4.853   3.619   1.142
12929TIP3   OH238727   3.889   7.128   4.736
12929TIP3    H138728   3.909   7.040   4.768
12929TIP3    H238729   3.906   7.186   4.810
12930TIP3   OH238730   4.928   7.256   3.794
12930TIP3    H138731   4.859   7.229   3.854
12930TIP3    H238732   4.883   7.310   3.728
12931TIP3   OH238733   8.319   4.444   2.608
12931TIP3    H138734   8.261   4.371   2.587
12931TIP3    H238735   8.283   4.518   2.559
12932TIP3   OH238736   0.459   3.926   1.170
12932TIP3    H138737   0.496   4.013   1.184
12932TIP3    H238738   0.366   3.942   1.154
12933TIP3   OH238739   1.654   3.553   1.028
12933TIP3    H138740   1.750   3.546   1.035
12933TIP3    H238741   1.637   3.647   1.033
12934TIP3   OH238742   7.366   2.776   5.647
12934TIP3    H138743   7.296   2.716   5.622
12934TIP3    H238744   7.386   2.755   5.738
12935TIP3   OH238745   3.119   4.525   2.948
12935TIP3    H138746   3.071   4.441   2.947
12935TIP3    H238747   3.207   4.501   2.977
12936TIP3   OH238748   4.550   5.661   3.817
12936TIP3    H138749   4.516   5.593   3.875
12936TIP3    H238750   4.624   5.699   3.865
12937TIP3   OH238751   4.403   7.015   3.616
12937TIP3    H138752   4.401   6.937   3.560
12937TIP3    H238753   4.350   6.991   3.692
12938TIP3   OH238754   6.030   6.165   3.852
12938TIP3    H138755   6.008   6.249   3.891
12938TIP3    H238756   6.123   6.171   3.830
12939TIP3   OH238757   7.921   6.021   5.298
12939TIP3    H138758   7.852   5.960   5.272
12939TIP3    H238759   7.960   6.050   5.216
12940TIP3   OH238760   1.599   6.243   3.985
12940TIP3    H138761   1.628   6.333   4.000
12940TIP3    H238762   1.504   6.247   3.986
12941TIP3   OH238763   2.747   3.710   6.788
12941TIP3    H138764   2.701   3.687   6.707
12941TIP3    H238765   2.768   3.803   6.778
12942TIP3   OH238766   1.351   3.351   6.745
12942TIP3    H138767   1.394   3.349   6.660
12942TIP3    H238768   1.257   3.346   6.725
12943TIP3   OH238769   1.778   1.693   5.360
12943TIP3    H138770   1.834   1.758   5.317
12943TIP3    H238771   1.725   1.744   5.422
12944TIP3   OH238772   5.897   5.411   2.216
12944TIP3    H138773   5.835   5.342   2.190
12944TIP3    H238774   5.857   5.492   2.186
12945TIP3   OH238775   7.141   3.962   5.336
12945TIP3    H138776   7.095   4.031   5.288
12945TIP3    H238777   7.126   3.983   5.428
12946TIP3   OH238778   3.651   7.370   0.119
12946TIP3    H138779   3.599   7.305   0.072
12946TIP3    H238780   3.619   7.366   0.209
12947TIP3   OH238781   8.146   3.292   0.027
12947TIP3    H138782   8.063   3.338   0.016
12947TIP3    H238783   8.190   3.337   0.099
12948TIP3   OH238784   1.720   6.061   6.379
12948TIP3    H138785   1.721   6.151   6.345
12948TIP3    H238786   1.714   6.071   6.474
12949TIP3   OH238787   0.693   1.831   4.283
12949TIP3    H138788   0.778   1.788   4.273
12949TIP3    H238789   0.691   1.896   4.212
12950TIP3   OH238790   1.710   5.598   2.738
12950TIP3    H138791   1.667   5.576   2.820
12950TIP3    H238792   1.646   5.578   2.670
12951TIP3   OH238793   6.108   5.287   2.071
12951TIP3    H138794   6.063   5.208   2.040
12951TIP3    H238795   6.042   5.334   2.122
12952TIP3   OH238796   3.877   7.044   1.511
12952TIP3    H138797   3.917   7.002   1.587
12952TIP3    H238798   3.794   6.998   1.499
12953TIP3   OH238799   7.199   6.781   0.415
12953TIP3    H138800   7.291   6.765   0.439
12953TIP3    H238801   7.188   6.876   0.423
12954TIP3   OH238802   2.831   3.379   1.163
12954TIP3    H138803   2.870   3.316   1.103
12954TIP3    H238804   2.790   3.325   1.231
12955TIP3   OH238805   1.908   4.159   3.465
12955TIP3    H138806   1.890   4.172   3.559
12955TIP3    H238807   1.913   4.248   3.430
12956TIP3   OH238808   2.925   0.518   2.139
12956TIP3    H138809   2.972   0.593   2.176
12956TIP3    H238810   2.965   0.442   2.181
12957TIP3   OH238811   2.036   6.774   0.152
12957TIP3    H138812   2.045   6.791   0.058
12957TIP3    H238813   1.969   6.835   0.182
12958TIP3   OH238814   5.476   2.798   5.622
12958TIP3    H138815   5.539   2.864   5.649
12958TIP3    H238816   5.393   2.845   5.617
12959TIP3   OH238817   5.069   7.005   4.980
12959TIP3    H138818   5.073   6.909   4.980
12959TIP3    H238819   5.110   7.030   4.897
12960TIP3   OH238820   3.297   6.000   2.183
12960TIP3    H138821   3.215   5.963   2.152
12960TIP3    H238822   3.280   6.025   2.274
12961TIP3   OH238823   4.576   1.767   3.879
12961TIP3    H138824   4.664   1.732   3.896
12961TIP3    H238825   4.555   1.736   3.791
12962TIP3   OH238826   6.939   3.191   5.303
12962TIP3    H138827   6.915   3.163   5.214
12962TIP3    H238828   7.032   3.171   5.309
12963TIP3   OH238829   6.638   0.105   5.137
12963TIP3    H138830   6.560   0.161   5.138
12963TIP3    H238831   6.689   0.136   5.063
12964TIP3   OH238832   4.651   2.220   3.030
12964TIP3    H138833   4.557   2.203   3.024
12964TIP3    H238834   4.692   2.141   2.995
12965TIP3   OH238835   4.455   4.798   2.596
12965TIP3    H138836   4.405   4.767   2.672
12965TIP3    H238837   4.441   4.732   2.529
12966TIP3   OH238838   7.728   1.124   4.645
12966TIP3    H138839   7.792   1.055   4.659
12966TIP3    H238840   7.728   1.140   4.551
12967TIP3   OH238841   3.260   1.120   0.386
12967TIP3    H138842   3.215   1.188   0.336
12967TIP3    H238843   3.350   1.152   0.395
12968TIP3   OH238844   2.387   6.900   5.580
12968TIP3    H138845   2.441   6.944   5.646
12968TIP3    H238846   2.450   6.863   5.519
12969TIP3   OH238847   5.759   5.808   0.310
12969TIP3    H138848   5.842   5.777   0.346
12969TIP3    H238849   5.758   5.902   0.330
12970TIP3   OH238850   8.219   7.409   3.877
12970TIP3    H138851   8.169   7.479   3.834
12970TIP3    H238852   8.206   7.332   3.822
12971TIP3   OH238853  -0.059   2.311   5.748
12971TIP3    H138854   0.035   2.324   5.748
12971TIP3    H238855  -0.082   2.297   5.840
12972TIP3   OH238856   5.101   0.056   4.422
12972TIP3    H138857   5.103   0.070   4.516
12972TIP3    H238858   5.076   0.141   4.385
12973TIP3   OH238859   6.892   0.131   5.829
12973TIP3    H138860   6.797   0.137   5.830
12973TIP3    H238861   6.919   0.161   5.915
12974TIP3   OH238862   7.594   4.170   5.594
12974TIP3    H138863   7.681   4.173   5.553
12974TIP3    H238864   7.598   4.095   5.653
12975TIP3   OH238865   8.017   2.401   3.879
12975TIP3    H138866   7.978   2.487   3.861
12975TIP3    H238867   8.094   2.398   3.822
12976TIP3   OH238868   2.916   2.684   4.548
12976TIP3    H138869   2.899   2.664   4.640
12976TIP3    H238870   2.852   2.631   4.500
12977TIP3   OH238871   0.487   7.641   3.126
12977TIP3    H138872   0.397   7.642   3.095
12977TIP3    H238873   0.512   7.549   3.128
12978TIP3   OH238874   4.457   5.867   1.399
12978TIP3    H138875   4.530   5.875   1.337
12978TIP3    H238876   4.401   5.943   1.380
12979TIP3   OH238877   4.637   2.817   1.955
12979TIP3    H138878   4.544   2.839   1.951
12979TIP3    H238879   4.662   2.801   1.864
12980TIP3   OH238880   5.565   1.795   6.640
12980TIP3    H138881   5.563   1.777   6.734
12980TIP3    H238882   5.573   1.890   6.634
12981TIP3   OH238883   5.776   7.169   4.482
12981TIP3    H138884   5.814   7.149   4.397
12981TIP3    H238885   5.767   7.264   4.483
12982TIP3   OH238886   3.567   6.233   4.565
12982TIP3    H138887   3.576   6.302   4.499
12982TIP3    H238888   3.549   6.280   4.647
12983TIP3   OH238889   4.308   0.042   2.924
12983TIP3    H138890   4.329   0.003   3.009
12983TIP3    H238891   4.392   0.071   2.890
12984TIP3   OH238892   6.685   6.914   2.896
12984TIP3    H138893   6.721   6.866   2.970
12984TIP3    H238894   6.706   6.861   2.819
12985TIP3   OH238895   0.054   6.432   4.647
12985TIP3    H138896   0.034   6.463   4.559
12985TIP3    H238897   0.134   6.478   4.671
12986TIP3   OH238898   3.991   1.645   1.978
12986TIP3    H138899   4.020   1.734   1.997
12986TIP3    H238900   3.969   1.608   2.063
12987TIP3   OH238901   5.334   5.337   6.351
12987TIP3    H138902   5.369   5.426   6.360
12987TIP3    H238903   5.270   5.329   6.422
12988TIP3   OH238904   2.148   7.810   0.298
12988TIP3    H138905   2.154   7.728   0.348
12988TIP3    H238906   2.170   7.878   0.361
12989TIP3   OH238907   5.319   0.070   5.781
12989TIP3    H138908   5.326   0.162   5.757
12989TIP3    H238909   5.260   0.033   5.714
12990TIP3   OH238910   5.851   5.631   5.399
12990TIP3    H138911   5.818   5.596   5.481
12990TIP3    H238912   5.909   5.703   5.424
12991TIP3   OH238913   3.155   1.481   3.484
12991TIP3    H138914   3.172   1.542   3.556
12991TIP3    H238915   3.178   1.395   3.519
12992TIP3   OH238916   8.311   2.809   3.487
12992TIP3    H138917   8.258   2.801   3.566
12992TIP3    H238918   8.337   2.719   3.466
12993TIP3   OH238919   5.364   2.245   4.965
12993TIP3    H138920   5.289   2.288   5.009
12993TIP3    H238921   5.430   2.238   5.033
12994TIP3   OH238922   7.715   0.151   3.018
12994TIP3    H138923   7.754   0.179   2.936
12994TIP3    H238924   7.768   0.192   3.086
12995TIP3   OH238925   2.935   1.815   2.735
12995TIP3    H138926   2.889   1.888   2.777
12995TIP3    H238927   2.897   1.809   2.648
12996TIP3   OH238928   6.809   2.769   5.252
12996TIP3    H138929   6.898   2.735   5.250
12996TIP3    H238930   6.819   2.861   5.275
12997TIP3   OH238931   5.381   7.528   3.542
12997TIP3    H138932   5.460   7.578   3.561
12997TIP3    H238933   5.399   7.440   3.576
12998TIP3   OH238934   2.997   3.115   5.361
12998TIP3    H138935   2.953   3.191   5.398
12998TIP3    H238936   3.009   3.137   5.268
12999TIP3   OH238937   6.711   4.629   5.405
12999TIP3    H138938   6.791   4.605   5.451
12999TIP3    H238939   6.665   4.688   5.465
13000TIP3   OH238940   6.981   3.497   4.154
13000TIP3    H138941   6.903   3.522   4.203
13000TIP3    H238942   6.963   3.526   4.064
13001TIP3   OH238943   4.431   0.575   4.539
13001TIP3    H138944   4.506   0.530   4.501
13001TIP3    H238945   4.358   0.551   4.482
13002TIP3   OH238946   3.110   4.034   4.143
13002TIP3    H138947   3.101   3.946   4.107
13002TIP3    H238948   3.036   4.044   4.203
13003TIP3   OH238949   2.003   0.593   0.890
13003TIP3    H138950   1.919   0.639   0.889
13003TIP3    H238951   2.012   0.556   0.803
13004TIP3   OH238952   1.129   6.717   0.734
13004TIP3    H138953   1.139   6.812   0.741
13004TIP3    H238954   1.209   6.681   0.771
13005TIP3   OH238955   6.803   2.699   4.125
13005TIP3    H138956   6.739   2.650   4.177
13005TIP3    H238957   6.878   2.710   4.185
13006TIP3   OH238958   6.698   0.748   2.074
13006TIP3    H138959   6.761   0.820   2.065
13006TIP3    H238960   6.730   0.697   2.149
13007TIP3   OH238961   7.055   5.147   3.952
13007TIP3    H138962   7.148   5.170   3.959
13007TIP3    H238963   7.021   5.158   4.040
13008TIP3   OH238964   2.331   7.738   1.626
13008TIP3    H138965   2.338   7.662   1.568
13008TIP3    H238966   2.403   7.796   1.598
13009TIP3   OH238967   7.925   2.099   6.301
13009TIP3    H138968   7.876   2.073   6.223
13009TIP3    H238969   7.943   2.017   6.347
13010TIP3   OH238970   2.842   0.147   0.491
13010TIP3    H138971   2.770   0.100   0.533
13010TIP3    H238972   2.810   0.167   0.403
13011TIP3   OH238973   6.375   0.380   1.328
13011TIP3    H138974   6.435   0.450   1.355
13011TIP3    H238975   6.366   0.392   1.233
13012TIP3   OH238976   3.148   0.426   3.306
13012TIP3    H138977   3.136   0.344   3.353
13012TIP3    H238978   3.063   0.469   3.309
13013TIP3   OH238979   0.763   2.479   3.777
13013TIP3    H138980   0.859   2.488   3.770
13013TIP3    H238981   0.748   2.454   3.868
13014TIP3   OH238982   0.982   5.658   1.362
13014TIP3    H138983   0.892   5.636   1.337
13014TIP3    H238984   1.018   5.575   1.394
13015TIP3   OH238985   8.147   3.629   3.453
13015TIP3    H138986   8.152   3.683   3.374
13015TIP3    H238987   8.123   3.691   3.523
13016TIP3   OH238988   1.719   2.696   2.038
13016TIP3    H138989   1.630   2.662   2.028
13016TIP3    H238990   1.774   2.618   2.044
13017TIP3   OH238991   3.746   7.273   1.428
13017TIP3    H138992   3.671   7.249   1.482
13017TIP3    H238993   3.714   7.342   1.371
13018TIP3   OH238994   7.886   3.511   0.882
13018TIP3    H138995   7.978   3.488   0.889
13018TIP3    H238996   7.848   3.441   0.828
13019TIP3   OH238997   2.341   2.629   6.360
13019TIP3    H138998   2.431   2.625   6.325
13019TIP3    H238999   2.300   2.701   6.313
13020TIP3   OH239000   4.627   5.525   4.078
13020TIP3    H139001   4.658   5.436   4.061
13020TIP3    H239002   4.670   5.579   4.012
13021TIP3   OH239003   2.432   3.835   1.967
13021TIP3    H139004   2.342   3.819   1.998
13021TIP3    H239005   2.486   3.823   2.045
13022TIP3   OH239006   5.168   2.693   2.301
13022TIP3    H139007   5.223   2.710   2.378
13022TIP3    H239008   5.205   2.614   2.263
13023TIP3   OH239009   2.432   6.600   0.050
13023TIP3    H139010   2.479   6.549  -0.016
13023TIP3    H239011   2.356   6.547   0.073
13024TIP3   OH239012   5.504   4.892   0.316
13024TIP3    H139013   5.480   4.953   0.386
13024TIP3    H239014   5.476   4.806   0.349
13025TIP3   OH239015   0.775   4.580   0.755
13025TIP3    H139016   0.826   4.579   0.674
13025TIP3    H239017   0.774   4.673   0.781
13026TIP3   OH239018   1.740   2.479   4.697
13026TIP3    H139019   1.695   2.402   4.660
13026TIP3    H239020   1.704   2.488   4.785
13027TIP3   OH239021   2.103   0.275   2.083
13027TIP3    H139022   2.069   0.314   2.164
13027TIP3    H239023   2.055   0.319   2.013
13028TIP3   OH239024   5.732   6.045   5.949
13028TIP3    H139025   5.802   6.000   5.995
13028TIP3    H239026   5.653   5.996   5.972
13029TIP3   OH239027   2.582   0.849   1.409
13029TIP3    H139028   2.511   0.909   1.387
13029TIP3    H239029   2.548   0.796   1.482
13030TIP3   OH239030   2.087   7.127   4.796
13030TIP3    H139031   2.173   7.126   4.839
13030TIP3    H239032   2.053   7.215   4.812
13031TIP3   OH239033   5.708   2.672   6.016
13031TIP3    H139034   5.722   2.653   6.109
13031TIP3    H239035   5.628   2.723   6.014
13032TIP3   OH239036   5.734   7.634   4.826
13032TIP3    H139037   5.675   7.583   4.882
13032TIP3    H239038   5.690   7.639   4.742
13033TIP3   OH239039   7.241   4.475   6.328
13033TIP3    H139040   7.280   4.510   6.248
13033TIP3    H239041   7.158   4.435   6.300
13034TIP3   OH239042   4.142   4.462   6.266
13034TIP3    H139043   4.123   4.552   6.291
13034TIP3    H239044   4.073   4.410   6.308
13035TIP3   OH239045   3.637   7.027   1.851
13035TIP3    H139046   3.636   6.944   1.803
13035TIP3    H239047   3.582   7.010   1.928
13036TIP3   OH239048   2.286   3.609   6.729
13036TIP3    H139049   2.361   3.637   6.781
13036TIP3    H239050   2.264   3.523   6.764
13037TIP3   OH239051   6.039   1.212   2.871
13037TIP3    H139052   6.029   1.191   2.778
13037TIP3    H239053   5.959   1.259   2.894
13038TIP3   OH239054   0.386   0.447   5.794
13038TIP3    H139055   0.434   0.365   5.798
13038TIP3    H239056   0.301   0.428   5.834
13039TIP3   OH239057   6.184   1.418   1.650
13039TIP3    H139058   6.107   1.475   1.646
13039TIP3    H239059   6.247   1.461   1.593
13040TIP3   OH239060   0.572   0.588   4.978
13040TIP3    H139061   0.660   0.609   4.950
13040TIP3    H239062   0.575   0.593   5.074
13041TIP3   OH239063   7.038   3.605   3.378
13041TIP3    H139064   7.129   3.633   3.390
13041TIP3    H239065   7.013   3.571   3.464
13042TIP3   OH239066   7.389   4.754   4.469
13042TIP3    H139067   7.481   4.764   4.492
13042TIP3    H239068   7.341   4.783   4.547
13043TIP3   OH239069   8.236   5.131   5.761
13043TIP3    H139070   8.320   5.177   5.762
13043TIP3    H239071   8.200   5.146   5.849
13044TIP3   OH239072   7.872   2.065   5.191
13044TIP3    H139073   7.784   2.098   5.170
13044TIP3    H239074   7.862   2.027   5.279
13045TIP3   OH239075   4.423   2.531   4.046
13045TIP3    H139076   4.344   2.578   4.019
13045TIP3    H239077   4.391   2.460   4.102
13046TIP3   OH239078   4.871   5.975   3.877
13046TIP3    H139079   4.784   6.015   3.879
13046TIP3    H239080   4.905   5.996   3.790
13047TIP3   OH239081   2.170   7.722   3.579
13047TIP3    H139082   2.145   7.784   3.510
13047TIP3    H239083   2.264   7.712   3.570
13048TIP3   OH239084   4.372   1.639   5.118
13048TIP3    H139085   4.300   1.703   5.116
13048TIP3    H239086   4.448   1.688   5.089
13049TIP3   OH239087   2.954   1.274   0.271
13049TIP3    H139088   2.906   1.346   0.229
13049TIP3    H239089   3.004   1.317   0.341
13050TIP3   OH239090   7.957   2.749   3.038
13050TIP3    H139091   8.047   2.728   3.014
13050TIP3    H239092   7.937   2.691   3.111
13051TIP3   OH239093   1.620   7.643   3.415
13051TIP3    H139094   1.680   7.674   3.483
13051TIP3    H239095   1.677   7.603   3.350
13052TIP3   OH239096   7.521   3.133   5.145
13052TIP3    H139097   7.511   3.039   5.126
13052TIP3    H239098   7.528   3.137   5.241
13053TIP3   OH239099   2.803   2.544   4.887
13053TIP3    H139100   2.851   2.620   4.856
13053TIP3    H239101   2.754   2.575   4.963
13054TIP3   OH239102   2.696   6.786   0.396
13054TIP3    H139103   2.642   6.723   0.444
13054TIP3    H239104   2.656   6.871   0.415
13055TIP3   OH239105   5.976   5.540   6.022
13055TIP3    H139106   5.883   5.539   6.045
13055TIP3    H239107   5.979   5.511   5.931
13056TIP3   OH239108   3.306   5.784   1.644
13056TIP3    H139109   3.287   5.751   1.732
13056TIP3    H239110   3.258   5.726   1.585
13057TIP3   OH239111   1.196   0.989   0.969
13057TIP3    H139112   1.156   0.920   0.917
13057TIP3    H239113   1.217   0.948   1.053
13058TIP3   OH239114   3.471   2.153   4.939
13058TIP3    H139115   3.417   2.139   4.862
13058TIP3    H239116   3.480   2.066   4.979
13059TIP3   OH239117   2.662   4.831   1.466
13059TIP3    H139118   2.644   4.880   1.386
13059TIP3    H239119   2.719   4.889   1.517
13060TIP3   OH239120   6.963   1.293   4.972
13060TIP3    H139121   6.879   1.276   5.014
13060TIP3    H239122   6.958   1.245   4.889
13061TIP3   OH239123   2.334   6.224   6.425
13061TIP3    H139124   2.381   6.141   6.420
13061TIP3    H239125   2.384   6.284   6.370
13062TIP3   OH239126   8.099   3.021   3.659
13062TIP3    H139127   8.091   3.101   3.608
13062TIP3    H239128   8.018   3.018   3.711
13063TIP3   OH239129   4.933   4.380   4.018
13063TIP3    H139130   4.986   4.409   4.092
13063TIP3    H239131   4.993   4.327   3.965
13064TIP3   OH239132   7.780   1.207   4.993
13064TIP3    H139133   7.813   1.118   5.003
13064TIP3    H239134   7.799   1.249   5.077
13065TIP3   OH239135   1.810   7.463   6.302
13065TIP3    H139136   1.836   7.491   6.390
13065TIP3    H239137   1.756   7.386   6.316
13066TIP3   OH239138   0.933   7.624   4.379
13066TIP3    H139139   0.853   7.578   4.405
13066TIP3    H239140   0.969   7.571   4.308
13067TIP3   OH239141   6.981   3.544   0.672
13067TIP3    H139142   6.899   3.496   0.658
13067TIP3    H239143   7.022   3.501   0.747
13068TIP3   OH239144   5.995   6.350   3.144
13068TIP3    H139145   5.964   6.336   3.233
13068TIP3    H239146   5.971   6.270   3.097
13069TIP3   OH239147   5.557   4.589   5.314
13069TIP3    H139148   5.605   4.533   5.375
13069TIP3    H239149   5.602   4.674   5.318
13070TIP3   OH239150   0.697   0.122   0.221
13070TIP3    H139151   0.652   0.136   0.304
13070TIP3    H239152   0.671   0.034   0.194
13071TIP3   OH239153   0.795   3.542   2.460
13071TIP3    H139154   0.832   3.629   2.471
13071TIP3    H239155   0.866   3.482   2.481
13072TIP3   OH239156   0.439   2.560   3.890
13072TIP3    H139157   0.482   2.479   3.863
13072TIP3    H239158   0.391   2.537   3.969
13073TIP3   OH239159   0.911   3.148   6.635
13073TIP3    H139160   0.847   3.215   6.611
13073TIP3    H239161   0.938   3.110   6.551
13074TIP3   OH239162   4.284   1.311   6.578
13074TIP3    H139163   4.295   1.370   6.503
13074TIP3    H239164   4.374   1.290   6.604
13075TIP3   OH239165   6.663   0.948   6.694
13075TIP3    H139166   6.694   0.963   6.783
13075TIP3    H239167   6.673   1.033   6.651
13076TIP3   OH239168   0.749   2.542   4.860
13076TIP3    H139169   0.721   2.450   4.852
13076TIP3    H239170   0.842   2.536   4.882
13077TIP3   OH239171   1.334   3.637   2.590
13077TIP3    H139172   1.271   3.584   2.541
13077TIP3    H239173   1.357   3.584   2.666
13078TIP3   OH239174   1.162   5.273   6.348
13078TIP3    H139175   1.154   5.178   6.362
13078TIP3    H239176   1.078   5.308   6.378
13079TIP3   OH239177   4.534   3.217   3.515
13079TIP3    H139178   4.516   3.126   3.540
13079TIP3    H239179   4.541   3.264   3.598
13080TIP3   OH239180   4.967   6.511   6.280
13080TIP3    H139181   4.947   6.429   6.325
13080TIP3    H239182   4.884   6.558   6.276
13081TIP3   OH239183   4.909   7.864   5.766
13081TIP3    H139184   4.907   7.868   5.861
13081TIP3    H239185   4.959   7.785   5.745
13082TIP3   OH239186   2.337   2.523   4.059
13082TIP3    H139187   2.348   2.559   4.147
13082TIP3    H239188   2.294   2.438   4.073
13083TIP3   OH239189   5.230   1.300   0.827
13083TIP3    H139190   5.150   1.251   0.841
13083TIP3    H239191   5.300   1.236   0.840
13084TIP3   OH239192   5.665   1.854   4.934
13084TIP3    H139193   5.574   1.826   4.944
13084TIP3    H239194   5.664   1.916   4.861
13085TIP3   OH239195   1.577   0.183   1.203
13085TIP3    H139196   1.561   0.089   1.200
13085TIP3    H239197   1.490   0.222   1.201
13086TIP3   OH239198   5.874   5.749   4.997
13086TIP3    H139199   5.796   5.735   4.944
13086TIP3    H239200   5.856   5.703   5.079
13087TIP3   OH239201   3.206   5.682   1.878
13087TIP3    H139202   3.138   5.616   1.865
13087TIP3    H239203   3.173   5.736   1.950
13088TIP3   OH239204   1.255   5.421   1.661
13088TIP3    H139205   1.296   5.464   1.585
13088TIP3    H239206   1.167   5.399   1.631
13089TIP3   OH239207   4.273   5.629   1.444
13089TIP3    H139208   4.267   5.655   1.536
13089TIP3    H239209   4.356   5.667   1.414
13090TIP3   OH239210   6.793   5.244   5.697
13090TIP3    H139211   6.831   5.308   5.636
13090TIP3    H239212   6.717   5.288   5.734
13091TIP3   OH239213   7.967   5.983   2.145
13091TIP3    H139214   7.878   6.001   2.114
13091TIP3    H239215   7.981   6.046   2.216
13092TIP3   OH239216   8.130   2.190   5.241
13092TIP3    H139217   8.144   2.209   5.334
13092TIP3    H239218   8.055   2.132   5.239
13093TIP3   OH239219   5.379   5.558   5.877
13093TIP3    H139220   5.440   5.632   5.883
13093TIP3    H239221   5.295   5.593   5.908
13094TIP3   OH239222   2.332   1.279   1.059
13094TIP3    H139223   2.295   1.367   1.053
13094TIP3    H239224   2.357   1.270   1.151
13095TIP3   OH239225   6.444   0.432   6.358
13095TIP3    H139226   6.393   0.375   6.416
13095TIP3    H239227   6.423   0.521   6.388
13096TIP3   OH239228   0.028   4.332   5.457
13096TIP3    H139229   0.040   4.385   5.535
13096TIP3    H239230   0.100   4.357   5.399
13097TIP3   OH239231   3.094   7.119   5.641
13097TIP3    H139232   3.000   7.139   5.644
13097TIP3    H239233   3.099   7.024   5.653
13098TIP3   OH239234   0.178   7.396   6.243
13098TIP3    H139235   0.222   7.424   6.323
13098TIP3    H239236   0.084   7.408   6.261
13099TIP3   OH239237   7.020   5.545   3.838
13099TIP3    H139238   7.023   5.455   3.803
13099TIP3    H239239   6.970   5.594   3.773
13100TIP3   OH239240   5.739   4.157   5.762
13100TIP3    H139241   5.799   4.231   5.760
13100TIP3    H239242   5.667   4.185   5.818
13101TIP3   OH239243   3.901   3.936   6.574
13101TIP3    H139244   3.807   3.915   6.574
13101TIP3    H239245   3.930   3.912   6.486
13102TIP3   OH239246   3.899   4.699   3.608
13102TIP3    H139247   3.981   4.747   3.601
13102TIP3    H239248   3.892   4.651   3.525
13103TIP3   OH239249   0.670   0.383   2.981
13103TIP3    H139250   0.715   0.386   3.066
13103TIP3    H239251   0.691   0.468   2.940
13104TIP3   OH239252   3.060   0.085   5.470
13104TIP3    H139253   3.091   0.118   5.555
13104TIP3    H239254   3.140   0.062   5.423
13105TIP3   OH239255   1.464   3.825   3.530
13105TIP3    H139256   1.496   3.898   3.478
13105TIP3    H239257   1.479   3.748   3.475
13106TIP3   OH239258   7.339   3.265   1.922
13106TIP3    H139259   7.363   3.227   2.006
13106TIP3    H239260   7.414   3.245   1.865
13107TIP3   OH239261   0.913   3.951   2.989
13107TIP3    H139262   0.991   3.913   3.030
13107TIP3    H239263   0.928   3.942   2.895
13108TIP3   OH239264   1.553   5.699   3.214
13108TIP3    H139265   1.621   5.668   3.274
13108TIP3    H239266   1.473   5.695   3.265
13109TIP3   OH239267   2.211   5.823   6.504
13109TIP3    H139268   2.194   5.913   6.476
13109TIP3    H239269   2.290   5.830   6.559
13110TIP3   OH239270   2.718   4.725   1.779
13110TIP3    H139271   2.797   4.707   1.730
13110TIP3    H239272   2.647   4.699   1.721
13111TIP3   OH239273   4.743   6.134   1.387
13111TIP3    H139274   4.681   6.157   1.457
13111TIP3    H239275   4.816   6.092   1.433
13112TIP3   OH239276   5.827   7.364   4.918
13112TIP3    H139277   5.822   7.451   4.878
13112TIP3    H239278   5.769   7.310   4.864
13113TIP3   OH239279   8.383   0.142   3.357
13113TIP3    H139280   8.294   0.149   3.392
13113TIP3    H239281   8.397   0.223   3.308
13114TIP3   OH239282   7.614   0.396   6.147
13114TIP3    H139283   7.696   0.421   6.189
13114TIP3    H239284   7.592   0.471   6.091
13115TIP3   OH239285   1.931   1.141   4.620
13115TIP3    H139286   1.887   1.082   4.682
13115TIP3    H239287   2.012   1.096   4.598
13116TIP3   OH239288   7.198   4.594   0.656
13116TIP3    H139289   7.219   4.600   0.749
13116TIP3    H239290   7.245   4.516   0.626
13117TIP3   OH239291   0.070   3.961   0.196
13117TIP3    H139292   0.069   4.056   0.207
13117TIP3    H239293  -0.005   3.930   0.246
13118TIP3   OH239294   7.544   3.097   6.257
13118TIP3    H139295   7.613   3.119   6.195
13118TIP3    H239296   7.590   3.075   6.338
13119TIP3   OH239297   5.607   7.101   3.506
13119TIP3    H139298   5.642   7.058   3.584
13119TIP3    H239299   5.588   7.030   3.445
13120TIP3   OH239300   0.674   7.632   0.560
13120TIP3    H139301   0.743   7.652   0.623
13120TIP3    H239302   0.618   7.569   0.605
13121TIP3   OH239303   3.318   3.895   1.083
13121TIP3    H139304   3.381   3.823   1.090
13121TIP3    H239305   3.317   3.916   0.990
13122TIP3   OH239306   7.471   6.702   0.510
13122TIP3    H139307   7.564   6.704   0.487
13122TIP3    H239308   7.442   6.614   0.484
13123TIP3   OH239309   7.255   6.970   3.270
13123TIP3    H139310   7.350   6.975   3.260
13123TIP3    H239311   7.240   6.886   3.312
13124TIP3   OH239312   4.149   4.067   0.365
13124TIP3    H139313   4.183   4.078   0.276
13124TIP3    H239314   4.219   4.098   0.422
13125TIP3   OH239315   3.366   4.437   0.466
13125TIP3    H139316   3.385   4.512   0.521
13125TIP3    H239317   3.362   4.363   0.527
13126TIP3   OH239318   2.712   4.878   5.949
13126TIP3    H139319   2.713   4.791   5.989
13126TIP3    H239320   2.697   4.862   5.856
13127TIP3   OH239321   0.194   3.051   5.584
13127TIP3    H139322   0.210   3.006   5.501
13127TIP3    H239323   0.239   3.135   5.574
13128TIP3   OH239324   5.943   1.370   3.605
13128TIP3    H139325   5.894   1.424   3.543
13128TIP3    H239326   5.878   1.339   3.667
13129TIP3   OH239327   6.310   7.213   1.161
13129TIP3    H139328   6.355   7.158   1.225
13129TIP3    H239329   6.254   7.153   1.112
13130TIP3   OH239330   0.432   0.373   3.251
13130TIP3    H139331   0.445   0.420   3.169
13130TIP3    H239332   0.518   0.375   3.293
13131TIP3   OH239333   6.036   2.736   5.556
13131TIP3    H139334   6.031   2.829   5.577
13131TIP3    H239335   6.123   2.724   5.517
13132TIP3   OH239336   5.727   3.094   3.721
13132TIP3    H139337   5.709   3.094   3.627
13132TIP3    H239338   5.821   3.077   3.728
13133TIP3   OH239339   2.761   1.775   3.425
13133TIP3    H139340   2.822   1.729   3.367
13133TIP3    H239341   2.727   1.846   3.371
13134TIP3   OH239342   7.040   6.539   1.928
13134TIP3    H139343   7.059   6.448   1.906
13134TIP3    H239344   6.969   6.533   1.993
13135TIP3   OH239345   7.356   1.439   5.607
13135TIP3    H139346   7.423   1.496   5.570
13135TIP3    H239347   7.309   1.403   5.532
13136TIP3   OH239348   5.912   1.120   2.602
13136TIP3    H139349   5.823   1.098   2.629
13136TIP3    H239350   5.925   1.070   2.521
13137TIP3   OH239351   3.672   1.653   0.858
13137TIP3    H139352   3.738   1.663   0.926
13137TIP3    H239353   3.664   1.739   0.818
13138TIP3   OH239354   0.445   5.619   1.195
13138TIP3    H139355   0.446   5.599   1.102
13138TIP3    H239356   0.436   5.534   1.238
13139TIP3   OH239357   7.406   1.182   2.983
13139TIP3    H139358   7.417   1.088   2.966
13139TIP3    H239359   7.387   1.187   3.077
13140TIP3   OH239360   5.695   0.728   2.368
13140TIP3    H139361   5.639   0.764   2.437
13140TIP3    H239362   5.637   0.673   2.316
13141TIP3   OH239363   6.753   0.092   6.386
13141TIP3    H139364   6.846   0.085   6.409
13141TIP3    H239365   6.726   0.176   6.420
13142TIP3   OH239366   3.171   3.614   6.477
13142TIP3    H139367   3.201   3.539   6.528
13142TIP3    H239368   3.237   3.624   6.408
13143TIP3   OH239369   0.693   0.050   6.001
13143TIP3    H139370   0.731  -0.038   5.997
13143TIP3    H239371   0.705   0.077   6.092
13144TIP3   OH239372   1.924   6.560   5.058
13144TIP3    H139373   1.915   6.532   4.967
13144TIP3    H239374   1.849   6.522   5.103
13145TIP3   OH239375   6.476   4.263   5.571
13145TIP3    H139376   6.489   4.309   5.488
13145TIP3    H239377   6.557   4.213   5.583
13146TIP3   OH239378   7.885   7.374   5.146
13146TIP3    H139379   7.947   7.439   5.112
13146TIP3    H239380   7.885   7.388   5.240
13147TIP3   OH239381   6.457   7.069   4.394
13147TIP3    H139382   6.410   7.084   4.476
13147TIP3    H239383   6.394   7.088   4.325
13148TIP3   OH239384   5.906   3.146   4.932
13148TIP3    H139385   5.826   3.149   4.880
13148TIP3    H239386   5.895   3.070   4.990
13149TIP3   OH239387   4.294   4.639   3.654
13149TIP3    H139388   4.353   4.606   3.723
13149TIP3    H239389   4.222   4.679   3.701
13150TIP3   OH239390   0.480   6.699   3.136
13150TIP3    H139391   0.452   6.718   3.225
13150TIP3    H239392   0.501   6.606   3.137
13151TIP3   OH239393   7.423   3.286   6.556
13151TIP3    H139394   7.498   3.315   6.609
13151TIP3    H239395   7.442   3.195   6.536
13152TIP3   OH239396   1.500   6.728   0.455
13152TIP3    H139397   1.510   6.799   0.519
13152TIP3    H239398   1.499   6.649   0.508
13153TIP3   OH239399   7.081   5.242   6.050
13153TIP3    H139400   7.090   5.329   6.012
13153TIP3    H239401   7.063   5.185   5.975
13154TIP3   OH239402   3.177   4.718   6.166
13154TIP3    H139403   3.150   4.701   6.076
13154TIP3    H239404   3.115   4.669   6.220
13155TIP3   OH239405   3.109   1.365   4.825
13155TIP3    H139406   3.030   1.329   4.864
13155TIP3    H239407   3.181   1.328   4.877
13156TIP3   OH239408   3.111   5.574   4.841
13156TIP3    H139409   3.162   5.533   4.911
13156TIP3    H239410   3.135   5.666   4.845
13157TIP3   OH239411   2.920   7.907   3.176
13157TIP3    H139412   2.832   7.878   3.150
13157TIP3    H239413   2.955   7.835   3.228
13158TIP3   OH239414   7.678   1.477   3.307
13158TIP3    H139415   7.657   1.533   3.233
13158TIP3    H239416   7.598   1.429   3.325
13159TIP3   OH239417   5.491   1.618   6.092
13159TIP3    H139418   5.525   1.614   6.002
13159TIP3    H239419   5.565   1.592   6.147
13160TIP3   OH239420   7.314   6.351   1.125
13160TIP3    H139421   7.275   6.273   1.085
13160TIP3    H239422   7.395   6.365   1.075
13161TIP3   OH239423   3.430   7.391   5.066
13161TIP3    H139424   3.473   7.349   4.992
13161TIP3    H239425   3.388   7.319   5.113
13162TIP3   OH239426   5.074   7.092   6.210
13162TIP3    H139427   5.037   7.006   6.192
13162TIP3    H239428   5.002   7.142   6.249
13163TIP3   OH239429   6.278   4.231   1.015
13163TIP3    H139430   6.235   4.152   1.050
13163TIP3    H239431   6.244   4.239   0.926
13164TIP3   OH239432   1.110   2.330   4.638
13164TIP3    H139433   1.179   2.332   4.704
13164TIP3    H239434   1.117   2.242   4.599
13165TIP3   OH239435   1.802   0.559   1.129
13165TIP3    H139436   1.877   0.563   1.189
13165TIP3    H239437   1.813   0.476   1.083
13166TIP3   OH239438   8.280   3.223   5.485
13166TIP3    H139439   8.353   3.285   5.476
13166TIP3    H239440   8.289   3.189   5.574
13167TIP3   OH239441   2.913   1.547   0.209
13167TIP3    H139442   2.863   1.627   0.191
13167TIP3    H239443   3.003   1.570   0.185
13168TIP3   OH239444   0.461   3.175   2.739
13168TIP3    H139445   0.398   3.247   2.736
13168TIP3    H239446   0.425   3.116   2.805
13169TIP3   OH239447   3.622   7.528   0.931
13169TIP3    H139448   3.534   7.500   0.908
13169TIP3    H239449   3.673   7.447   0.933
13170TIP3   OH239450   6.729   1.432   0.870
13170TIP3    H139451   6.782   1.387   0.805
13170TIP3    H239452   6.761   1.399   0.954
13171TIP3   OH239453   2.784   7.747   2.611
13171TIP3    H139454   2.741   7.687   2.672
13171TIP3    H239455   2.862   7.777   2.657
13172TIP3   OH239456   5.784   6.235   4.857
13172TIP3    H139457   5.731   6.302   4.899
13172TIP3    H239458   5.783   6.161   4.917
13173TIP3   OH239459   5.728   7.444   6.768
13173TIP3    H139460   5.724   7.362   6.816
13173TIP3    H239461   5.819   7.473   6.776
13174TIP3   OH239462   3.464   7.620   6.324
13174TIP3    H139463   3.465   7.529   6.295
13174TIP3    H239464   3.548   7.632   6.368
13175TIP3   OH239465   1.297   6.729   4.283
13175TIP3    H139466   1.327   6.661   4.223
13175TIP3    H239467   1.366   6.795   4.282
13176TIP3   OH239468   3.332   6.515   2.234
13176TIP3    H139469   3.238   6.497   2.240
13176TIP3    H239470   3.350   6.575   2.306
13177TIP3   OH239471   7.634   6.806   5.444
13177TIP3    H139472   7.572   6.863   5.398
13177TIP3    H239473   7.606   6.717   5.422
13178TIP3   OH239474   3.053   6.632   6.142
13178TIP3    H139475   2.998   6.567   6.098
13178TIP3    H239476   3.039   6.617   6.235
13179TIP3   OH239477   3.253   2.911   5.994
13179TIP3    H139478   3.255   2.816   5.981
13179TIP3    H239479   3.342   2.939   5.971
13180TIP3   OH239480   0.878   6.429   0.424
13180TIP3    H139481   0.784   6.429   0.441
13180TIP3    H239482   0.906   6.338   0.439
13181TIP3   OH239483   5.633   0.686   5.371
13181TIP3    H139484   5.722   0.719   5.368
13181TIP3    H239485   5.640   0.601   5.415
13182TIP3   OH239486   0.979   2.847   5.460
13182TIP3    H139487   1.038   2.915   5.493
13182TIP3    H239488   0.993   2.846   5.366
13183TIP3   OH239489   1.622   2.257   3.941
13183TIP3    H139490   1.555   2.212   3.993
13183TIP3    H239491   1.602   2.350   3.952
13184TIP3   OH239492   5.465   5.963   3.203
13184TIP3    H139493   5.412   5.933   3.130
13184TIP3    H239494   5.431   5.915   3.279
13185TIP3   OH239495   1.524   2.326   5.523
13185TIP3    H139496   1.443   2.368   5.551
13185TIP3    H239497   1.538   2.359   5.434
13186TIP3   OH239498   0.207   0.500   5.259
13186TIP3    H139499   0.248   0.503   5.345
13186TIP3    H239500   0.158   0.418   5.258
13187TIP3   OH239501   2.697   6.257   0.686
13187TIP3    H139502   2.643   6.239   0.762
13187TIP3    H239503   2.778   6.209   0.701
13188TIP3   OH239504   1.619   7.287   1.360
13188TIP3    H139505   1.619   7.319   1.269
13188TIP3    H239506   1.692   7.333   1.401
13189TIP3   OH239507   3.233   5.621   4.542
13189TIP3    H139508   3.187   5.698   4.575
13189TIP3    H239509   3.321   5.652   4.524
13190TIP3   OH239510   5.582   6.601   5.625
13190TIP3    H139511   5.548   6.584   5.537
13190TIP3    H239512   5.675   6.578   5.619
13191TIP3   OH239513   6.174   7.299   5.685
13191TIP3    H139514   6.190   7.394   5.685
13191TIP3    H239515   6.256   7.261   5.653
13192TIP3   OH239516   0.281   2.040   5.273
13192TIP3    H139517   0.325   1.983   5.210
13192TIP3    H239518   0.204   1.990   5.301
13193TIP3   OH239519   0.410   4.321   2.047
13193TIP3    H139520   0.391   4.394   1.988
13193TIP3    H239521   0.329   4.307   2.096
13194TIP3   OH239522   4.230   2.638   5.527
13194TIP3    H139523   4.182   2.656   5.608
13194TIP3    H239524   4.295   2.572   5.550
13195TIP3   OH239525   4.038   4.569   5.983
13195TIP3    H139526   4.092   4.492   5.963
13195TIP3    H239527   3.951   4.533   6.000
13196TIP3   OH239528   5.323   6.616   0.721
13196TIP3    H139529   5.272   6.536   0.731
13196TIP3    H239530   5.332   6.627   0.627
13197TIP3   OH239531   7.381   1.514   5.190
13197TIP3    H139532   7.389   1.468   5.107
13197TIP3    H239533   7.294   1.555   5.187
13198TIP3   OH239534   3.332   6.587   6.054
13198TIP3    H139535   3.320   6.503   6.099
13198TIP3    H239536   3.251   6.635   6.071
13199TIP3   OH239537   6.194   7.055   3.658
13199TIP3    H139538   6.136   7.116   3.612
13199TIP3    H239539   6.232   7.001   3.589
13200TIP3   OH239540   3.705   6.186   6.051
13200TIP3    H139541   3.781   6.179   5.993
13200TIP3    H239542   3.646   6.245   6.005
13201TIP3   OH239543   7.838   2.422   5.356
13201TIP3    H139544   7.755   2.392   5.393
13201TIP3    H239545   7.904   2.393   5.420
13202TIP3   OH239546   6.659   2.994   3.147
13202TIP3    H139547   6.672   2.933   3.220
13202TIP3    H239548   6.737   2.983   3.093
13203TIP3   OH239549   1.473   0.708   5.157
13203TIP3    H139550   1.382   0.719   5.132
13203TIP3    H239551   1.504   0.634   5.105
13204TIP3   OH239552   6.998   0.745   0.166
13204TIP3    H139553   6.965   0.773   0.251
13204TIP3    H239554   7.038   0.659   0.183
13205TIP3   OH239555   5.199   5.889   6.666
13205TIP3    H139556   5.183   5.827   6.595
13205TIP3    H239557   5.130   5.954   6.656
13206TIP3   OH239558   3.447   5.709   3.829
13206TIP3    H139559   3.513   5.662   3.778
13206TIP3    H239560   3.364   5.669   3.803
13207TIP3   OH239561   2.874   7.853   5.502
13207TIP3    H139562   2.853   7.913   5.574
13207TIP3    H239563   2.824   7.774   5.523
13208TIP3   OH239564   6.948   2.208   4.785
13208TIP3    H139565   7.029   2.156   4.787
13208TIP3    H239566   6.970   2.289   4.831
13209TIP3   OH239567   6.701   1.961   2.161
13209TIP3    H139568   6.612   1.941   2.133
13209TIP3    H239569   6.754   1.952   2.082
13210TIP3   OH239570   6.567   5.858   4.680
13210TIP3    H139571   6.490   5.915   4.673
13210TIP3    H239572   6.541   5.790   4.742
13211TIP3   OH239573   5.988   6.906   4.824
13211TIP3    H139574   5.994   6.830   4.882
13211TIP3    H239575   6.037   6.975   4.869
13212TIP3   OH239576   4.254   3.266   2.889
13212TIP3    H139577   4.182   3.300   2.837
13212TIP3    H239578   4.218   3.254   2.976
13213TIP3   OH239579   1.334   2.104   1.267
13213TIP3    H139580   1.281   2.028   1.291
13213TIP3    H239581   1.423   2.082   1.296
13214TIP3   OH239582   2.686   6.876   4.312
13214TIP3    H139583   2.719   6.909   4.228
13214TIP3    H239584   2.744   6.803   4.333
13215TIP3   OH239585   3.353   6.579   1.229
13215TIP3    H139586   3.446   6.573   1.205
13215TIP3    H239587   3.307   6.579   1.146
13216TIP3   OH239588   6.530   0.090   6.851
13216TIP3    H139589   6.565   0.153   6.787
13216TIP3    H239590   6.605   0.037   6.875
13217TIP3   OH239591   0.065   2.374   5.083
13217TIP3    H139592   0.129   2.402   5.150
13217TIP3    H239593   0.111   2.386   5.000
13218TIP3   OH239594   3.951   0.391   5.776
13218TIP3    H139595   3.901   0.460   5.733
13218TIP3    H239596   4.007   0.438   5.838
13219TIP3   OH239597   0.661   6.157   6.515
13219TIP3    H139598   0.684   6.076   6.561
13219TIP3    H239599   0.696   6.226   6.571
13220TIP3   OH239600   5.563   4.787   4.537
13220TIP3    H139601   5.559   4.868   4.587
13220TIP3    H239602   5.655   4.761   4.540
13221TIP3   OH239603   5.991   7.550   6.681
13221TIP3    H139604   6.069   7.498   6.703
13221TIP3    H239605   6.019   7.641   6.689
13222TIP3   OH239606   7.158   5.646   3.467
13222TIP3    H139607   7.234   5.592   3.451
13222TIP3    H239608   7.083   5.590   3.446
13223TIP3   OH239609   0.172   7.242   6.666
13223TIP3    H139610   0.110   7.233   6.739
13223TIP3    H239611   0.161   7.162   6.616
13224TIP3   OH239612   8.270   6.564   6.229
13224TIP3    H139613   8.241   6.655   6.230
13224TIP3    H239614   8.226   6.525   6.153
13225TIP3   OH239615   4.944   7.499   0.366
13225TIP3    H139616   4.888   7.436   0.411
13225TIP3    H239617   5.030   7.458   0.365
13226TIP3   OH239618   0.568   3.936   5.449
13226TIP3    H139619   0.481   3.975   5.442
13226TIP3    H239620   0.581   3.922   5.543
13227TIP3   OH239621   6.896   5.996   6.595
13227TIP3    H139622   6.984   5.981   6.562
13227TIP3    H239623   6.853   6.048   6.528
13228TIP3   OH239624   1.545   6.366   2.640
13228TIP3    H139625   1.562   6.284   2.685
13228TIP3    H239626   1.450   6.377   2.644
13229TIP3   OH239627   7.243   4.496   4.999
13229TIP3    H139628   7.162   4.494   5.049
13229TIP3    H239629   7.290   4.418   5.026
13230TIP3   OH239630   1.454   3.434   6.218
13230TIP3    H139631   1.472   3.340   6.209
13230TIP3    H239632   1.485   3.473   6.136
13231TIP3   OH239633   7.272   1.381   4.661
13231TIP3    H139634   7.357   1.387   4.618
13231TIP3    H239635   7.256   1.468   4.697
13232TIP3   OH239636   6.639   6.493   1.519
13232TIP3    H139637   6.691   6.429   1.471
13232TIP3    H239638   6.671   6.578   1.488
13233TIP3   OH239639   2.691   2.875   3.259
13233TIP3    H139640   2.604   2.849   3.228
13233TIP3    H239641   2.751   2.818   3.212
13234TIP3   OH239642   4.677   3.666   5.530
13234TIP3    H139643   4.701   3.758   5.547
13234TIP3    H239644   4.641   3.635   5.613
13235TIP3   OH239645   5.828   0.499   5.193
13235TIP3    H139646   5.837   0.510   5.287
13235TIP3    H239647   5.829   0.404   5.180
13236TIP3   OH239648   7.768   6.992   5.643
13236TIP3    H139649   7.734   7.053   5.577
13236TIP3    H239650   7.862   7.009   5.645
13237TIP3   OH239651   2.700   3.792   2.423
13237TIP3    H139652   2.786   3.825   2.396
13237TIP3    H239653   2.714   3.757   2.511
13238TIP3   OH239654   0.044   2.319   3.507
13238TIP3    H139655   0.052   2.241   3.451
13238TIP3    H239656   0.051   2.393   3.446
13239TIP3   OH239657   6.974   0.090   3.945
13239TIP3    H139658   7.006   0.111   3.857
13239TIP3    H239659   6.909   0.022   3.931
13240TIP3   OH239660   4.330   2.063   5.051
13240TIP3    H139661   4.352   2.055   5.144
13240TIP3    H239662   4.235   2.077   5.051
13241TIP3   OH239663   8.320   1.163   3.928
13241TIP3    H139664   8.303   1.119   3.844
13241TIP3    H239665   8.402   1.126   3.958
13242TIP3   OH239666   1.280   1.423   1.672
13242TIP3    H139667   1.237   1.361   1.731
13242TIP3    H239668   1.359   1.451   1.719
13243TIP3   OH239669   4.364   5.405   0.152
13243TIP3    H139670   4.374   5.422   0.058
13243TIP3    H239671   4.395   5.315   0.163
13244TIP3   OH239672   2.217   1.693   6.652
13244TIP3    H139673   2.311   1.708   6.658
13244TIP3    H239674   2.208   1.598   6.663
13245TIP3   OH239675   1.121   4.726   3.475
13245TIP3    H139676   1.110   4.790   3.404
13245TIP3    H239677   1.199   4.677   3.450
13246TIP3   OH239678   5.612   3.718   5.964
13246TIP3    H139679   5.599   3.663   6.040
13246TIP3    H239680   5.566   3.800   5.986
13247TIP3   OH239681   0.657   0.637   0.152
13247TIP3    H139682   0.751   0.655   0.147
13247TIP3    H239683   0.650   0.542   0.151
13248TIP3   OH239684   5.272   2.446   1.127
13248TIP3    H139685   5.220   2.390   1.070
13248TIP3    H239686   5.209   2.506   1.166
13249TIP3   OH239687   7.118   1.527   1.066
13249TIP3    H139688   7.073   1.611   1.062
13249TIP3    H239689   7.072   1.471   1.004
13250TIP3   OH239690   1.126   0.692   2.657
13250TIP3    H139691   1.211   0.650   2.643
13250TIP3    H239692   1.110   0.682   2.751
13251TIP3   OH239693   8.197   1.711   0.077
13251TIP3    H139694   8.247   1.780   0.033
13251TIP3    H239695   8.170   1.750   0.160
13252TIP3   OH239696   0.239   1.963   0.939
13252TIP3    H139697   0.255   1.891   1.000
13252TIP3    H239698   0.211   1.921   0.858
13253TIP3   OH239699   6.973   6.334   4.352
13253TIP3    H139700   7.065   6.334   4.378
13253TIP3    H239701   6.970   6.382   4.270
13254TIP3   OH239702   2.876   5.080   1.553
13254TIP3    H139703   2.956   5.032   1.576
13254TIP3    H239704   2.853   5.127   1.634
13255TIP3   OH239705   2.512   2.754   4.672
13255TIP3    H139706   2.569   2.802   4.733
13255TIP3    H239707   2.526   2.797   4.588
13256TIP3   OH239708   5.236   7.325   6.133
13256TIP3    H139709   5.175   7.260   6.168
13256TIP3    H239710   5.319   7.278   6.126
13257TIP3   OH239711   7.914   0.155   4.585
13257TIP3    H139712   7.991   0.211   4.573
13257TIP3    H239713   7.894   0.124   4.497
13258TIP3   OH239714   4.406   6.916   5.640
13258TIP3    H139715   4.395   6.949   5.729
13258TIP3    H239716   4.490   6.953   5.611
13259TIP3   OH239717   1.435   5.485   1.383
13259TIP3    H139718   1.367   5.501   1.317
13259TIP3    H239719   1.479   5.570   1.392
13260TIP3   OH239720   2.185   7.604   2.657
13260TIP3    H139721   2.190   7.529   2.597
13260TIP3    H239722   2.114   7.582   2.717
13261TIP3   OH239723   4.445   1.401   1.960
13261TIP3    H139724   4.387   1.358   2.023
13261TIP3    H239725   4.531   1.397   2.000
13262TIP3   OH239726   5.565   5.675   4.219
13262TIP3    H139727   5.592   5.701   4.307
13262TIP3    H239728   5.619   5.729   4.160
13263TIP3   OH239729   4.603   4.717   2.202
13263TIP3    H139730   4.642   4.723   2.289
13263TIP3    H239731   4.607   4.624   2.180
13264TIP3   OH239732   8.073   7.842   0.482
13264TIP3    H139733   8.029   7.762   0.509
13264TIP3    H239734   8.166   7.825   0.496
13265TIP3   OH239735   3.376   7.396   0.891
13265TIP3    H139736   3.302   7.450   0.864
13265TIP3    H239737   3.347   7.306   0.880
13266TIP3   OH239738   4.433   6.328   5.875
13266TIP3    H139739   4.445   6.377   5.794
13266TIP3    H239740   4.391   6.246   5.847
13267TIP3   OH239741   4.078   4.198   5.403
13267TIP3    H139742   3.995   4.171   5.364
13267TIP3    H239743   4.143   4.141   5.362
13268TIP3   OH239744   1.777   5.545   0.534
13268TIP3    H139745   1.831   5.528   0.611
13268TIP3    H239746   1.690   5.561   0.568
13269TIP3   OH239747   5.557   0.581   4.913
13269TIP3    H139748   5.631   0.607   4.968
13269TIP3    H239749   5.500   0.658   4.912
13270TIP3   OH239750   5.995   0.688   3.491
13270TIP3    H139751   6.028   0.691   3.581
13270TIP3    H239752   6.058   0.634   3.444
13271TIP3   OH239753   7.338   6.035   3.955
13271TIP3    H139754   7.250   6.068   3.936
13271TIP3    H239755   7.327   5.940   3.961
13272TIP3   OH239756   6.032   6.226   0.625
13272TIP3    H139757   6.100   6.168   0.659
13272TIP3    H239758   5.950   6.179   0.640
13273TIP3   OH239759   4.920   4.732   1.026
13273TIP3    H139760   4.857   4.670   0.989
13273TIP3    H239761   4.957   4.777   0.950
13274TIP3   OH239762   4.209   4.867   4.639
13274TIP3    H139763   4.183   4.821   4.559
13274TIP3    H239764   4.280   4.925   4.610
13275TIP3   OH239765   7.796   0.911   5.097
13275TIP3    H139766   7.717   0.937   5.145
13275TIP3    H239767   7.768   0.835   5.046
13276TIP3   OH239768   4.675   5.350   3.531
13276TIP3    H139769   4.592   5.372   3.572
13276TIP3    H239770   4.715   5.434   3.509
13277TIP3   OH239771   0.520   7.027   0.632
13277TIP3    H139772   0.562   6.979   0.703
13277TIP3    H239773   0.446   7.071   0.673
13278TIP3   OH239774   3.491   6.930   2.083
13278TIP3    H139775   3.431   6.856   2.071
13278TIP3    H239776   3.440   6.995   2.132
13279TIP3   OH239777   2.908   1.783   5.517
13279TIP3    H139778   2.835   1.843   5.534
13279TIP3    H239779   2.979   1.815   5.572
13280TIP3   OH239780   3.158   5.691   3.053
13280TIP3    H139781   3.226   5.625   3.064
13280TIP3    H239782   3.185   5.762   3.111
13281TIP3   OH239783   2.869   5.274   3.690
13281TIP3    H139784   2.827   5.332   3.753
13281TIP3    H239785   2.950   5.247   3.733
13282TIP3   OH239786   7.395   4.277   3.018
13282TIP3    H139787   7.484   4.285   3.052
13282TIP3    H239788   7.398   4.200   2.962
13283TIP3   OH239789   2.072   4.518   1.137
13283TIP3    H139790   2.112   4.591   1.089
13283TIP3    H239791   2.127   4.508   1.214
13284TIP3   OH239792   6.304   6.195   3.811
13284TIP3    H139793   6.266   6.148   3.737
13284TIP3    H239794   6.362   6.132   3.853
13285TIP3   OH239795   0.591   2.345   2.023
13285TIP3    H139796   0.531   2.349   1.948
13285TIP3    H239797   0.589   2.432   2.061
13286TIP3   OH239798   4.166   4.342   5.876
13286TIP3    H139799   4.164   4.286   5.799
13286TIP3    H239800   4.228   4.412   5.854
13287TIP3   OH239801   1.089   3.031   2.579
13287TIP3    H139802   1.058   2.952   2.535
13287TIP3    H239803   1.113   3.001   2.667
13288TIP3   OH239804   7.907   3.737   3.162
13288TIP3    H139805   7.998   3.740   3.191
13288TIP3    H239806   7.866   3.671   3.218
13289TIP3   OH239807   4.210   3.938   3.607
13289TIP3    H139808   4.209   4.033   3.605
13289TIP3    H239809   4.274   3.916   3.674
13290TIP3   OH239810   1.329   0.775   1.552
13290TIP3    H139811   1.354   0.696   1.504
13290TIP3    H239812   1.298   0.835   1.484
13291TIP3   OH239813   3.504   0.707   2.455
13291TIP3    H139814   3.592   0.696   2.490
13291TIP3    H239815   3.453   0.744   2.528
13292TIP3   OH239816   4.367   5.053   3.886
13292TIP3    H139817   4.358   5.140   3.849
13292TIP3    H239818   4.434   5.063   3.955
13293TIP3   OH239819   3.753   4.500   6.565
13293TIP3    H139820   3.657   4.494   6.563
13293TIP3    H239821   3.781   4.464   6.481
13294TIP3   OH239822   5.741   2.600   6.617
13294TIP3    H139823   5.760   2.688   6.586
13294TIP3    H239824   5.680   2.611   6.689
13295TIP3   OH239825   4.642   2.378   0.587
13295TIP3    H139826   4.652   2.339   0.674
13295TIP3    H239827   4.564   2.433   0.594
13296TIP3   OH239828   3.803   4.435   6.309
13296TIP3    H139829   3.807   4.437   6.213
13296TIP3    H239830   3.831   4.347   6.332
13297TIP3   OH239831   2.224   4.474   1.352
13297TIP3    H139832   2.302   4.421   1.367
13297TIP3    H239833   2.162   4.447   1.420
13298TIP3   OH239834   6.018   3.723   3.356
13298TIP3    H139835   5.967   3.747   3.433
13298TIP3    H239836   6.097   3.683   3.391
13299TIP3   OH239837   5.956   3.634   6.354
13299TIP3    H139838   6.048   3.656   6.339
13299TIP3    H239839   5.914   3.718   6.372
13300TIP3   OH239840   0.080   4.818   0.729
13300TIP3    H139841   0.048   4.874   0.659
13300TIP3    H239842   0.005   4.810   0.790
13301TIP3   OH239843   2.388   3.546   0.756
13301TIP3    H139844   2.380   3.640   0.744
13301TIP3    H239845   2.363   3.509   0.672
13302TIP3   OH239846   0.150   0.605   2.555
13302TIP3    H139847   0.177   0.643   2.472
13302TIP3    H239848   0.228   0.561   2.589
13303TIP3   OH239849   7.259   0.632   3.533
13303TIP3    H139850   7.236   0.673   3.617
13303TIP3    H239851   7.354   0.642   3.527
13304TIP3   OH239852   1.084   1.049   4.948
13304TIP3    H139853   1.053   1.128   4.993
13304TIP3    H239854   1.174   1.038   4.979
13305TIP3   OH239855   5.322   3.935   5.925
13305TIP3    H139856   5.294   3.845   5.909
13305TIP3    H239857   5.356   3.964   5.841
13306TIP3   OH239858   3.272   1.841   4.683
13306TIP3    H139859   3.264   1.752   4.717
13306TIP3    H239860   3.183   1.864   4.656
13307TIP3   OH239861   1.573   1.297   0.872
13307TIP3    H139862   1.484   1.276   0.900
13307TIP3    H239863   1.562   1.364   0.804
13308TIP3   OH239864   5.678   7.797   6.368
13308TIP3    H139865   5.599   7.775   6.318
13308TIP3    H239866   5.717   7.712   6.390
13309TIP3   OH239867   7.676   3.509   3.231
13309TIP3    H139868   7.584   3.483   3.234
13309TIP3    H239869   7.723   3.427   3.216
13310TIP3   OH239870   7.954   2.803   4.606
13310TIP3    H139871   8.015   2.859   4.654
13310TIP3    H239872   7.996   2.717   4.605
13311TIP3   OH239873   3.437   6.002   1.553
13311TIP3    H139874   3.358   6.049   1.579
13311TIP3    H239875   3.414   5.910   1.559
13312TIP3   OH239876   0.493   3.797   4.713
13312TIP3    H139877   0.510   3.889   4.729
13312TIP3    H239878   0.480   3.790   4.618
13313TIP3   OH239879   6.204   0.554   2.453
13313TIP3    H139880   6.123   0.604   2.439
13313TIP3    H239881   6.272   0.621   2.455
13314TIP3   OH239882   2.193   6.781   3.885
13314TIP3    H139883   2.267   6.803   3.941
13314TIP3    H239884   2.222   6.804   3.797
13315TIP3   OH239885   5.611   5.352   4.628
13315TIP3    H139886   5.554   5.362   4.703
13315TIP3    H239887   5.594   5.430   4.575
13316TIP3   OH239888   2.529   0.111   5.670
13316TIP3    H139889   2.489   0.080   5.751
13316TIP3    H239890   2.622   0.088   5.680
13317TIP3   OH239891   2.688   5.698   0.092
13317TIP3    H139892   2.780   5.721   0.078
13317TIP3    H239893   2.640   5.773   0.059
13318TIP3   OH239894   7.676   5.479   6.218
13318TIP3    H139895   7.650   5.479   6.126
13318TIP3    H239896   7.603   5.522   6.264
13319TIP3   OH239897   4.169   1.048   6.680
13319TIP3    H139898   4.199   1.093   6.601
13319TIP3    H239899   4.080   1.082   6.693
13320TIP3   OH239900   3.765   4.313   3.269
13320TIP3    H139901   3.724   4.336   3.352
13320TIP3    H239902   3.698   4.262   3.223
13321TIP3   OH239903   7.757   7.049   4.544
13321TIP3    H139904   7.787   7.002   4.621
13321TIP3    H239905   7.722   6.981   4.486
13322TIP3   OH239906   1.599   3.136   1.153
13322TIP3    H139907   1.598   3.082   1.075
13322TIP3    H239908   1.586   3.225   1.121
13323TIP3   OH239909   8.365   1.852   1.794
13323TIP3    H139910   8.346   1.782   1.857
13323TIP3    H239911   8.354   1.811   1.709
13324TIP3   OH239912   5.102   1.902   2.495
13324TIP3    H139913   5.013   1.938   2.502
13324TIP3    H239914   5.095   1.814   2.531
13325TIP3   OH239915   3.221   3.048   0.916
13325TIP3    H139916   3.303   3.054   0.964
13325TIP3    H239917   3.241   2.990   0.842
13326TIP3   OH239918   3.067   6.727   4.595
13326TIP3    H139919   2.994   6.665   4.600
13326TIP3    H239920   3.129   6.687   4.534
13327TIP3   OH239921   3.631   6.719   6.391
13327TIP3    H139922   3.684   6.741   6.468
13327TIP3    H239923   3.666   6.775   6.321
13328TIP3   OH239924   6.991   7.826   6.794
13328TIP3    H139925   6.895   7.819   6.794
13328TIP3    H239926   7.020   7.742   6.830
13329TIP3   OH239927   3.331   0.017   5.610
13329TIP3    H139928   3.415  -0.004   5.568
13329TIP3    H239929   3.346   0.101   5.653
13330TIP3   OH239930   2.072   5.998   4.578
13330TIP3    H139931   2.130   5.952   4.517
13330TIP3    H239932   2.125   6.070   4.612
13331TIP3   OH239933   7.670   5.536   2.995
13331TIP3    H139934   7.747   5.496   3.036
13331TIP3    H239935   7.617   5.566   3.069
13332TIP3   OH239936   8.448   4.753   0.015
13332TIP3    H139937   8.379   4.699   0.053
13332TIP3    H239938   8.421   4.843   0.032
13333TIP3   OH239939   4.749   0.503   4.159
13333TIP3    H139940   4.819   0.486   4.095
13333TIP3    H239941   4.733   0.597   4.151
13334TIP3   OH239942   4.716   6.317   0.418
13334TIP3    H139943   4.683   6.274   0.340
13334TIP3    H239944   4.663   6.397   0.426
13335TIP3   OH239945   0.287   5.170   1.236
13335TIP3    H139946   0.352   5.175   1.166
13335TIP3    H239947   0.246   5.084   1.224
13336TIP3   OH239948   3.802   2.890   0.218
13336TIP3    H139949   3.759   2.953   0.160
13336TIP3    H239950   3.794   2.929   0.305
13337TIP3   OH239951   4.903   1.866   0.666
13337TIP3    H139952   4.840   1.938   0.671
13337TIP3    H239953   4.961   1.890   0.594
13338TIP3   OH239954   8.268   4.222   0.884
13338TIP3    H139955   8.360   4.243   0.902
13338TIP3    H239956   8.269   4.130   0.859
13339TIP3   OH239957   6.418   3.721   5.821
13339TIP3    H139958   6.336   3.747   5.779
13339TIP3    H239959   6.432   3.631   5.792
13340TIP3   OH239960   1.833   5.285   1.678
13340TIP3    H139961   1.905   5.257   1.622
13340TIP3    H239962   1.754   5.261   1.629
13341TIP3   OH239963   7.202   0.540   4.256
13341TIP3    H139964   7.229   0.468   4.200
13341TIP3    H239965   7.125   0.506   4.303
13342TIP3   OH239966   6.907   2.820   3.905
13342TIP3    H139967   6.946   2.755   3.846
13342TIP3    H239968   6.866   2.768   3.974
13343TIP3   OH239969   5.137   7.238   1.094
13343TIP3    H139970   5.054   7.190   1.095
13343TIP3    H239971   5.184   7.208   1.171
13344TIP3   OH239972   3.757   2.933   4.028
13344TIP3    H139973   3.753   2.947   3.933
13344TIP3    H239974   3.669   2.952   4.059
13345TIP3   OH239975   0.663   4.827   5.615
13345TIP3    H139976   0.691   4.898   5.557
13345TIP3    H239977   0.739   4.809   5.670
13346TIP3   OH239978   5.731   3.781   3.301
13346TIP3    H139979   5.805   3.720   3.296
13346TIP3    H239980   5.766   3.859   3.343
13347TIP3   OH239981   1.630   0.098   5.080
13347TIP3    H139982   1.548   0.083   5.033
13347TIP3    H239983   1.686   0.025   5.054
13348TIP3   OH239984   0.177   7.254   2.817
13348TIP3    H139985   0.175   7.159   2.819
13348TIP3    H239986   0.144   7.281   2.902
13349TIP3   OH239987   0.102   7.515   1.988
13349TIP3    H139988   0.122   7.504   2.081
13349TIP3    H239989   0.025   7.460   1.973
13350TIP3   OH239990   6.175   2.377   0.904
13350TIP3    H139991   6.235   2.316   0.863
13350TIP3    H239992   6.101   2.323   0.932
13351TIP3   OH239993   1.844   4.797   6.830
13351TIP3    H139994   1.928   4.758   6.806
13351TIP3    H239995   1.866   4.882   6.867
13352TIP3   OH239996   8.258   0.827   6.146
13352TIP3    H139997   8.337   0.819   6.199
13352TIP3    H239998   8.188   0.839   6.209
13353TIP3   OH239999   7.575   0.299   2.398
13353TIP3    H140000   7.500   0.304   2.337
13353TIP3    H240001   7.614   0.386   2.394
13354TIP3   OH240002   2.871   5.694   4.978
13354TIP3    H140003   2.849   5.643   5.056
13354TIP3    H240004   2.827   5.778   4.992
13355TIP3   OH240005   2.889   5.279   0.514
13355TIP3    H140006   2.890   5.205   0.574
13355TIP3    H240007   2.947   5.344   0.554
13356TIP3   OH240008   6.530   5.418   0.543
13356TIP3    H140009   6.466   5.381   0.482
13356TIP3    H240010   6.609   5.432   0.491
13357TIP3   OH240011   0.552   0.235   5.827
13357TIP3    H140012   0.564   0.154   5.876
13357TIP3    H240013   0.639   0.274   5.824
13358TIP3   OH240014   4.234   5.623   5.958
13358TIP3    H140015   4.143   5.595   5.964
13358TIP3    H240016   4.236   5.709   5.999
13359TIP3   OH240017   2.996   3.689   0.898
13359TIP3    H140018   2.920   3.747   0.896
13359TIP3    H240019   3.035   3.697   0.811
13360TIP3   OH240020   0.912   5.380   4.162
13360TIP3    H140021   0.828   5.338   4.183
13360TIP3    H240022   0.947   5.408   4.246
13361TIP3   OH240023   5.281   3.368   6.809
13361TIP3    H140024   5.332   3.415   6.743
13361TIP3    H240025   5.318   3.280   6.811
13362TIP3   OH240026   5.984   3.662   6.668
13362TIP3    H140027   6.018   3.683   6.755
13362TIP3    H240028   6.039   3.589   6.638
13363TIP3   OH240029   1.722   1.333   4.863
13363TIP3    H140030   1.723   1.285   4.945
13363TIP3    H240031   1.791   1.294   4.810
13364TIP3   OH240032   7.103   1.187   1.806
13364TIP3    H140033   7.039   1.126   1.768
13364TIP3    H240034   7.126   1.245   1.734
13365TIP3   OH240035   0.808   4.253   2.572
13365TIP3    H140036   0.847   4.249   2.660
13365TIP3    H240037   0.786   4.346   2.560
13366TIP3   OH240038   5.203   7.647   0.827
13366TIP3    H140039   5.274   7.706   0.804
13366TIP3    H240040   5.128   7.680   0.777
13367TIP3   OH240041   1.136   4.289   4.264
13367TIP3    H140042   1.067   4.281   4.197
13367TIP3    H240043   1.110   4.365   4.316
13368TIP3   OH240044   1.241   3.426   5.224
13368TIP3    H140045   1.200   3.433   5.138
13368TIP3    H240046   1.260   3.332   5.234
13369TIP3   OH240047   7.494   6.841   0.995
13369TIP3    H140048   7.415   6.824   0.944
13369TIP3    H240049   7.463   6.889   1.072
13370TIP3   OH240050   6.338   1.512   5.215
13370TIP3    H140051   6.281   1.589   5.208
13370TIP3    H240052   6.336   1.473   5.127
13371TIP3   OH240053   0.143   1.097   6.641
13371TIP3    H140054   0.131   1.077   6.548
13371TIP3    H240055   0.068   1.055   6.684
13372TIP3   OH240056   2.266   1.947   0.652
13372TIP3    H140057   2.304   2.016   0.598
13372TIP3    H240058   2.215   1.993   0.719
13373TIP3   OH240059   6.333   4.077   2.922
13373TIP3    H140060   6.420   4.067   2.882
13373TIP3    H240061   6.274   4.031   2.864
13374TIP3   OH240062   2.581   1.609   6.131
13374TIP3    H140063   2.671   1.584   6.152
13374TIP3    H240064   2.578   1.613   6.035
13375TIP3   OH240065   3.977   2.222   3.787
13375TIP3    H140066   3.892   2.225   3.830
13375TIP3    H240067   4.006   2.313   3.783
13376TIP3   OH240068   1.589   0.241   6.404
13376TIP3    H140069   1.502   0.217   6.437
13376TIP3    H240070   1.649   0.178   6.445
13377TIP3   OH240071   1.389   3.578   4.654
13377TIP3    H140072   1.371   3.663   4.695
13377TIP3    H240073   1.302   3.540   4.640
13378TIP3   OH240074   7.503   7.447   1.911
13378TIP3    H140075   7.495   7.490   1.825
13378TIP3    H240076   7.571   7.498   1.956
13379TIP3   OH240077   1.582   1.240   3.001
13379TIP3    H140078   1.575   1.235   2.906
13379TIP3    H240079   1.498   1.209   3.033
13380TIP3   OH240080   5.572   7.777   5.188
13380TIP3    H140081   5.545   7.704   5.132
13380TIP3    H240082   5.502   7.783   5.253
13381TIP3   OH240083   1.612   4.385   1.933
13381TIP3    H140084   1.583   4.419   1.848
13381TIP3    H240085   1.544   4.323   1.959
13382TIP3   OH240086   6.193   1.953   2.680
13382TIP3    H140087   6.268   1.924   2.628
13382TIP3    H240088   6.140   1.874   2.691
13383TIP3   OH240089   7.645   7.411   0.377
13383TIP3    H140090   7.669   7.499   0.408
13383TIP3    H240091   7.597   7.426   0.296
13384TIP3   OH240092   8.202   2.462   0.537
13384TIP3    H140093   8.263   2.495   0.471
13384TIP3    H240094   8.221   2.514   0.615
13385TIP3   OH240095   7.495   1.532   1.394
13385TIP3    H140096   7.590   1.541   1.406
13385TIP3    H240097   7.479   1.569   1.307
13386TIP3   OH240098   6.425   3.497   2.384
13386TIP3    H140099   6.458   3.425   2.437
13386TIP3    H240100   6.358   3.457   2.328
13387TIP3   OH240101   6.302   1.948   1.408
13387TIP3    H140102   6.329   2.009   1.339
13387TIP3    H240103   6.268   1.872   1.361
13388TIP3   OH240104   0.128   4.157   2.470
13388TIP3    H140105   0.144   4.081   2.414
13388TIP3    H240106   0.095   4.120   2.552
13389TIP3   OH240107   5.351   0.586   1.053
13389TIP3    H140108   5.269   0.593   1.004
13389TIP3    H240109   5.346   0.501   1.096
13390TIP3   OH240110   1.146   2.580   5.877
13390TIP3    H140111   1.104   2.564   5.962
13390TIP3    H240112   1.076   2.614   5.822
13391TIP3   OH240113   4.161   1.784   5.877
13391TIP3    H140114   4.196   1.862   5.919
13391TIP3    H240115   4.220   1.713   5.905
13392TIP3   OH240116   6.444   7.925  -0.024
13392TIP3    H140117   6.422   7.905   0.067
13392TIP3    H240118   6.488   7.847  -0.057
13393TIP3   OH240119   0.628   6.221   4.998
13393TIP3    H140120   0.654   6.140   5.042
13393TIP3    H240121   0.630   6.288   5.067
13394TIP3   OH240122   6.948   0.582   0.603
13394TIP3    H140123   6.952   0.671   0.568
13394TIP3    H240124   7.037   0.550   0.597
13395TIP3   OH240125   1.583   4.623   4.996
13395TIP3    H140126   1.560   4.716   5.004
13395TIP3    H240127   1.500   4.580   4.976
13396TIP3   OH240128   0.355   6.932   4.255
13396TIP3    H140129   0.425   6.866   4.256
13396TIP3    H240130   0.363   6.977   4.339
13397TIP3   OH240131   0.281   4.099   3.100
13397TIP3    H140132   0.239   4.078   3.017
13397TIP3    H240133   0.352   4.159   3.076
13398TIP3   OH240134   0.809   3.706   0.907
13398TIP3    H140135   0.843   3.726   0.995
13398TIP3    H240136   0.725   3.751   0.904
13399TIP3   OH240137   6.263   3.578   1.547
13399TIP3    H140138   6.185   3.563   1.601
13399TIP3    H240139   6.281   3.671   1.558
13400TIP3   OH240140   2.381   0.339   3.830
13400TIP3    H140141   2.417   0.271   3.887
13400TIP3    H240142   2.288   0.339   3.849
13401TIP3   OH240143   2.556   7.599   3.794
13401TIP3    H140144   2.503   7.678   3.804
13401TIP3    H240145   2.516   7.536   3.853
13402TIP3   OH240146   1.455   0.493   5.643
13402TIP3    H140147   1.462   0.412   5.694
13402TIP3    H240148   1.461   0.563   5.708
13403TIP3   OH240149   3.902   5.550   5.471
13403TIP3    H140150   3.994   5.533   5.449
13403TIP3    H240151   3.865   5.463   5.490
13404TIP3   OH240152   3.412   3.833   2.089
13404TIP3    H140153   3.329   3.792   2.113
13404TIP3    H240154   3.466   3.826   2.168
13405TIP3   OH240155   5.669   2.591   1.946
13405TIP3    H140156   5.736   2.563   1.883
13405TIP3    H240157   5.589   2.599   1.894
13406TIP3   OH240158   3.200   3.974   5.879
13406TIP3    H140159   3.231   4.001   5.965
13406TIP3    H240160   3.131   4.037   5.858
13407TIP3   OH240161   0.919   0.779   6.398
13407TIP3    H140162   0.864   0.796   6.321
13407TIP3    H240163   0.875   0.707   6.443
13408TIP3   OH240164   0.445   6.890   4.685
13408TIP3    H140165   0.386   6.947   4.734
13408TIP3    H240166   0.521   6.878   4.742
13409TIP3   OH240167   2.504   6.669   0.627
13409TIP3    H140168   2.534   6.628   0.708
13409TIP3    H240169   2.434   6.612   0.595
13410TIP3   OH240170   0.375   5.683   3.934
13410TIP3    H140171   0.398   5.723   3.850
13410TIP3    H240172   0.288   5.717   3.954
13411TIP3   OH240173   1.335   0.648   5.922
13411TIP3    H140174   1.397   0.603   5.979
13411TIP3    H240175   1.374   0.734   5.906
13412TIP3   OH240176   7.689   0.699   1.290
13412TIP3    H140177   7.600   0.716   1.257
13412TIP3    H240178   7.732   0.652   1.219
13413TIP3   OH240179   2.785   3.130   6.585
13413TIP3    H140180   2.827   3.213   6.606
13413TIP3    H240181   2.694   3.140   6.614
13414TIP3   OH240182   1.634   6.511   2.441
13414TIP3    H140183   1.621   6.445   2.372
13414TIP3    H240184   1.610   6.466   2.522
13415TIP3   OH240185   7.308   1.375   3.887
13415TIP3    H140186   7.230   1.405   3.840
13415TIP3    H240187   7.366   1.343   3.818
13416TIP3   OH240188   4.894   1.104   1.328
13416TIP3    H140189   4.902   1.160   1.405
13416TIP3    H240190   4.974   1.052   1.327
13417TIP3   OH240191   6.021   2.518   3.391
13417TIP3    H140192   5.957   2.453   3.362
13417TIP3    H240193   6.088   2.519   3.323
13418TIP3   OH240194   6.447   5.800   2.932
13418TIP3    H140195   6.396   5.878   2.911
13418TIP3    H240196   6.536   5.832   2.945
13419TIP3   OH240197   2.654   7.526   1.069
13419TIP3    H140198   2.743   7.493   1.056
13419TIP3    H240199   2.657   7.573   1.152
13420TIP3   OH240200   5.015   2.804   0.716
13420TIP3    H140201   4.980   2.731   0.665
13420TIP3    H240202   5.099   2.824   0.674
13421TIP3   OH240203   5.174   1.659   3.123
13421TIP3    H140204   5.142   1.569   3.111
13421TIP3    H240205   5.120   1.694   3.193
13422TIP3   OH240206   5.313   1.410   5.307
13422TIP3    H140207   5.349   1.322   5.309
13422TIP3    H240208   5.385   1.466   5.334
13423TIP3   OH240209   5.001   3.452   6.799
13423TIP3    H140210   5.087   3.410   6.791
13423TIP3    H240211   5.019   3.545   6.784
13424TIP3   OH240212   3.504   4.297   5.384
13424TIP3    H140213   3.573   4.323   5.322
13424TIP3    H240214   3.550   4.282   5.467
13425TIP3   OH240215   3.974   2.964   3.641
13425TIP3    H140216   3.949   2.874   3.625
13425TIP3    H240217   3.895   3.006   3.675
13426TIP3   OH240218   8.065   5.202   5.564
13426TIP3    H140219   8.125   5.161   5.626
13426TIP3    H240220   8.071   5.296   5.583
13427TIP3   OH240221   4.610   1.135   5.192
13427TIP3    H140222   4.668   1.211   5.192
13427TIP3    H240223   4.655   1.069   5.140
13428TIP3   OH240224   7.077   5.637   1.920
13428TIP3    H140225   7.024   5.560   1.942
13428TIP3    H240226   7.149   5.602   1.867
13429TIP3   OH240227   6.012   3.563   0.313
13429TIP3    H140228   5.997   3.592   0.223
13429TIP3    H240229   6.106   3.574   0.326
13430TIP3   OH240230   4.726   5.038   0.309
13430TIP3    H140231   4.809   4.990   0.316
13430TIP3    H240232   4.749   5.119   0.263
13431TIP3   OH240233   5.473   2.471   1.621
13431TIP3    H140234   5.464   2.514   1.707
13431TIP3    H240235   5.450   2.540   1.558
13432TIP3   OH240236   5.795   0.344   2.330
13432TIP3    H140237   5.718   0.289   2.314
13432TIP3    H240238   5.763   0.414   2.387
13433TIP3   OH240239   7.739   4.283   2.963
13433TIP3    H140240   7.787   4.205   2.988
13433TIP3    H240241   7.773   4.306   2.876
13434TIP3   OH240242   0.310   3.056   0.522
13434TIP3    H140243   0.365   2.977   0.514
13434TIP3    H240244   0.332   3.092   0.607
13435TIP3   OH240245   3.456   1.956   0.624
13435TIP3    H140246   3.419   1.901   0.555
13435TIP3    H240247   3.538   1.912   0.647
13436TIP3   OH240248   5.323   3.138   2.734
13436TIP3    H140249   5.267   3.184   2.796
13436TIP3    H240250   5.374   3.206   2.691
13437TIP3   OH240251   4.711   3.540   3.512
13437TIP3    H140252   4.658   3.569   3.438
13437TIP3    H240253   4.800   3.534   3.476
13438TIP3   OH240254   1.771   4.122   2.231
13438TIP3    H140255   1.744   4.057   2.167
13438TIP3    H240256   1.783   4.073   2.313
13439TIP3   OH240257   6.509   5.658   0.659
13439TIP3    H140258   6.455   5.703   0.593
13439TIP3    H240259   6.529   5.574   0.619
13440TIP3   OH240260   0.978   2.570   2.597
13440TIP3    H140261   0.904   2.569   2.536
13440TIP3    H240262   1.051   2.533   2.548
13441TIP3   OH240263   7.864   7.917   2.941
13441TIP3    H140264   7.889   7.995   2.991
13441TIP3    H240265   7.820   7.861   3.005
13442TIP3   OH240266   2.965   5.595   4.380
13442TIP3    H140267   3.017   5.595   4.461
13442TIP3    H240268   2.875   5.581   4.410
13443TIP3   OH240269   6.082   7.292   2.186
13443TIP3    H140270   6.092   7.384   2.162
13443TIP3    H240271   6.038   7.294   2.271
13444TIP3   OH240272   0.566   5.316   2.163
13444TIP3    H140273   0.660   5.328   2.149
13444TIP3    H240274   0.556   5.312   2.258
13445TIP3   OH240275   0.899   0.905   1.707
13445TIP3    H140276   0.984   0.914   1.663
13445TIP3    H240277   0.917   0.925   1.798
13446TIP3   OH240278   1.144   0.392   5.656
13446TIP3    H140279   1.135   0.480   5.692
13446TIP3    H240280   1.200   0.403   5.579
13447TIP3   OH240281   3.521   5.361   5.203
13447TIP3    H140282   3.446   5.361   5.262
13447TIP3    H240283   3.516   5.444   5.156
13448TIP3   OH240284   4.597   1.022   5.837
13448TIP3    H140285   4.606   0.928   5.820
13448TIP3    H240286   4.648   1.063   5.768
13449TIP3   OH240287   1.897   4.773   1.081
13449TIP3    H140288   1.853   4.711   1.023
13449TIP3    H240289   1.990   4.749   1.074
13450TIP3   OH240290   2.524   4.978   4.887
13450TIP3    H140291   2.433   4.981   4.919
13450TIP3    H240292   2.549   4.886   4.893
13451TIP3   OH240293   3.606   0.660   4.963
13451TIP3    H140294   3.514   0.683   4.951
13451TIP3    H240295   3.631   0.705   5.044
13452TIP3   OH240296   4.384   3.137   5.172
13452TIP3    H140297   4.341   3.200   5.115
13452TIP3    H240298   4.364   3.168   5.261
13453TIP3   OH240299   5.591   5.097   6.677
13453TIP3    H140300   5.586   5.032   6.607
13453TIP3    H240301   5.575   5.180   6.633
13454TIP3   OH240302   0.006   6.236   2.069
13454TIP3    H140303  -0.057   6.166   2.051
13454TIP3    H240304   0.046   6.212   2.153
13455TIP3   OH240305   3.147   1.028   2.118
13455TIP3    H140306   3.156   1.054   2.027
13455TIP3    H240307   3.229   0.982   2.138
13456TIP3   OH240308   3.195   7.014   6.000
13456TIP3    H140309   3.262   7.012   6.068
13456TIP3    H240310   3.240   6.985   5.921
13457TIP3   OH240311   5.026   1.421   3.140
13457TIP3    H140312   4.931   1.426   3.127
13457TIP3    H240313   5.057   1.363   3.070
13458TIP3   OH240314   0.402   4.312   1.051
13458TIP3    H140315   0.455   4.266   1.116
13458TIP3    H240316   0.365   4.242   0.996
13459TIP3   OH240317   4.827   0.492   5.556
13459TIP3    H140318   4.854   0.405   5.586
13459TIP3    H240319   4.803   0.479   5.464
13460TIP3   OH240320   1.370   0.403   1.100
13460TIP3    H140321   1.340   0.340   1.166
13460TIP3    H240322   1.341   0.365   1.017
13461TIP3   OH240323   0.745   3.469   5.846
13461TIP3    H140324   0.762   3.514   5.763
13461TIP3    H240325   0.820   3.491   5.901
13462TIP3   OH240326   4.538   2.826   0.937
13462TIP3    H140327   4.512   2.903   0.888
13462TIP3    H240328   4.633   2.834   0.946
13463TIP3   OH240329   8.348   2.788   0.239
13463TIP3    H140330   8.373   2.867   0.286
13463TIP3    H240331   8.352   2.719   0.305
13464TIP3   OH240332   1.603   1.741   4.678
13464TIP3    H140333   1.518   1.700   4.666
13464TIP3    H240334   1.647   1.685   4.742
13465TIP3   OH240335   1.315   4.483   0.727
13465TIP3    H140336   1.238   4.535   0.752
13465TIP3    H240337   1.288   4.392   0.744
13466TIP3   OH240338   4.599   6.610   2.948
13466TIP3    H140339   4.631   6.682   2.895
13466TIP3    H240340   4.541   6.651   3.013
13467TIP3   OH240341   2.814   2.227   4.576
13467TIP3    H140342   2.890   2.234   4.634
13467TIP3    H240343   2.844   2.263   4.492
13468TIP3   OH240344   2.045   2.706   3.670
13468TIP3    H140345   2.114   2.689   3.606
13468TIP3    H240346   2.089   2.706   3.755
13469TIP3   OH240347   7.313   5.222   6.750
13469TIP3    H140348   7.227   5.182   6.736
13469TIP3    H240349   7.350   5.232   6.662
13470TIP3   OH240350   7.234   5.963   4.336
13470TIP3    H140351   7.299   6.025   4.303
13470TIP3    H240352   7.210   5.997   4.422
13471TIP3   OH240353   0.681   0.602   0.846
13471TIP3    H140354   0.737   0.552   0.786
13471TIP3    H240355   0.602   0.621   0.795
13472TIP3   OH240356   7.269   7.059   2.401
13472TIP3    H140357   7.217   7.121   2.351
13472TIP3    H240358   7.316   7.008   2.335
13473TIP3   OH240359   3.185   1.729   4.218
13473TIP3    H140360   3.174   1.762   4.129
13473TIP3    H240361   3.279   1.737   4.235
13474TIP3   OH240362   3.786   0.934   2.420
13474TIP3    H140363   3.697   0.966   2.435
13474TIP3    H240364   3.803   0.954   2.328
13475TIP3   OH240365   2.361   2.397   1.742
13475TIP3    H140366   2.312   2.340   1.683
13475TIP3    H240367   2.295   2.433   1.802
13476TIP3   OH240368   6.544   4.501   1.927
13476TIP3    H140369   6.456   4.478   1.957
13476TIP3    H240370   6.549   4.463   1.839
13477TIP3   OH240371   4.283   0.093   5.637
13477TIP3    H140372   4.277   0.187   5.624
13477TIP3    H240373   4.273   0.055   5.550
13478TIP3   OH240374   7.463   4.198   0.673
13478TIP3    H140375   7.464   4.205   0.769
13478TIP3    H240376   7.555   4.192   0.648
13479TIP3   OH240377   8.230   5.019   1.797
13479TIP3    H140378   8.191   5.095   1.753
13479TIP3    H240379   8.296   5.057   1.854
13480TIP3   OH240380   0.201   1.293   0.668
13480TIP3    H140381   0.185   1.311   0.760
13480TIP3    H240382   0.189   1.377   0.624
13481TIP3   OH240383   4.564   3.197   3.157
13481TIP3    H140384   4.605   3.162   3.078
13481TIP3    H240385   4.633   3.247   3.200
13482TIP3   OH240386   2.937   4.629   5.598
13482TIP3    H140387   2.877   4.696   5.632
13482TIP3    H240388   2.884   4.551   5.590
13483TIP3   OH240389   5.722   2.536   1.157
13483TIP3    H140390   5.723   2.632   1.162
13483TIP3    H240391   5.639   2.515   1.114
13484TIP3   OH240392   0.319   0.849   3.545
13484TIP3    H140393   0.391   0.882   3.491
13484TIP3    H240394   0.280   0.928   3.584
13485TIP3   OH240395   0.861   3.197   1.992
13485TIP3    H140396   0.907   3.248   2.059
13485TIP3    H240397   0.776   3.241   1.983
13486TIP3   OH240398   7.207   6.203   5.389
13486TIP3    H140399   7.249   6.243   5.313
13486TIP3    H240400   7.193   6.112   5.364
13487TIP3   OH240401   2.145   2.267   1.563
13487TIP3    H140402   2.081   2.334   1.587
13487TIP3    H240403   2.095   2.200   1.516
13488TIP3   OH240404   6.822   3.301   0.216
13488TIP3    H140405   6.810   3.269   0.305
13488TIP3    H240406   6.737   3.285   0.173
13489TIP3   OH240407   6.782   0.280   4.060
13489TIP3    H140408   6.841   0.233   4.001
13489TIP3    H240409   6.810   0.254   4.147
13490TIP3   OH240410   1.138   0.649   5.730
13490TIP3    H140411   1.208   0.631   5.793
13490TIP3    H240412   1.070   0.691   5.783
13491TIP3   OH240413   3.721   1.586   3.609
13491TIP3    H140414   3.711   1.606   3.702
13491TIP3    H240415   3.771   1.660   3.575
13492TIP3   OH240416   3.253   0.532   6.154
13492TIP3    H140417   3.251   0.625   6.131
13492TIP3    H240418   3.163   0.502   6.139
13493TIP3   OH240419   7.192   5.414   0.503
13493TIP3    H140420   7.129   5.342   0.506
13493TIP3    H240421   7.142   5.489   0.470
13494TIP3   OH240422   7.586   5.077   2.301
13494TIP3    H140423   7.491   5.078   2.306
13494TIP3    H240424   7.613   5.167   2.316
13495TIP3   OH240425   6.012   3.735   2.824
13495TIP3    H140426   6.008   3.639   2.821
13495TIP3    H240427   6.043   3.755   2.912
13496TIP3   OH240428   7.870   3.386   0.310
13496TIP3    H140429   7.876   3.291   0.324
13496TIP3    H240430   7.913   3.401   0.226
13497TIP3   OH240431   7.466   6.335   5.926
13497TIP3    H140432   7.371   6.331   5.912
13497TIP3    H240433   7.482   6.422   5.960
13498TIP3   OH240434   7.742   0.914   0.862
13498TIP3    H140435   7.662   0.900   0.810
13498TIP3    H240436   7.731   1.003   0.898
13499TIP3   OH240437   4.771   1.135   3.287
13499TIP3    H140438   4.757   1.205   3.222
13499TIP3    H240439   4.822   1.069   3.239
13500TIP3   OH240440   2.739   3.127   4.037
13500TIP3    H140441   2.683   3.147   4.112
13500TIP3    H240442   2.775   3.040   4.058
13501TIP3   OH240443   6.099   1.954   4.392
13501TIP3    H140444   6.184   1.997   4.395
13501TIP3    H240445   6.037   2.019   4.425
13502TIP3   OH240446   5.299   3.814   5.205
13502TIP3    H140447   5.236   3.768   5.260
13502TIP3    H240448   5.266   3.903   5.200
13503TIP3   OH240449   2.127   4.307   0.316
13503TIP3    H140450   2.065   4.369   0.355
13503TIP3    H240451   2.132   4.235   0.380
13504TIP3   OH240452   6.720   6.293   1.328
13504TIP3    H140453   6.790   6.319   1.268
13504TIP3    H240454   6.678   6.218   1.285
13505TIP3   OH240455   6.986   4.620   2.808
13505TIP3    H140456   6.937   4.673   2.871
13505TIP3    H240457   7.005   4.538   2.854
13506TIP3   OH240458   6.795   1.043   3.540
13506TIP3    H140459   6.875   1.072   3.583
13506TIP3    H240460   6.807   1.070   3.449
13507TIP3   OH240461   6.873   4.550   0.887
13507TIP3    H140462   6.936   4.517   0.951
13507TIP3    H240463   6.799   4.581   0.940
13508TIP3   OH240464   7.768   5.443   4.663
13508TIP3    H140465   7.706   5.499   4.615
13508TIP3    H240466   7.723   5.359   4.669
13509TIP3   OH240467   6.592   3.724   2.825
13509TIP3    H140468   6.668   3.771   2.859
13509TIP3    H240469   6.627   3.668   2.756
13510TIP3   OH240470   2.076   5.756   5.473
13510TIP3    H140471   2.092   5.749   5.567
13510TIP3    H240472   1.983   5.779   5.467
13511TIP3   OH240473   2.893   3.384   0.316
13511TIP3    H140474   2.867   3.369   0.224
13511TIP3    H240475   2.820   3.434   0.353
13512TIP3   OH240476   6.846   5.070   5.291
13512TIP3    H140477   6.792   5.149   5.285
13512TIP3    H240478   6.841   5.045   5.383
13513TIP3   OH240479   6.428   6.514   6.204
13513TIP3    H140480   6.351   6.568   6.221
13513TIP3    H240481   6.441   6.465   6.285
13514TIP3   OH240482   2.078   2.097   2.541
13514TIP3    H140483   2.051   2.012   2.504
13514TIP3    H240484   2.119   2.143   2.467
13515TIP3   OH240485   6.835   2.624   6.428
13515TIP3    H140486   6.773   2.614   6.356
13515TIP3    H240487   6.791   2.680   6.491
13516TIP3   OH240488   0.475   6.144   5.331
13516TIP3    H140489   0.426   6.215   5.290
13516TIP3    H240490   0.518   6.185   5.406
13517TIP3   OH240491   0.760   5.503   6.618
13517TIP3    H140492   0.731   5.423   6.661
13517TIP3    H240493   0.748   5.487   6.524
13518TIP3   OH240494   2.746   1.748   0.162
13518TIP3    H140495   2.738   1.827   0.215
13518TIP3    H240496   2.733   1.778   0.072
13519TIP3   OH240497   0.119   2.890   2.369
13519TIP3    H140498   0.137   2.979   2.339
13519TIP3    H240499   0.061   2.852   2.303
13520TIP3   OH240500   6.605   3.254   5.052
13520TIP3    H140501   6.524   3.212   5.081
13520TIP3    H240502   6.626   3.315   5.124
13521TIP3   OH240503   6.352   3.944   0.239
13521TIP3    H140504   6.389   3.959   0.326
13521TIP3    H240505   6.412   3.881   0.199
13522TIP3   OH240506   6.790   4.946   2.188
13522TIP3    H140507   6.725   4.985   2.246
13522TIP3    H240508   6.829   5.021   2.142
13523TIP3   OH240509   7.304   1.308   5.352
13523TIP3    H140510   7.220   1.294   5.308
13523TIP3    H240511   7.350   1.372   5.297
13524TIP3   OH240512   1.334   0.021   6.030
13524TIP3    H140513   1.409   0.072   5.999
13524TIP3    H240514   1.322   0.049   6.121
13525TIP3   OH240515   3.282   4.471   5.377
13525TIP3    H140516   3.297   4.559   5.343
13525TIP3    H240517   3.370   4.434   5.387
13526TIP3   OH240518   4.612   7.470   2.718
13526TIP3    H140519   4.612   7.496   2.810
13526TIP3    H240520   4.595   7.552   2.671
13527TIP3   OH240521   5.433   5.417   0.530
13527TIP3    H140522   5.357   5.457   0.573
13527TIP3    H240523   5.413   5.421   0.437
13528TIP3   OH240524   3.657   3.431   6.750
13528TIP3    H140525   3.715   3.407   6.823
13528TIP3    H240526   3.577   3.383   6.766
13529TIP3   OH240527   8.158   7.160   5.119
13529TIP3    H140528   8.209   7.220   5.174
13529TIP3    H240529   8.083   7.136   5.173
13530TIP3   OH240530   6.116   6.253   3.547
13530TIP3    H140531   6.168   6.328   3.517
13530TIP3    H240532   6.046   6.244   3.482
13531TIP3   OH240533   4.783   0.924   6.679
13531TIP3    H140534   4.878   0.932   6.691
13531TIP3    H240535   4.753   0.874   6.755
13532TIP3   OH240536   0.154   4.272   4.757
13532TIP3    H140537   0.198   4.344   4.711
13532TIP3    H240538   0.097   4.233   4.690
13533TIP3   OH240539   6.507   2.097   3.719
13533TIP3    H140540   6.492   2.187   3.692
13533TIP3    H240541   6.579   2.066   3.663
13534TIP3   OH240542   1.254   5.122   0.551
13534TIP3    H140543   1.326   5.181   0.573
13534TIP3    H240544   1.179   5.180   0.540
13535TIP3   OH240545   2.102   3.277   6.073
13535TIP3    H140546   2.097   3.190   6.113
13535TIP3    H240547   2.062   3.265   5.987
13536TIP3   OH240548   6.892   2.380   3.147
13536TIP3    H140549   6.956   2.392   3.217
13536TIP3    H240550   6.810   2.359   3.193
13537TIP3   OH240551   8.249   0.100   4.264
13537TIP3    H140552   8.279   0.098   4.173
13537TIP3    H240553   8.327   0.082   4.316
13538TIP3   OH240554   0.852   3.751   5.381
13538TIP3    H140555   0.804   3.821   5.337
13538TIP3    H240556   0.866   3.685   5.313
13539TIP3   OH240557   4.005   3.698   1.890
13539TIP3    H140558   4.034   3.609   1.909
13539TIP3    H240559   4.073   3.754   1.927
13540TIP3   OH240560   6.795   2.714   4.697
13540TIP3    H140561   6.781   2.733   4.605
13540TIP3    H240562   6.819   2.621   4.699
13541TIP3   OH240563   7.116   7.758   1.713
13541TIP3    H140564   7.111   7.702   1.790
13541TIP3    H240565   7.199   7.805   1.723
13542TIP3   OH240566   6.325   3.295   5.932
13542TIP3    H140567   6.346   3.371   5.986
13542TIP3    H240568   6.326   3.327   5.842
13543TIP3   OH240569   1.709   4.025   6.153
13543TIP3    H140570   1.762   4.074   6.090
13543TIP3    H240571   1.648   3.975   6.099
13544TIP3   OH240572   4.300   2.409   3.219
13544TIP3    H140573   4.208   2.400   3.244
13544TIP3    H240574   4.299   2.472   3.147
13545TIP3   OH240575   3.630   7.451   2.676
13545TIP3    H140576   3.710   7.402   2.696
13545TIP3    H240577   3.661   7.539   2.652
13546TIP3   OH240578   7.952   7.338   1.437
13546TIP3    H140579   7.990   7.345   1.350
13546TIP3    H240580   7.891   7.265   1.431
13547TIP3   OH240581   1.745   2.861   1.245
13547TIP3    H140582   1.810   2.862   1.175
13547TIP3    H240583   1.675   2.919   1.214
13548TIP3   OH240584   3.769   6.031   2.942
13548TIP3    H140585   3.696   6.057   2.998
13548TIP3    H240586   3.812   6.113   2.918
13549TIP3   OH240587   6.379   4.952   0.290
13549TIP3    H140588   6.469   4.974   0.264
13549TIP3    H240589   6.386   4.924   0.381
13550TIP3   OH240590   1.044   5.206   5.465
13550TIP3    H140591   1.030   5.219   5.559
13550TIP3    H240592   1.060   5.294   5.431
13551TIP3   OH240593   4.476   6.389   3.315
13551TIP3    H140594   4.512   6.392   3.226
13551TIP3    H240595   4.389   6.350   3.304
13552TIP3   OH240596   5.535   0.192   6.145
13552TIP3    H140597   5.509   0.103   6.118
13552TIP3    H240598   5.455   0.231   6.179
13553TIP3   OH240599   2.998   2.383   2.088
13553TIP3    H140600   2.920   2.342   2.126
13553TIP3    H240601   3.068   2.319   2.102
13554TIP3   OH240602   4.397   7.582   1.517
13554TIP3    H140603   4.439   7.609   1.598
13554TIP3    H240604   4.377   7.663   1.472
13555TIP3   OH240605   2.951   0.072   1.195
13555TIP3    H140606   2.958   0.104   1.105
13555TIP3    H240607   3.030   0.104   1.238
13556TIP3   OH240608   1.592   6.279   2.280
13556TIP3    H140609   1.530   6.251   2.347
13556TIP3    H240610   1.547   6.262   2.197
13557TIP3   OH240611   5.885   2.654   5.103
13557TIP3    H140612   5.928   2.571   5.084
13557TIP3    H240613   5.797   2.629   5.132
13558TIP3   OH240614   2.688   5.791   2.077
13558TIP3    H140615   2.633   5.713   2.069
13558TIP3    H240616   2.770   5.766   2.033
13559TIP3   OH240617   2.325   7.786   6.808
13559TIP3    H140618   2.385   7.712   6.815
13559TIP3    H240619   2.379   7.862   6.830
13560TIP3   OH240620   3.478   7.533   3.725
13560TIP3    H140621   3.452   7.603   3.665
13560TIP3    H240622   3.498   7.459   3.668
13561TIP3   OH240623   1.421   5.299   6.698
13561TIP3    H140624   1.401   5.385   6.661
13561TIP3    H240625   1.335   5.262   6.720
13562TIP3   OH240626   3.740   5.027   1.482
13562TIP3    H140627   3.762   5.018   1.575
13562TIP3    H240628   3.662   5.083   1.481
13563TIP3   OH240629   6.812   7.531   5.262
13563TIP3    H140630   6.799   7.468   5.191
13563TIP3    H240631   6.787   7.615   5.224
13564TIP3   OH240632   6.315   3.408   4.666
13564TIP3    H140633   6.240   3.352   4.646
13564TIP3    H240634   6.378   3.350   4.708
13565TIP3   OH240635   3.363   3.374   5.209
13565TIP3    H140636   3.391   3.359   5.118
13565TIP3    H240637   3.268   3.388   5.203
13566TIP3   OH240638   4.009   0.753   1.581
13566TIP3    H140639   3.941   0.744   1.515
13566TIP3    H240640   4.061   0.828   1.552
13567TIP3   OH240641   4.463   4.927   5.750
13567TIP3    H140642   4.433   5.009   5.789
13567TIP3    H240643   4.526   4.892   5.812
13568TIP3   OH240644   3.105   7.316   3.402
13568TIP3    H140645   3.110   7.262   3.323
13568TIP3    H240646   3.028   7.372   3.388
13569TIP3   OH240647   7.929   3.763   5.338
13569TIP3    H140648   7.853   3.753   5.281
13569TIP3    H240649   7.901   3.724   5.421
13570TIP3   OH240650   7.288   4.222   5.385
13570TIP3    H140651   7.337   4.140   5.379
13570TIP3    H240652   7.208   4.206   5.335
13571TIP3   OH240653   1.864   1.647   2.755
13571TIP3    H140654   1.870   1.737   2.788
13571TIP3    H240655   1.826   1.597   2.828
13572TIP3   OH240656   7.442   7.118   5.712
13572TIP3    H140657   7.478   7.189   5.765
13572TIP3    H240658   7.350   7.142   5.700
13573TIP3   OH240659   1.994   6.387   4.687
13573TIP3    H140660   1.981   6.406   4.594
13573TIP3    H240661   2.083   6.417   4.705
13574TIP3   OH240662   4.472   7.046   4.010
13574TIP3    H140663   4.380   7.021   3.997
13574TIP3    H240664   4.471   7.106   4.084
13575TIP3   OH240665   3.595   3.705   5.411
13575TIP3    H140666   3.524   3.651   5.445
13575TIP3    H240667   3.631   3.654   5.338
13576TIP3   OH240668   1.583   7.288   5.091
13576TIP3    H140669   1.610   7.307   5.001
13576TIP3    H240670   1.488   7.274   5.085
13577TIP3   OH240671   5.512   3.165   0.716
13577TIP3    H140672   5.549   3.193   0.800
13577TIP3    H240673   5.440   3.106   0.739
13578TIP3   OH240674   7.461   6.296   3.932
13578TIP3    H140675   7.426   6.210   3.909
13578TIP3    H240676   7.556   6.286   3.920
13579TIP3   OH240677   4.033   2.308   0.774
13579TIP3    H140678   4.078   2.348   0.699
13579TIP3    H240679   4.050   2.214   0.765
13580TIP3   OH240680   1.978   3.545   3.295
13580TIP3    H140681   1.987   3.455   3.329
13580TIP3    H240682   1.917   3.587   3.355
13581TIP3   OH240683   2.502   5.493   4.090
13581TIP3    H140684   2.571   5.557   4.108
13581TIP3    H240685   2.439   5.541   4.036
13582TIP3   OH240686   0.089   1.169   0.462
13582TIP3    H140687   0.005   1.141   0.499
13582TIP3    H240688   0.132   1.216   0.534
13583TIP3   OH240689   5.384   0.335   5.664
13583TIP3    H140690   5.337   0.398   5.609
13583TIP3    H240691   5.380   0.372   5.752
13584TIP3   OH240692   4.819   1.977   2.969
13584TIP3    H140693   4.808   1.886   2.940
13584TIP3    H240694   4.905   2.003   2.935
13585TIP3   OH240695   8.088   2.846   5.898
13585TIP3    H140696   8.053   2.779   5.840
13585TIP3    H240697   8.079   2.809   5.986
13586TIP3   OH240698   7.352   0.791   1.994
13586TIP3    H140699   7.403   0.808   2.074
13586TIP3    H240700   7.265   0.767   2.025
13587TIP3   OH240701   4.442   6.693   6.380
13587TIP3    H140702   4.404   6.778   6.402
13587TIP3    H240703   4.445   6.692   6.285
13588TIP3   OH240704   0.992   6.515   2.838
13588TIP3    H140705   0.932   6.445   2.810
13588TIP3    H240706   0.960   6.593   2.793
13589TIP3   OH240707   5.610   2.829   2.080
13589TIP3    H140708   5.683   2.813   2.140
13589TIP3    H240709   5.614   2.756   2.017
13590TIP3   OH240710   3.854   0.178   1.564
13590TIP3    H140711   3.759   0.166   1.569
13590TIP3    H240712   3.887   0.097   1.527
13591TIP3   OH240713   7.812   2.895   4.381
13591TIP3    H140714   7.877   2.940   4.327
13591TIP3    H240715   7.862   2.861   4.455
13592TIP3   OH240716   6.933   5.396   5.521
13592TIP3    H140717   6.971   5.314   5.489
13592TIP3    H240718   6.980   5.464   5.473
13593TIP3   OH240719   8.069   1.186   6.703
13593TIP3    H140720   7.982   1.221   6.682
13593TIP3    H240721   8.087   1.221   6.790
13594TIP3   OH240722   3.733   7.229   5.459
13594TIP3    H140723   3.645   7.229   5.496
13594TIP3    H240724   3.755   7.136   5.451
13595TIP3   OH240725   2.623   7.259   6.359
13595TIP3    H140726   2.596   7.201   6.429
13595TIP3    H240727   2.542   7.279   6.311
13596TIP3   OH240728   0.301   7.178   5.303
13596TIP3    H140729   0.305   7.151   5.394
13596TIP3    H240730   0.326   7.100   5.253
13597TIP3   OH240731   1.003   3.366   3.825
13597TIP3    H140732   1.085   3.323   3.851
13597TIP3    H240733   0.957   3.382   3.908
13598TIP3   OH240734   7.553   2.399   0.854
13598TIP3    H140735   7.535   2.419   0.946
13598TIP3    H240736   7.469   2.414   0.810
13599TIP3   OH240737   3.364   6.161   2.801
13599TIP3    H140738   3.389   6.113   2.880
13599TIP3    H240739   3.268   6.154   2.798
13600TIP3   OH240740   2.088   0.902   1.068
13600TIP3    H140741   2.009   0.853   1.046
13600TIP3    H240742   2.072   0.990   1.035
13601TIP3   OH240743   8.076   2.975   5.555
13601TIP3    H140744   8.036   2.896   5.591
13601TIP3    H240745   8.158   2.945   5.516
13602TIP3   OH240746   3.447   4.886   5.869
13602TIP3    H140747   3.530   4.861   5.829
13602TIP3    H240748   3.453   4.981   5.881
13603TIP3   OH240749   6.876   0.567   6.399
13603TIP3    H140750   6.871   0.661   6.386
13603TIP3    H240751   6.896   0.556   6.492
13604TIP3   OH240752   5.163   6.299   5.523
13604TIP3    H140753   5.083   6.297   5.470
13604TIP3    H240754   5.230   6.265   5.464
13605TIP3   OH240755  -0.044   0.328   2.289
13605TIP3    H140756  -0.094   0.339   2.208
13605TIP3    H240757   0.047   0.347   2.264
13606TIP3   OH240758   4.472   5.579   6.643
13606TIP3    H140759   4.492   5.661   6.597
13606TIP3    H240760   4.381   5.588   6.670
13607TIP3   OH240761   0.860   7.055   4.765
13607TIP3    H140762   0.887   6.997   4.693
13607TIP3    H240763   0.845   7.139   4.724
13608TIP3   OH240764   0.659   2.699   3.637
13608TIP3    H140765   0.730   2.709   3.574
13608TIP3    H240766   0.688   2.628   3.694
13609TIP3   OH240767   0.688   5.309   2.682
13609TIP3    H140768   0.655   5.394   2.710
13609TIP3    H240769   0.614   5.249   2.694
13610TIP3   OH240770   2.779   4.693   0.067
13610TIP3    H140771   2.825   4.614   0.095
13610TIP3    H240772   2.688   4.666   0.055
13611TIP3   OH240773   2.458   4.691   6.190
13611TIP3    H140774   2.400   4.662   6.120
13611TIP3    H240775   2.484   4.779   6.166
13612TIP3   OH240776   2.970   4.802   2.228
13612TIP3    H140777   2.880   4.820   2.255
13612TIP3    H240778   2.966   4.715   2.187
13613TIP3   OH240779   3.001   4.604   3.878
13613TIP3    H140780   3.028   4.519   3.845
13613TIP3    H240781   2.905   4.599   3.884
13614TIP3   OH240782   0.502   1.581   4.593
13614TIP3    H140783   0.544   1.576   4.507
13614TIP3    H240784   0.425   1.525   4.584
13615TIP3   OH240785   5.754   6.267   2.919
13615TIP3    H140786   5.785   6.227   3.001
13615TIP3    H240787   5.784   6.208   2.850
13616TIP3   OH240788   8.245   0.341   2.035
13616TIP3    H140789   8.279   0.300   1.956
13616TIP3    H240790   8.264   0.434   2.025
13617TIP3   OH240791   6.300   0.124   6.399
13617TIP3    H140792   6.205   0.123   6.386
13617TIP3    H240793   6.332   0.059   6.336
13618TIP3   OH240794   2.804   1.093   4.270
13618TIP3    H140795   2.811   1.058   4.182
13618TIP3    H240796   2.736   1.041   4.312
13619TIP3   OH240797   4.695   3.498   0.241
13619TIP3    H140798   4.775   3.452   0.213
13619TIP3    H240799   4.624   3.450   0.198
13620TIP3   OH240800   2.014   7.448   4.783
13620TIP3    H140801   1.982   7.435   4.694
13620TIP3    H240802   2.028   7.542   4.790
13621TIP3   OH240803   4.888   5.307   1.862
13621TIP3    H140804   4.894   5.316   1.767
13621TIP3    H240805   4.807   5.352   1.886
13622TIP3   OH240806   2.872   1.993   5.255
13622TIP3    H140807   2.888   2.087   5.247
13622TIP3    H240808   2.812   1.985   5.329
13623TIP3   OH240809   0.618   5.540   2.823
13623TIP3    H140810   0.588   5.524   2.913
13623TIP3    H240811   0.683   5.610   2.832
13624TIP3   OH240812   1.561   1.515   0.640
13624TIP3    H140813   1.651   1.545   0.654
13624TIP3    H240814   1.545   1.532   0.547
13625TIP3   OH240815   6.025   0.042   0.268
13625TIP3    H140816   6.038  -0.050   0.290
13625TIP3    H240817   5.935   0.061   0.295
13626TIP3   OH240818   8.044   5.395   5.150
13626TIP3    H140819   8.097   5.428   5.078
13626TIP3    H240820   7.954   5.399   5.117
13627TIP3   OH240821   5.116   7.760   5.131
13627TIP3    H140822   5.151   7.675   5.160
13627TIP3    H240823   5.188   7.799   5.081
13628TIP3   OH240824   2.690   7.667   1.763
13628TIP3    H140825   2.753   7.717   1.815
13628TIP3    H240826   2.647   7.732   1.708
13629TIP3   OH240827   2.615   6.566   3.823
13629TIP3    H140828   2.593   6.647   3.869
13629TIP3    H240829   2.622   6.592   3.731
13630TIP3   OH240830   4.356   2.338   2.664
13630TIP3    H140831   4.279   2.312   2.615
13630TIP3    H240832   4.330   2.334   2.756
13631TIP3   OH240833   0.675   6.954   1.392
13631TIP3    H140834   0.679   6.865   1.357
13631TIP3    H240835   0.656   6.942   1.485
13632TIP3   OH240836   4.425   0.776   3.893
13632TIP3    H140837   4.515   0.801   3.916
13632TIP3    H240838   4.399   0.714   3.961
13633TIP3   OH240839   8.244   5.772   4.893
13633TIP3    H140840   8.289   5.837   4.949
13633TIP3    H240841   8.302   5.696   4.894
13634TIP3   OH240842   0.950   0.419   1.350
13634TIP3    H140843   0.945   0.378   1.437
13634TIP3    H240844   1.009   0.363   1.300
13635TIP3   OH240845   5.133   0.339   6.494
13635TIP3    H140846   5.085   0.396   6.556
13635TIP3    H240847   5.111   0.250   6.522
13636TIP3   OH240848   7.679   3.930   3.926
13636TIP3    H140849   7.645   3.930   3.836
13636TIP3    H240850   7.728   4.012   3.932
13637TIP3   OH240851   6.643   6.287   6.565
13637TIP3    H140852   6.739   6.294   6.558
13637TIP3    H240853   6.630   6.206   6.614
13638TIP3   OH240854   2.785   0.895   2.890
13638TIP3    H140855   2.868   0.942   2.900
13638TIP3    H240856   2.729   0.932   2.958
13639TIP3   OH240857   5.091   0.385   6.786
13639TIP3    H140858   5.007   0.431   6.788
13639TIP3    H240859   5.155   0.452   6.810
13640TIP3   OH240860   6.468   4.906   5.379
13640TIP3    H140861   6.514   4.869   5.454
13640TIP3    H240862   6.526   4.975   5.347
13641TIP3   OH240863   6.604   7.853   6.180
13641TIP3    H140864   6.617   7.770   6.226
13641TIP3    H240865   6.575   7.828   6.093
13642TIP3   OH240866   1.370   6.615   0.854
13642TIP3    H140867   1.438   6.572   0.801
13642TIP3    H240868   1.419   6.665   0.919
13643TIP3   OH240869   4.825   0.524   0.272
13643TIP3    H140870   4.905   0.525   0.323
13643TIP3    H240871   4.854   0.512   0.182
13644TIP3   OH240872   7.169   4.138   6.357
13644TIP3    H140873   7.129   4.176   6.279
13644TIP3    H240874   7.095   4.102   6.406
13645TIP3   OH240875   4.186   3.276   3.911
13645TIP3    H140876   4.213   3.205   3.854
13645TIP3    H240877   4.158   3.233   3.992
13646TIP3   OH240878   5.196   5.272   5.156
13646TIP3    H140879   5.204   5.301   5.065
13646TIP3    H240880   5.159   5.184   5.150
13647TIP3   OH240881   5.855   7.601   3.766
13647TIP3    H140882   5.762   7.622   3.776
13647TIP3    H240883   5.897   7.685   3.752
13648TIP3   OH240884   6.957   6.918   4.234
13648TIP3    H140885   6.991   6.997   4.192
13648TIP3    H240886   6.861   6.927   4.227
13649TIP3   OH240887   5.156   2.471   1.653
13649TIP3    H140888   5.127   2.410   1.720
13649TIP3    H240889   5.226   2.521   1.695
13650TIP3   OH240890   4.188   4.238   1.776
13650TIP3    H140891   4.128   4.313   1.775
13650TIP3    H240892   4.158   4.185   1.850
13651TIP3   OH240893   1.888   0.359   0.304
13651TIP3    H140894   1.958   0.353   0.369
13651TIP3    H240895   1.855   0.448   0.313
13652TIP3   OH240896   6.490   4.123   6.735
13652TIP3    H140897   6.433   4.145   6.662
13652TIP3    H240898   6.536   4.043   6.708
13653TIP3   OH240899   7.187   4.831   6.418
13653TIP3    H140900   7.236   4.880   6.484
13653TIP3    H240901   7.243   4.835   6.340
13654TIP3   OH240902   0.486   7.393   1.444
13654TIP3    H140903   0.534   7.360   1.520
13654TIP3    H240904   0.414   7.331   1.433
13655TIP3   OH240905   6.553   2.992   4.527
13655TIP3    H140906   6.474   2.958   4.485
13655TIP3    H240907   6.625   2.966   4.468
13656TIP3   OH240908   5.572   2.745   4.922
13656TIP3    H140909   5.596   2.730   5.014
13656TIP3    H240910   5.650   2.782   4.882
13657TIP3   OH240911   3.182   1.188   3.565
13657TIP3    H140912   3.106   1.176   3.622
13657TIP3    H240913   3.159   1.141   3.485
13658TIP3   OH240914   7.339   1.934   0.356
13658TIP3    H140915   7.409   1.908   0.416
13658TIP3    H240916   7.282   1.991   0.409
13659TIP3   OH240917   7.916   5.124   4.735
13659TIP3    H140918   7.830   5.167   4.727
13659TIP3    H240919   7.973   5.174   4.677
13660TIP3   OH240920   2.153   4.810   6.668
13660TIP3    H140921   2.228   4.865   6.644
13660TIP3    H240922   2.163   4.796   6.762
13661TIP3   OH240923   6.620   0.435   4.273
13661TIP3    H140924   6.697   0.385   4.300
13661TIP3    H240925   6.655   0.516   4.236
13662TIP3   OH240926   7.256   6.069   2.844
13662TIP3    H140927   7.249   6.164   2.844
13662TIP3    H240928   7.335   6.050   2.894
13663TIP3   OH240929   3.257   1.822   2.621
13663TIP3    H140930   3.257   1.789   2.711
13663TIP3    H240931   3.193   1.893   2.622
13664TIP3   OH240932   1.429   6.242   6.282
13664TIP3    H140933   1.365   6.314   6.279
13664TIP3    H240934   1.497   6.273   6.341
13665TIP3   OH240935   2.223   0.532   1.067
13665TIP3    H140936   2.142   0.552   1.021
13665TIP3    H240937   2.202   0.457   1.123
13666TIP3   OH240938   3.351   7.013   4.532
13666TIP3    H140939   3.373   7.074   4.461
13666TIP3    H240940   3.426   7.017   4.591
13667TIP3   OH240941   6.190   1.217   6.686
13667TIP3    H140942   6.127   1.262   6.743
13667TIP3    H240943   6.179   1.124   6.707
13668TIP3   OH240944   3.802   5.256   3.418
13668TIP3    H140945   3.728   5.313   3.397
13668TIP3    H240946   3.845   5.240   3.334
13669TIP3   OH240947   4.045   2.443   3.265
13669TIP3    H140948   4.005   2.422   3.349
13669TIP3    H240949   3.979   2.495   3.219
13670TIP3   OH240950   3.566   6.721   0.252
13670TIP3    H140951   3.583   6.631   0.277
13670TIP3    H240952   3.635   6.743   0.189
13671TIP3   OH240953   2.636   2.572   0.491
13671TIP3    H140954   2.596   2.544   0.574
13671TIP3    H240955   2.670   2.491   0.453
13672TIP3   OH240956   4.841   2.479   1.145
13672TIP3    H140957   4.781   2.487   1.218
13672TIP3    H240958   4.900   2.408   1.170
13673TIP3   OH240959   7.487   3.384   5.466
13673TIP3    H140960   7.495   3.432   5.548
13673TIP3    H240961   7.393   3.374   5.452
13674TIP3   OH240962   3.518   5.242   6.292
13674TIP3    H140963   3.447   5.286   6.339
13674TIP3    H240964   3.487   5.153   6.279
13675TIP3   OH240965   7.728   0.204   1.840
13675TIP3    H140966   7.790   0.276   1.841
13675TIP3    H240967   7.757   0.145   1.910
13676TIP3   OH240968   0.346   1.124   2.058
13676TIP3    H140969   0.306   1.207   2.087
13676TIP3    H240970   0.439   1.144   2.051
13677TIP3   OH240971   5.241   0.479   4.401
13677TIP3    H140972   5.156   0.499   4.362
13677TIP3    H240973   5.303   0.533   4.353
13678TIP3   OH240974   2.408   2.232   1.439
13678TIP3    H140975   2.341   2.267   1.498
13678TIP3    H240976   2.360   2.210   1.359
13679TIP3   OH240977   5.752   2.499   0.201
13679TIP3    H140978   5.771   2.432   0.135
13679TIP3    H240979   5.675   2.545   0.167
13680TIP3   OH240980   0.127   1.934   4.857
13680TIP3    H140981   0.031   1.931   4.850
13680TIP3    H240982   0.158   1.886   4.781
13681TIP3   OH240983   0.773   3.997   5.267
13681TIP3    H140984   0.694   3.978   5.317
13681TIP3    H240985   0.749   3.982   5.176
13682TIP3   OH240986   5.591   7.541   0.702
13682TIP3    H140987   5.555   7.582   0.624
13682TIP3    H240988   5.518   7.492   0.739
13683TIP3   OH240989   0.644   5.839   2.014
13683TIP3    H140990   0.580   5.907   1.993
13683TIP3    H240991   0.592   5.760   2.027
13684TIP3   OH240992   1.830   6.183   5.089
13684TIP3    H140993   1.893   6.232   5.142
13684TIP3    H240994   1.815   6.237   5.012
13685TIP3   OH240995   1.357   6.228   0.252
13685TIP3    H140996   1.272   6.190   0.275
13685TIP3    H240997   1.416   6.198   0.321
13686TIP3   OH240998   6.969   3.167   1.562
13686TIP3    H140999   7.039   3.224   1.597
13686TIP3    H241000   6.889   3.201   1.601
13687TIP3   OH241001   8.065   5.478   5.636
13687TIP3    H141002   8.085   5.513   5.549
13687TIP3    H241003   8.046   5.555   5.689
13688TIP3   OH241004   2.743   6.248   5.877
13688TIP3    H141005   2.694   6.320   5.917
13688TIP3    H241006   2.730   6.260   5.783
13689TIP3   OH241007   5.338   4.646   6.739
13689TIP3    H141008   5.281   4.625   6.813
13689TIP3    H241009   5.301   4.725   6.701
13690TIP3   OH241010   5.472   2.177   0.998
13690TIP3    H141011   5.496   2.155   1.088
13690TIP3    H241012   5.538   2.241   0.971
13691TIP3   OH241013   2.707   3.045   0.213
13691TIP3    H141014   2.638   3.035   0.277
13691TIP3    H241015   2.733   2.955   0.191
13692TIP3   OH241016   2.141   3.328   4.205
13692TIP3    H141017   2.191   3.342   4.125
13692TIP3    H241018   2.064   3.385   4.196
13693TIP3   OH241019   2.476   6.104   4.773
13693TIP3    H141020   2.495   6.191   4.809
13693TIP3    H241021   2.412   6.120   4.704
13694TIP3   OH241022   6.006   3.613   4.599
13694TIP3    H141023   5.937   3.547   4.591
13694TIP3    H241024   6.063   3.597   4.523
13695TIP3   OH241025   5.471   5.137   0.158
13695TIP3    H141026   5.483   5.101   0.070
13695TIP3    H241027   5.503   5.069   0.217
13696TIP3   OH241028   8.340   1.904   5.988
13696TIP3    H141029   8.371   1.877   6.075
13696TIP3    H241030   8.400   1.861   5.927
13697TIP3   OH241031   8.358   5.241   3.480
13697TIP3    H141032   8.320   5.168   3.529
13697TIP3    H241033   8.448   5.247   3.510
13698TIP3   OH241034   5.427   1.104   6.548
13698TIP3    H141035   5.496   1.039   6.537
13698TIP3    H241036   5.378   1.102   6.466
13699TIP3   OH241037   3.828   3.208   3.620
13699TIP3    H141038   3.920   3.216   3.594
13699TIP3    H241039   3.780   3.264   3.559
13700TIP3   OH241040   1.966   5.357   6.714
13700TIP3    H141041   2.019   5.362   6.634
13700TIP3    H241042   1.877   5.346   6.682
13701TIP3   OH241043   7.271   6.365   2.760
13701TIP3    H141044   7.341   6.420   2.794
13701TIP3    H241045   7.223   6.422   2.700
13702TIP3   OH241046   3.598   4.987   0.468
13702TIP3    H141047   3.528   5.048   0.490
13702TIP3    H241048   3.589   4.972   0.374
13703TIP3   OH241049   5.855   7.838   1.376
13703TIP3    H141050   5.899   7.823   1.292
13703TIP3    H241051   5.847   7.933   1.383
13704TIP3   OH241052   0.730   0.334   5.121
13704TIP3    H141053   0.793   0.370   5.058
13704TIP3    H241054   0.783   0.305   5.195
13705TIP3   OH241055   6.413   5.279   6.208
13705TIP3    H141056   6.361   5.249   6.283
13705TIP3    H241057   6.368   5.244   6.132
13706TIP3   OH241058  -0.018   7.078   3.320
13706TIP3    H141059   0.064   7.120   3.346
13706TIP3    H241060   0.004   7.033   3.238
13707TIP3   OH241061   2.486   1.673   3.120
13707TIP3    H141062   2.414   1.736   3.115
13707TIP3    H241063   2.565   1.727   3.122
13708TIP3   OH241064   7.904   1.618   3.390
13708TIP3    H141065   7.938   1.557   3.455
13708TIP3    H241066   7.825   1.576   3.356
13709TIP3   OH241067   4.144   6.783   1.990
13709TIP3    H141068   4.184   6.761   1.906
13709TIP3    H241069   4.197   6.856   2.023
13710TIP3   OH241070   4.231   5.096   3.609
13710TIP3    H141071   4.269   5.119   3.524
13710TIP3    H241072   4.239   5.176   3.661
13711TIP3   OH241073   3.041   7.117   0.591
13711TIP3    H141074   2.974   7.124   0.523
13711TIP3    H241075   3.106   7.058   0.554
13712TIP3   OH241076   4.400   6.943   6.042
13712TIP3    H141077   4.419   6.990   6.124
13712TIP3    H241078   4.349   7.004   5.990
13713TIP3   OH241079   6.081   6.525   4.812
13713TIP3    H141080   6.131   6.607   4.814
13713TIP3    H241081   5.997   6.548   4.775
13714TIP3   OH241082   1.160   4.931   4.732
13714TIP3    H141083   1.077   4.940   4.685
13714TIP3    H241084   1.168   5.013   4.782
13715TIP3   OH241085   3.507   0.333   2.595
13715TIP3    H141086   3.474   0.423   2.602
13715TIP3    H241087   3.477   0.290   2.675
13716TIP3   OH241088   3.746   3.496   0.721
13716TIP3    H141089   3.791   3.489   0.805
13716TIP3    H241090   3.807   3.458   0.658
13717TIP3   OH241091   0.683   6.215   0.344
13717TIP3    H141092   0.637   6.298   0.360
13717TIP3    H241093   0.613   6.152   0.325
13718TIP3   OH241094   5.409   5.930   5.192
13718TIP3    H141095   5.411   6.010   5.244
13718TIP3    H241096   5.449   5.864   5.248
13719TIP3   OH241097   2.603   4.330   6.497
13719TIP3    H141098   2.604   4.237   6.476
13719TIP3    H241099   2.527   4.365   6.450
13720TIP3   OH241100   8.015   5.874   1.380
13720TIP3    H141101   8.068   5.849   1.455
13720TIP3    H241102   8.078   5.893   1.310
13721TIP3   OH241103   0.265   2.589   4.700
13721TIP3    H141104   0.323   2.611   4.774
13721TIP3    H241105   0.238   2.674   4.665
13722TIP3   OH241106   5.805   7.024   0.164
13722TIP3    H141107   5.773   7.101   0.118
13722TIP3    H241108   5.884   6.999   0.117
13723TIP3   OH241109   4.609   5.876   1.185
13723TIP3    H141110   4.545   5.894   1.116
13723TIP3    H241111   4.674   5.946   1.177
13724TIP3   OH241112   4.337   6.779   1.171
13724TIP3    H141113   4.275   6.739   1.233
13724TIP3    H241114   4.403   6.820   1.227
13725TIP3   OH241115   1.089   0.102   3.090
13725TIP3    H141116   1.084   0.069   3.001
13725TIP3    H241117   1.150   0.044   3.135
13726TIP3   OH241118   1.300   7.559   2.279
13726TIP3    H141119   1.356   7.538   2.204
13726TIP3    H241120   1.278   7.473   2.317
13727TIP3   OH241121   4.944   3.131   1.150
13727TIP3    H141122   4.862   3.137   1.101
13727TIP3    H241123   4.998   3.071   1.098
13728TIP3   OH241124   0.191   4.482   3.054
13728TIP3    H141125   0.100   4.473   3.082
13728TIP3    H241126   0.206   4.577   3.053
13729TIP3   OH241127   6.299  -0.017   3.173
13729TIP3    H141128   6.273   0.075   3.186
13729TIP3    H241129   6.394  -0.014   3.163
13730TIP3   OH241130   3.144   5.711   6.790
13730TIP3    H141131   3.156   5.630   6.840
13730TIP3    H241132   3.054   5.705   6.757
13731TIP3   OH241133   2.102   6.898   6.677
13731TIP3    H141134   2.189   6.883   6.641
13731TIP3    H241135   2.076   6.983   6.641
13732TIP3   OH241136   5.224   4.616   4.615
13732TIP3    H141137   5.171   4.536   4.608
13732TIP3    H241138   5.300   4.590   4.666
13733TIP3   OH241139   0.029   3.409   2.925
13733TIP3    H141140   0.053   3.430   2.834
13733TIP3    H241141   0.097   3.348   2.954
13734TIP3   OH241142   1.134   6.846   6.117
13734TIP3    H141143   1.064   6.814   6.061
13734TIP3    H241144   1.104   6.931   6.148
13735TIP3   OH241145   1.019   2.042   5.326
13735TIP3    H141146   1.010   1.956   5.368
13735TIP3    H241147   0.944   2.047   5.267
13736TIP3   OH241148   7.285   4.440   3.963
13736TIP3    H141149   7.331   4.357   3.953
13736TIP3    H241150   7.301   4.466   4.053
13737TIP3   OH241151   8.259   5.544   3.762
13737TIP3    H141152   8.273   5.526   3.669
13737TIP3    H241153   8.188   5.607   3.764
13738TIP3   OH241154   2.083   1.356   2.314
13738TIP3    H141155   2.073   1.414   2.389
13738TIP3    H241156   1.995   1.323   2.297
13739TIP3   OH241157   1.642   4.589   5.896
13739TIP3    H141158   1.641   4.549   5.983
13739TIP3    H241159   1.558   4.566   5.858
13740TIP3   OH241160   1.931   5.473   3.536
13740TIP3    H141161   1.910   5.499   3.626
13740TIP3    H241162   1.939   5.378   3.540
13741TIP3   OH241163   8.239   2.334   3.168
13741TIP3    H141164   8.152   2.327   3.130
13741TIP3    H241165   8.248   2.255   3.221
13742TIP3   OH241166   2.651   7.832   0.975
13742TIP3    H141167   2.739   7.869   0.984
13742TIP3    H241168   2.663   7.756   0.917
13743TIP3   OH241169   0.431   2.813   6.535
13743TIP3    H141170   0.384   2.893   6.512
13743TIP3    H241171   0.522   2.842   6.547
13744TIP3   OH241172   1.386   5.919   1.448
13744TIP3    H141173   1.395   5.979   1.522
13744TIP3    H241174   1.334   5.846   1.482
13745TIP3   OH241175   2.633   4.830   2.855
13745TIP3    H141176   2.728   4.816   2.857
13745TIP3    H241177   2.600   4.767   2.792
13746TIP3   OH241178   3.681   3.980   2.021
13746TIP3    H141179   3.585   3.982   2.015
13746TIP3    H241180   3.705   4.072   2.036
13747TIP3   OH241181   0.807   2.796   3.029
13747TIP3    H141182   0.794   2.761   2.941
13747TIP3    H241183   0.874   2.740   3.068
13748TIP3   OH241184   1.712   2.977   6.441
13748TIP3    H141185   1.771   2.943   6.373
13748TIP3    H241186   1.727   3.072   6.438
13749TIP3   OH241187   5.910   4.783   1.326
13749TIP3    H141188   5.817   4.805   1.339
13749TIP3    H241189   5.908   4.698   1.281
13750TIP3   OH241190   2.145   4.479   2.649
13750TIP3    H141191   2.195   4.491   2.568
13750TIP3    H241192   2.158   4.561   2.697
13751TIP3   OH241193   7.035   4.798   1.719
13751TIP3    H141194   7.124   4.783   1.688
13751TIP3    H241195   7.004   4.712   1.746
13752TIP3   OH241196   0.043   3.587   0.326
13752TIP3    H141197   0.099   3.655   0.362
13752TIP3    H241198   0.062   3.510   0.379
13753TIP3   OH241199   4.819   6.995   4.279
13753TIP3    H141200   4.901   6.952   4.300
13753TIP3    H241201   4.794   6.959   4.194
13754TIP3   OH241202   6.667   3.709   3.174
13754TIP3    H141203   6.621   3.629   3.199
13754TIP3    H241204   6.653   3.716   3.079
13755TIP3   OH241205   3.927   0.115   0.065
13755TIP3    H141206   3.943   0.021   0.060
13755TIP3    H241207   3.839   0.126   0.030
13756TIP3   OH241208   1.480   2.637   1.857
13756TIP3    H141209   1.530   2.563   1.824
13756TIP3    H241210   1.543   2.708   1.866
13757TIP3   OH241211   5.609   6.449   4.908
13757TIP3    H141212   5.544   6.425   4.842
13757TIP3    H241213   5.564   6.510   4.966
13758TIP3   OH241214   7.570   7.626   5.157
13758TIP3    H141215   7.546   7.534   5.167
13758TIP3    H241216   7.622   7.628   5.076
13759TIP3   OH241217   2.675   2.238   4.100
13759TIP3    H141218   2.617   2.192   4.040
13759TIP3    H241219   2.743   2.275   4.043
13760TIP3   OH241220   3.374   5.858   2.838
13760TIP3    H141221   3.293   5.909   2.836
13760TIP3    H241222   3.430   5.902   2.901
13761TIP3   OH241223   5.685   3.459   3.550
13761TIP3    H141224   5.780   3.449   3.564
13761TIP3    H241225   5.660   3.383   3.498
13762TIP3   OH241226   4.107   2.032   5.461
13762TIP3    H141227   4.091   2.124   5.442
13762TIP3    H241228   4.019   1.993   5.464
13763TIP3   OH241229   6.619   2.746   3.589
13763TIP3    H141230   6.647   2.834   3.611
13763TIP3    H241231   6.681   2.689   3.634
13764TIP3   OH241232   2.969   4.707   5.327
13764TIP3    H141233   2.966   4.683   5.419
13764TIP3    H241234   2.936   4.797   5.324
13765TIP3   OH241235   7.559   5.499   1.131
13765TIP3    H141236   7.652   5.521   1.132
13765TIP3    H241237   7.516   5.579   1.100
13766TIP3   OH241238   1.431   5.621   6.069
13766TIP3    H141239   1.360   5.603   6.007
13766TIP3    H241240   1.406   5.575   6.149
13767TIP3   OH241241   3.948   7.037   4.095
13767TIP3    H141242   3.908   6.982   4.162
13767TIP3    H241243   3.882   7.103   4.075
13768TIP3   OH241244   4.873   0.511   0.685
13768TIP3    H141245   4.928   0.515   0.763
13768TIP3    H241246   4.835   0.423   0.686
13769TIP3   OH241247   4.546   4.016   6.170
13769TIP3    H141248   4.550   3.957   6.094
13769TIP3    H241249   4.500   4.093   6.137
13770TIP3   OH241250   0.951   2.774   4.545
13770TIP3    H141251   1.036   2.808   4.515
13770TIP3    H241252   0.949   2.684   4.513
13771TIP3   OH241253   3.654   7.778   1.421
13771TIP3    H141254   3.601   7.856   1.404
13771TIP3    H241255   3.653   7.730   1.338
13772TIP3   OH241256   4.572   3.858   0.788
13772TIP3    H141257   4.661   3.893   0.800
13772TIP3    H241258   4.516   3.920   0.834
13773TIP3   OH241259   2.651   0.463   1.659
13773TIP3    H141260   2.705   0.445   1.582
13773TIP3    H241261   2.714   0.488   1.727
13774TIP3   OH241262   3.351   0.773   2.660
13774TIP3    H141263   3.274   0.826   2.638
13774TIP3    H241264   3.398   0.825   2.725
13775TIP3   OH241265   6.732   5.491   1.170
13775TIP3    H141266   6.689   5.409   1.144
13775TIP3    H241267   6.753   5.478   1.262
13776TIP3   OH241268   0.728   6.222   6.255
13776TIP3    H141269   0.756   6.142   6.212
13776TIP3    H241270   0.747   6.208   6.348
13777TIP3   OH241271   0.290   1.366   5.035
13777TIP3    H141272   0.200   1.365   5.002
13777TIP3    H241273   0.280   1.354   5.129
13778TIP3   OH241274   5.304   6.587   5.659
13778TIP3    H141275   5.288   6.567   5.752
13778TIP3    H241276   5.395   6.616   5.656
13779TIP3   OH241277   5.708   6.149   1.817
13779TIP3    H141278   5.793   6.190   1.803
13779TIP3    H241279   5.724   6.055   1.808
13780TIP3   OH241280   4.769   7.941   1.612
13780TIP3    H141281   4.850   7.894   1.597
13780TIP3    H241282   4.711   7.913   1.541
13781TIP3   OH241283   7.838   6.874   2.084
13781TIP3    H141284   7.917   6.830   2.117
13781TIP3    H241285   7.834   6.851   1.992
13782TIP3   OH241286   2.563   2.540   1.848
13782TIP3    H141287   2.494   2.477   1.828
13782TIP3    H241288   2.641   2.487   1.864
13783TIP3   OH241289   3.694   3.953   1.087
13783TIP3    H141290   3.755   3.887   1.053
13783TIP3    H241291   3.613   3.904   1.102
13784TIP3   OH241292   4.458   3.431   1.573
13784TIP3    H141293   4.372   3.398   1.599
13784TIP3    H241294   4.451   3.526   1.582
13785TIP3   OH241295   2.930   5.224   3.210
13785TIP3    H141296   3.019   5.213   3.242
13785TIP3    H241297   2.940   5.243   3.116
13786TIP3   OH241298   3.630   6.104   3.988
13786TIP3    H141299   3.688   6.079   4.059
13786TIP3    H241300   3.639   6.033   3.923
13787TIP3   OH241301   5.997   3.016   3.235
13787TIP3    H141302   6.047   3.009   3.317
13787TIP3    H241303   6.048   2.966   3.172
13788TIP3   OH241304   2.723   5.412   4.406
13788TIP3    H141305   2.713   5.423   4.501
13788TIP3    H241306   2.646   5.361   4.381
13789TIP3   OH241307   1.253   0.944   3.629
13789TIP3    H141308   1.274   0.878   3.695
13789TIP3    H241309   1.157   0.943   3.624
13790TIP3   OH241310   5.582   2.575   5.458
13790TIP3    H141311   5.659   2.580   5.515
13790TIP3    H241312   5.523   2.643   5.492
13791TIP3   OH241313   3.973   6.328   2.522
13791TIP3    H141314   3.983   6.380   2.601
13791TIP3    H241315   4.062   6.302   2.499
13792TIP3   OH241316   8.136   7.605   3.733
13792TIP3    H141317   8.113   7.611   3.640
13792TIP3    H241318   8.224   7.644   3.738
13793TIP3   OH241319   3.603   0.757   4.138
13793TIP3    H141320   3.659   0.812   4.083
13793TIP3    H241321   3.585   0.809   4.216
13794TIP3   OH241322   6.300   6.302   2.168
13794TIP3    H141323   6.222   6.295   2.113
13794TIP3    H241324   6.354   6.368   2.124
13795TIP3   OH241325   1.935   7.653   3.359
13795TIP3    H141326   1.886   7.576   3.332
13795TIP3    H241327   2.020   7.644   3.317
13796TIP3   OH241328   0.706   5.405   3.619
13796TIP3    H141329   0.670   5.365   3.540
13796TIP3    H241330   0.798   5.380   3.619
13797TIP3   OH241331   1.422   2.069   6.732
13797TIP3    H141332   1.499   2.115   6.766
13797TIP3    H241333   1.390   2.018   6.806
13798TIP3   OH241334   5.746   3.106   2.983
13798TIP3    H141335   5.735   3.176   2.919
13798TIP3    H241336   5.768   3.151   3.064
13799TIP3   OH241337   7.906   1.320   2.367
13799TIP3    H141338   7.992   1.312   2.408
13799TIP3    H241339   7.904   1.250   2.302
13800TIP3   OH241340   7.373   5.898   5.233
13800TIP3    H141341   7.361   5.922   5.141
13800TIP3    H241342   7.284   5.901   5.270
13801TIP3   OH241343   0.323   3.762   1.902
13801TIP3    H141344   0.400   3.744   1.847
13801TIP3    H241345   0.360   3.797   1.983
13802TIP3   OH241346   6.042   3.589   5.158
13802TIP3    H141347   5.959   3.636   5.152
13802TIP3    H241348   6.033   3.517   5.096
13803TIP3   OH241349   4.088   2.040   0.763
13803TIP3    H141350   4.043   1.964   0.726
13803TIP3    H241351   4.168   2.005   0.801
13804TIP3   OH241352   3.546   3.349   2.891
13804TIP3    H141353   3.605   3.291   2.939
13804TIP3    H241354   3.469   3.356   2.948
13805TIP3   OH241355   6.585   3.978   1.507
13805TIP3    H141356   6.569   4.025   1.589
13805TIP3    H241357   6.605   3.888   1.534
13806TIP3   OH241358   4.484   3.512   4.248
13806TIP3    H141359   4.421   3.440   4.253
13806TIP3    H241360   4.559   3.475   4.202
13807TIP3   OH241361   2.980   4.016   5.050
13807TIP3    H141362   2.933   4.096   5.073
13807TIP3    H241363   2.923   3.972   4.986
13808TIP3   OH241364   0.515   4.296   1.672
13808TIP3    H141365   0.536   4.218   1.724
13808TIP3    H241366   0.430   4.323   1.705
13809TIP3   OH241367   4.786   3.961   3.478
13809TIP3    H141368   4.759   3.946   3.569
13809TIP3    H241369   4.704   3.973   3.430
13810TIP3   OH241370   6.737   5.267   0.683
13810TIP3    H141371   6.736   5.208   0.608
13810TIP3    H241372   6.662   5.326   0.668
13811TIP3   OH241373   7.166   0.101   2.431
13811TIP3    H141374   7.074   0.127   2.439
13811TIP3    H241375   7.163   0.010   2.403
13812TIP3   OH241376   0.874   1.456   1.953
13812TIP3    H141377   0.916   1.523   2.007
13812TIP3    H241378   0.851   1.501   1.872
13813TIP3   OH241379   0.079   6.161   6.382
13813TIP3    H141380   0.159   6.170   6.331
13813TIP3    H241381   0.040   6.079   6.350
13814TIP3   OH241382   5.433   5.604   3.034
13814TIP3    H141383   5.379   5.676   3.068
13814TIP3    H241384   5.428   5.536   3.102
13815TIP3   OH241385   4.954   4.941   3.083
13815TIP3    H141386   4.905   4.892   3.149
13815TIP3    H241387   4.903   5.021   3.070
13816TIP3   OH241388   7.223   6.453   5.841
13816TIP3    H141389   7.264   6.537   5.820
13816TIP3    H241390   7.191   6.419   5.757
13817TIP3   OH241391   3.240   2.483   1.847
13817TIP3    H141392   3.244   2.500   1.753
13817TIP3    H241393   3.152   2.447   1.861
13818TIP3   OH241394   7.086   1.233   6.603
13818TIP3    H141395   7.120   1.148   6.632
13818TIP3    H241396   7.074   1.282   6.684
13819TIP3   OH241397   0.118   5.741   4.009
13819TIP3    H141398   0.058   5.675   4.045
13819TIP3    H241399   0.100   5.741   3.915
13820TIP3   OH241400   1.639   5.169   6.209
13820TIP3    H141401   1.602   5.170   6.298
13820TIP3    H241402   1.721   5.121   6.218
13821TIP3   OH241403   5.020   7.438   3.512
13821TIP3    H141404   5.095   7.438   3.453
13821TIP3    H241405   4.963   7.368   3.480
13822TIP3   OH241406   7.718   4.630   0.944
13822TIP3    H141407   7.693   4.638   1.036
13822TIP3    H241408   7.643   4.665   0.895
13823TIP3   OH241409   2.887   3.071   0.802
13823TIP3    H141410   2.815   3.028   0.847
13823TIP3    H241411   2.923   3.003   0.745
13824TIP3   OH241412   7.375   1.597   3.262
13824TIP3    H141413   7.291   1.642   3.257
13824TIP3    H241414   7.440   1.663   3.236
13825TIP3   OH241415   2.695   7.739   3.119
13825TIP3    H141416   2.681   7.646   3.134
13825TIP3    H241417   2.623   7.783   3.165
13826TIP3   OH241418   7.783   5.845   3.310
13826TIP3    H141419   7.733   5.910   3.360
13826TIP3    H241420   7.874   5.874   3.318
13827TIP3   OH241421   0.045   4.373   3.838
13827TIP3    H141422  -0.046   4.385   3.868
13827TIP3    H241423   0.097   4.379   3.918
13828TIP3   OH241424   0.014   3.429   1.389
13828TIP3    H141425   0.059   3.359   1.436
13828TIP3    H241426   0.055   3.510   1.420
13829TIP3   OH241427   0.374   3.422   2.946
13829TIP3    H141428   0.429   3.500   2.938
13829TIP3    H241429   0.342   3.406   2.857
13830TIP3   OH241430   0.274   2.919   5.360
13830TIP3    H141431   0.358   2.951   5.327
13830TIP3    H241432   0.211   2.987   5.336
13831TIP3   OH241433   3.183   4.541   4.902
13831TIP3    H141434   3.143   4.519   4.986
13831TIP3    H241435   3.222   4.459   4.872
13832TIP3   OH241436   6.799   2.273   5.788
13832TIP3    H141437   6.735   2.324   5.838
13832TIP3    H241438   6.859   2.339   5.753
13833TIP3   OH241439   5.295   3.361   5.371
13833TIP3    H141440   5.266   3.275   5.403
13833TIP3    H241441   5.389   3.363   5.391
13834TIP3   OH241442   0.237   7.640   4.812
13834TIP3    H141443   0.226   7.642   4.717
13834TIP3    H241444   0.157   7.598   4.845
13835TIP3   OH241445   3.799   2.069   5.727
13835TIP3    H141446   3.705   2.058   5.739
13835TIP3    H241447   3.833   1.979   5.726
13836TIP3   OH241448   4.635   7.732   0.358
13836TIP3    H141449   4.729   7.743   0.348
13836TIP3    H241450   4.598   7.766   0.276
13837TIP3   OH241451   7.756   7.602   1.399
13837TIP3    H141452   7.715   7.687   1.385
13837TIP3    H241453   7.847   7.622   1.420
13838TIP3   OH241454   5.128   7.280   6.647
13838TIP3    H141455   5.041   7.240   6.646
13838TIP3    H241456   5.126   7.340   6.573
13839TIP3   OH241457   0.098   0.406   2.879
13839TIP3    H141458   0.171   0.462   2.853
13839TIP3    H241459   0.138   0.341   2.937
13840TIP3   OH241460   7.163   4.452   5.844
13840TIP3    H141461   7.256   4.451   5.866
13840TIP3    H241462   7.160   4.424   5.752
13841TIP3   OH241463   7.769   1.719   1.849
13841TIP3    H141464   7.707   1.785   1.817
13841TIP3    H241465   7.823   1.765   1.913
13842TIP3   OH241466   0.298   3.515   6.294
13842TIP3    H141467   0.242   3.471   6.229
13842TIP3    H241468   0.380   3.532   6.248
13843TIP3   OH241469   0.701   5.154   1.890
13843TIP3    H141470   0.655   5.119   1.966
13843TIP3    H241471   0.752   5.227   1.925
13844TIP3   OH241472   6.454   0.925   2.857
13844TIP3    H141473   6.359   0.932   2.866
13844TIP3    H241474   6.470   0.923   2.763
13845TIP3   OH241475   7.439   4.982   1.009
13845TIP3    H141476   7.519   4.998   1.060
13845TIP3    H241477   7.437   5.053   0.945
13846TIP3   OH241478   1.317   4.847   0.938
13846TIP3    H141479   1.382   4.914   0.961
13846TIP3    H241480   1.313   4.791   1.015
13847TIP3   OH241481   7.272   6.910   0.095
13847TIP3    H141482   7.190   6.881   0.135
13847TIP3    H241483   7.289   6.996   0.132
13848TIP3   OH241484   7.234   0.347   3.035
13848TIP3    H141485   7.231   0.278   2.968
13848TIP3    H241486   7.215   0.428   2.988
13849TIP3   OH241487   6.512   7.850   3.677
13849TIP3    H141488   6.428   7.878   3.714
13849TIP3    H241489   6.562   7.930   3.666
13850TIP3   OH241490   0.686   1.510   3.665
13850TIP3    H141491   0.687   1.516   3.760
13850TIP3    H241492   0.664   1.598   3.635
13851TIP3   OH241493   5.439   1.993   5.481
13851TIP3    H141494   5.522   2.039   5.490
13851TIP3    H241495   5.396   2.036   5.407
13852TIP3   OH241496   1.027   1.728   5.714
13852TIP3    H141497   1.122   1.729   5.720
13852TIP3    H241498   1.001   1.648   5.761
13853TIP3   OH241499   0.904   1.731   5.003
13853TIP3    H141500   0.939   1.810   4.961
13853TIP3    H241501   0.849   1.763   5.074
13854TIP3   OH241502   3.109   5.882   5.190
13854TIP3    H141503   3.041   5.906   5.253
13854TIP3    H241504   3.182   5.940   5.211
13855TIP3   OH241505   5.225   3.960   2.855
13855TIP3    H141506   5.293   3.916   2.805
13855TIP3    H241507   5.187   4.024   2.795
13856TIP3   OH241508   4.150   6.656   1.335
13856TIP3    H141509   4.114   6.683   1.420
13856TIP3    H241510   4.075   6.654   1.277
13857TIP3   OH241511   0.267   1.729   0.725
13857TIP3    H141512   0.350   1.721   0.771
13857TIP3    H241513   0.211   1.662   0.765
13858TIP3   OH241514   4.399   4.479   0.660
13858TIP3    H141515   4.481   4.526   0.678
13858TIP3    H241516   4.336   4.518   0.719
13859TIP3   OH241517   1.013   1.184   6.498
13859TIP3    H141518   1.099   1.166   6.537
13859TIP3    H241519   1.002   1.115   6.432
13860TIP3   OH241520   1.604   5.361   3.525
13860TIP3    H141521   1.653   5.352   3.443
13860TIP3    H241522   1.539   5.429   3.506
13861TIP3   OH241523   6.410   6.177   2.513
13861TIP3    H141524   6.459   6.132   2.582
13861TIP3    H241525   6.475   6.194   2.445
13862TIP3   OH241526   0.803   0.798   2.113
13862TIP3    H141527   0.885   0.846   2.100
13862TIP3    H241528   0.739   0.866   2.136
13863TIP3   OH241529   7.614   0.787   4.378
13863TIP3    H141530   7.597   0.808   4.470
13863TIP3    H241531   7.611   0.691   4.374
13864TIP3   OH241532   6.092   5.274   0.417
13864TIP3    H141533   6.117   5.342   0.354
13864TIP3    H241534   6.175   5.231   0.439
13865TIP3   OH241535   0.547   2.722   4.949
13865TIP3    H141536   0.597   2.654   4.906
13865TIP3    H241537   0.594   2.741   5.030
13866TIP3   OH241538   7.951   4.106   3.005
13866TIP3    H141539   7.991   4.166   3.069
13866TIP3    H241540   7.885   4.059   3.055
13867TIP3   OH241541   1.142   2.830   1.031
13867TIP3    H141542   1.190   2.767   0.977
13867TIP3    H241543   1.116   2.899   0.970
13868TIP3   OH241544   6.515   4.254   5.274
13868TIP3    H141545   6.556   4.168   5.279
13868TIP3    H241546   6.442   4.243   5.213
13869TIP3   OH241547   2.024   5.638   3.812
13869TIP3    H141548   2.089   5.635   3.741
13869TIP3    H241549   2.037   5.557   3.860
13870TIP3   OH241550   3.351   0.165   2.835
13870TIP3    H141551   3.281   0.182   2.772
13870TIP3    H241552   3.322   0.206   2.916
13871TIP3   OH241553   5.169   4.812   1.573
13871TIP3    H141554   5.261   4.811   1.549
13871TIP3    H241555   5.139   4.722   1.557
13872TIP3   OH241556   3.364   7.030   6.225
13872TIP3    H141557   3.398   6.951   6.268
13872TIP3    H241558   3.442   7.081   6.204
13873TIP3   OH241559   5.020   4.591   2.401
13873TIP3    H141560   4.977   4.543   2.330
13873TIP3    H241561   4.998   4.542   2.480
13874TIP3   OH241562   5.441   3.957   3.306
13874TIP3    H141563   5.351   3.985   3.319
13874TIP3    H241564   5.472   3.933   3.393
13875TIP3   OH241565   0.723   7.584   6.526
13875TIP3    H141566   0.807   7.631   6.526
13875TIP3    H241567   0.669   7.631   6.463
13876TIP3   OH241568   0.366   6.164   1.546
13876TIP3    H141569   0.343   6.253   1.518
13876TIP3    H241570   0.451   6.148   1.505
13877TIP3   OH241571   6.018   2.913   4.486
13877TIP3    H141572   5.928   2.891   4.511
13877TIP3    H241573   6.033   2.862   4.407
13878TIP3   OH241574   2.328   4.779   3.209
13878TIP3    H141575   2.329   4.807   3.300
13878TIP3    H241576   2.360   4.855   3.159
13879TIP3   OH241577   4.118   2.595   6.576
13879TIP3    H141578   4.022   2.592   6.577
13879TIP3    H241579   4.140   2.666   6.636
13880TIP3   OH241580   0.259   0.786   3.877
13880TIP3    H141581   0.226   0.873   3.897
13880TIP3    H241582   0.233   0.732   3.951
13881TIP3   OH241583   3.109   4.583   1.241
13881TIP3    H141584   3.141   4.656   1.189
13881TIP3    H241585   3.180   4.519   1.239
13882TIP3   OH241586   2.012   5.931   2.447
13882TIP3    H141587   1.966   5.858   2.487
13882TIP3    H241588   2.103   5.903   2.443
13883TIP3   OH241589   1.839   4.340   1.227
13883TIP3    H141590   1.894   4.366   1.152
13883TIP3    H241591   1.794   4.261   1.197
13884TIP3   OH241592  -0.014  -0.004   0.748
13884TIP3    H141593   0.049   0.050   0.796
13884TIP3    H241594   0.009   0.009   0.656
13885TIP3   OH241595   8.034   2.385   2.263
13885TIP3    H141596   8.092   2.404   2.190
13885TIP3    H241597   8.057   2.449   2.330
13886TIP3   OH241598   1.606   4.060   3.421
13886TIP3    H141599   1.663   4.085   3.348
13886TIP3    H241600   1.666   4.036   3.491
13887TIP3   OH241601   1.870   4.016   2.742
13887TIP3    H141602   1.960   4.047   2.731
13887TIP3    H241603   1.873   3.964   2.822
13888TIP3   OH241604   6.534   6.683   4.945
13888TIP3    H141605   6.533   6.592   4.975
13888TIP3    H241606   6.548   6.735   5.024
13889TIP3   OH241607   6.449   4.042   0.803
13889TIP3    H141608   6.482   3.985   0.873
13889TIP3    H241609   6.354   4.038   0.811
13890TIP3   OH241610   7.746   6.849   3.940
13890TIP3    H141611   7.759   6.783   4.009
13890TIP3    H241612   7.832   6.889   3.928
13891TIP3   OH241613   7.329   5.274   4.043
13891TIP3    H141614   7.397   5.335   4.070
13891TIP3    H241615   7.334   5.273   3.948
13892TIP3   OH241616   5.447   7.237   0.107
13892TIP3    H141617   5.529   7.249   0.059
13892TIP3    H241618   5.448   7.145   0.133
13893TIP3   OH241619   5.264   4.288   1.990
13893TIP3    H141620   5.209   4.221   1.950
13893TIP3    H241621   5.305   4.333   1.916
13894TIP3   OH241622   2.341   7.223   5.603
13894TIP3    H141623   2.329   7.314   5.577
13894TIP3    H241624   2.371   7.228   5.694
13895TIP3   OH241625   6.953   6.307   1.188
13895TIP3    H141626   7.007   6.267   1.120
13895TIP3    H241627   6.950   6.399   1.165
13896TIP3   OH241628   7.978   7.082   0.218
13896TIP3    H141629   7.888   7.117   0.216
13896TIP3    H241630   7.996   7.056   0.128
13897TIP3   OH241631   2.855   1.491   5.049
13897TIP3    H141632   2.825   1.403   5.026
13897TIP3    H241633   2.931   1.477   5.106
13898TIP3   OH241634   1.009   3.264   2.458
13898TIP3    H141635   1.044   3.332   2.515
13898TIP3    H241636   1.021   3.182   2.506
13899TIP3   OH241637   3.771   2.739   2.150
13899TIP3    H141638   3.852   2.727   2.200
13899TIP3    H241639   3.710   2.676   2.188
13900TIP3   OH241640   0.594   0.980   1.192
13900TIP3    H141641   0.527   1.005   1.257
13900TIP3    H241642   0.544   0.960   1.113
13901TIP3   OH241643   3.946   7.307   0.460
13901TIP3    H141644   4.031   7.306   0.504
13901TIP3    H241645   3.962   7.354   0.378
13902TIP3   OH241646   0.652   2.066   1.835
13902TIP3    H141647   0.692   2.002   1.775
13902TIP3    H241648   0.576   2.099   1.787
13903TIP3   OH241649   1.135   3.915   1.963
13903TIP3    H141650   1.128   3.823   1.990
13903TIP3    H241651   1.187   3.912   1.882
13904TIP3   OH241652   3.097   4.814   6.706
13904TIP3    H141653   3.140   4.840   6.787
13904TIP3    H241654   3.153   4.850   6.637
13905TIP3   OH241655   3.281   7.689   1.764
13905TIP3    H141656   3.293   7.769   1.712
13905TIP3    H241657   3.330   7.706   1.845
13906TIP3   OH241658   0.865   0.619   3.186
13906TIP3    H141659   0.928   0.547   3.190
13906TIP3    H241660   0.842   0.625   3.093
13907TIP3   OH241661   8.356   5.403   2.698
13907TIP3    H141662   8.318   5.363   2.776
13907TIP3    H241663   8.325   5.494   2.700
13908TIP3   OH241664   1.607   7.544   5.540
13908TIP3    H141665   1.631   7.452   5.529
13908TIP3    H241666   1.572   7.549   5.629
13909TIP3   OH241667   5.051   1.412   2.814
13909TIP3    H141668   5.010   1.326   2.805
13909TIP3    H241669   5.133   1.404   2.765
13910TIP3   OH241670   3.081   2.098   6.079
13910TIP3    H141671   3.112   2.142   6.158
13910TIP3    H241672   3.084   2.005   6.101
13911TIP3   OH241673   4.073   5.870   0.774
13911TIP3    H141674   4.118   5.825   0.845
13911TIP3    H241675   3.983   5.879   0.804
13912TIP3   OH241676   0.886   6.734   5.855
13912TIP3    H141677   0.852   6.678   5.924
13912TIP3    H241678   0.890   6.821   5.895
13913TIP3   OH241679   6.851   4.036   0.986
13913TIP3    H141680   6.797   4.059   1.062
13913TIP3    H241681   6.865   4.120   0.941
13914TIP3   OH241682   6.522   3.964   6.007
13914TIP3    H141683   6.608   4.002   5.990
13914TIP3    H241684   6.538   3.898   6.074
13915TIP3   OH241685   2.226   1.049   4.113
13915TIP3    H141686   2.257   0.995   4.040
13915TIP3    H241687   2.194   1.129   4.071
13916TIP3   OH241688   1.419   6.917   3.865
13916TIP3    H141689   1.470   6.934   3.785
13916TIP3    H241690   1.333   6.957   3.847
13917TIP3   OH241691   1.984   4.029   4.925
13917TIP3    H141692   1.916   3.984   4.875
13917TIP3    H241693   1.968   4.002   5.016
13918TIP3   OH241694   6.423   7.340   3.757
13918TIP3    H141695   6.444   7.266   3.700
13918TIP3    H241696   6.381   7.302   3.833
13919TIP3   OH241697   1.565   1.852   0.640
13919TIP3    H141698   1.638   1.795   0.618
13919TIP3    H241699   1.523   1.810   0.716
13920TIP3   OH241700   4.845   7.242   0.822
13920TIP3    H141701   4.900   7.315   0.851
13920TIP3    H241702   4.905   7.167   0.816
13921TIP3   OH241703   5.124   6.903   5.881
13921TIP3    H141704   5.083   6.851   5.812
13921TIP3    H241705   5.095   6.993   5.864
13922TIP3   OH241706   1.513   1.947   2.006
13922TIP3    H141707   1.604   1.968   1.984
13922TIP3    H241708   1.477   1.910   1.926
13923TIP3   OH241709   2.437   3.921   4.773
13923TIP3    H141710   2.483   3.929   4.690
13923TIP3    H241711   2.473   3.991   4.828
13924TIP3   OH241712   3.400   2.339   6.157
13924TIP3    H141713   3.457   2.413   6.177
13924TIP3    H241714   3.388   2.343   6.062
13925TIP3   OH241715   7.477   5.016   0.701
13925TIP3    H141716   7.561   5.011   0.747
13925TIP3    H241717   7.446   4.926   0.696
13926TIP3   OH241718   4.605   2.983   5.123
13926TIP3    H141719   4.580   2.939   5.041
13926TIP3    H241720   4.526   3.028   5.151
13927TIP3   OH241721   4.306   7.763   3.324
13927TIP3    H141722   4.390   7.800   3.350
13927TIP3    H241723   4.256   7.838   3.291
13928TIP3   OH241724   5.855   1.022   3.176
13928TIP3    H141725   5.810   1.104   3.156
13928TIP3    H241726   5.899   1.038   3.259
13929TIP3   OH241727   2.701   0.722   2.440
13929TIP3    H141728   2.726   0.631   2.458
13929TIP3    H241729   2.692   0.726   2.345
13930TIP3   OH241730   6.861   5.725   1.011
13930TIP3    H141731   6.912   5.754   1.086
13930TIP3    H241732   6.788   5.675   1.049
13931TIP3   OH241733   6.471   0.644   3.472
13931TIP3    H141734   6.546   0.691   3.508
13931TIP3    H241735   6.472   0.665   3.379
13932TIP3   OH241736   3.953   7.404   4.967
13932TIP3    H141737   4.039   7.412   4.926
13932TIP3    H241738   3.966   7.341   5.038
13933TIP3   OH241739   5.607   4.357   3.997
13933TIP3    H141740   5.599   4.431   4.056
13933TIP3    H241741   5.701   4.350   3.980
13934TIP3   OH241742   2.192   6.451   4.977
13934TIP3    H141743   2.129   6.515   5.011
13934TIP3    H241744   2.187   6.462   4.882
13935TIP3   OH241745   4.697   7.172   3.886
13935TIP3    H141746   4.637   7.103   3.912
13935TIP3    H241747   4.645   7.252   3.889
13936TIP3   OH241748   7.257   0.815   6.814
13936TIP3    H141749   7.245   0.877   6.886
13936TIP3    H241750   7.176   0.820   6.763
13937TIP3   OH241751   7.607   5.107   3.462
13937TIP3    H141752   7.613   5.167   3.537
13937TIP3    H241753   7.518   5.072   3.467
13938TIP3   OH241754   1.565   2.362   1.821
13938TIP3    H141755   1.489   2.304   1.832
13938TIP3    H241756   1.604   2.367   1.908
13939TIP3   OH241757   7.992   1.320   0.340
13939TIP3    H141758   8.005   1.407   0.379
13939TIP3    H241759   7.945   1.271   0.407
13940TIP3   OH241760   8.263   0.679   3.687
13940TIP3    H141761   8.308   0.609   3.640
13940TIP3    H241762   8.244   0.745   3.620
13941TIP3   OH241763   6.119   4.949   1.245
13941TIP3    H141764   6.049   4.910   1.297
13941TIP3    H241765   6.091   4.940   1.154
13942TIP3   OH241766   6.553   6.724   3.292
13942TIP3    H141767   6.522   6.731   3.383
13942TIP3    H241768   6.478   6.753   3.240
13943TIP3   OH241769   7.961   1.108   2.205
13943TIP3    H141770   8.043   1.060   2.200
13943TIP3    H241771   7.971   1.180   2.143
13944TIP3   OH241772   1.376   2.976   0.436
13944TIP3    H141773   1.419   2.916   0.375
13944TIP3    H241774   1.357   3.054   0.383
13945TIP3   OH241775   5.005   4.895   0.825
13945TIP3    H141776   5.057   4.852   0.757
13945TIP3    H241777   5.063   4.962   0.861
13946TIP3   OH241778   5.747   0.733   5.041
13946TIP3    H141779   5.684   0.766   5.105
13946TIP3    H241780   5.786   0.656   5.083
13947TIP3   OH241781   2.584   2.546   6.267
13947TIP3    H141782   2.670   2.587   6.259
13947TIP3    H241783   2.598   2.455   6.239
13948TIP3   OH241784   4.348   3.772   0.244
13948TIP3    H141785   4.321   3.844   0.188
13948TIP3    H241786   4.443   3.774   0.243
13949TIP3   OH241787   0.136   4.244   3.289
13949TIP3    H141788   0.218   4.277   3.327
13949TIP3    H241789   0.164   4.181   3.223
13950TIP3   OH241790   5.702   5.041   5.592
13950TIP3    H141791   5.754   5.033   5.672
13950TIP3    H241792   5.650   5.121   5.605
13951TIP3   OH241793   5.885   1.739   1.152
13951TIP3    H141794   5.958   1.785   1.111
13951TIP3    H241795   5.822   1.808   1.173
13952TIP3   OH241796   3.571   1.780   3.349
13952TIP3    H141797   3.584   1.867   3.385
13952TIP3    H241798   3.484   1.753   3.380
13953TIP3   OH241799   7.871   1.320   5.217
13953TIP3    H141800   7.870   1.256   5.288
13953TIP3    H241801   7.957   1.361   5.223
13954TIP3   OH241802   0.863   7.660   1.114
13954TIP3    H141803   0.897   7.599   1.049
13954TIP3    H241804   0.930   7.729   1.119
13955TIP3   OH241805   6.253   2.704   3.595
13955TIP3    H141806   6.261   2.635   3.530
13955TIP3    H241807   6.266   2.785   3.545
13956TIP3   OH241808   2.859   5.616   0.855
13956TIP3    H141809   2.782   5.560   0.846
13956TIP3    H241810   2.916   5.589   0.783
13957TIP3   OH241811   7.955   2.397   2.779
13957TIP3    H141812   8.015   2.458   2.822
13957TIP3    H241813   7.948   2.431   2.689
13958TIP3   OH241814   4.853   2.758   6.726
13958TIP3    H141815   4.800   2.756   6.806
13958TIP3    H241816   4.940   2.728   6.754
13959TIP3   OH241817   6.864   2.450   4.607
13959TIP3    H141818   6.868   2.354   4.607
13959TIP3    H241819   6.943   2.478   4.561
13960TIP3   OH241820   8.220   2.843   4.867
13960TIP3    H141821   8.293   2.880   4.917
13960TIP3    H241822   8.185   2.917   4.818
13961TIP3   OH241823   7.850   3.261   3.619
13961TIP3    H141824   7.781   3.225   3.562
13961TIP3    H241825   7.863   3.350   3.586
13962TIP3   OH241826   1.062   4.927   2.379
13962TIP3    H141827   0.975   4.957   2.406
13962TIP3    H241828   1.049   4.896   2.289
13963TIP3   OH241829   5.006   0.461   3.308
13963TIP3    H141830   4.981   0.541   3.262
13963TIP3    H241831   4.969   0.471   3.396
13964TIP3   OH241832   0.498   6.689   4.207
13964TIP3    H141833   0.587   6.724   4.215
13964TIP3    H241834   0.495   6.618   4.271
13965TIP3   OH241835   0.342   2.918   1.483
13965TIP3    H141836   0.357   3.012   1.472
13965TIP3    H241837   0.363   2.901   1.575
13966TIP3   OH241838   2.472   2.877   2.211
13966TIP3    H141839   2.457   2.816   2.139
13966TIP3    H241840   2.552   2.846   2.253
13967TIP3   OH241841   1.697   7.022   6.173
13967TIP3    H141842   1.706   6.975   6.256
13967TIP3    H241843   1.613   6.991   6.138
13968TIP3   OH241844   1.479   2.957   0.012
13968TIP3    H141845   1.472   3.048   0.042
13968TIP3    H241846   1.467   2.904   0.091
13969TIP3   OH241847   0.448   5.289   2.439
13969TIP3    H141848   0.453   5.279   2.534
13969TIP3    H241849   0.366   5.335   2.424
13970TIP3   OH241850   0.498   1.048   3.061
13970TIP3    H141851   0.502   0.966   3.111
13970TIP3    H241852   0.589   1.072   3.045
13971TIP3   OH241853   6.440   2.315   1.235
13971TIP3    H141854   6.533   2.292   1.236
13971TIP3    H241855   6.419   2.331   1.326
13972TIP3   OH241856   0.328   2.365   4.471
13972TIP3    H141857   0.395   2.319   4.521
13972TIP3    H241858   0.372   2.443   4.438
13973TIP3   OH241859   0.760   6.793   3.025
13973TIP3    H141860   0.792   6.776   2.937
13973TIP3    H241861   0.669   6.764   3.024
13974TIP3   OH241862   6.290   6.461   0.931
13974TIP3    H141863   6.377   6.459   0.970
13974TIP3    H241864   6.246   6.384   0.966
13975TIP3   OH241865   1.795   2.863   1.834
13975TIP3    H141866   1.821   2.822   1.917
13975TIP3    H241867   1.752   2.944   1.860
13976TIP3   OH241868   4.033   7.210   4.502
13976TIP3    H141869   4.030   7.146   4.573
13976TIP3    H241870   3.941   7.226   4.480
13977TIP3   OH241871   3.307   2.103   4.731
13977TIP3    H141872   3.359   2.138   4.659
13977TIP3    H241873   3.303   2.009   4.715
13978TIP3   OH241874   7.391   3.179   5.758
13978TIP3    H141875   7.464   3.236   5.733
13978TIP3    H241876   7.434   3.099   5.789
13979TIP3   OH241877   4.124   1.742   5.135
13979TIP3    H141878   4.085   1.711   5.217
13979TIP3    H241879   4.082   1.826   5.119
13980TIP3   OH241880   2.545   5.869   2.747
13980TIP3    H141881   2.624   5.923   2.743
13980TIP3    H241882   2.497   5.903   2.823
13981TIP3   OH241883   5.510   1.436   2.790
13981TIP3    H141884   5.424   1.408   2.759
13981TIP3    H241885   5.525   1.520   2.748
13982TIP3   OH241886   5.959   7.271   2.752
13982TIP3    H141887   5.954   7.364   2.776
13982TIP3    H241888   6.053   7.254   2.744
13983TIP3   OH241889   2.899   1.039   0.429
13983TIP3    H141890   2.902   1.116   0.371
13983TIP3    H241891   2.813   1.001   0.412
13984TIP3   OH241892   3.717   4.133   2.627
13984TIP3    H141893   3.653   4.172   2.686
13984TIP3    H241894   3.788   4.197   2.624
13985TIP3   OH241895   3.253   2.526   2.518
13985TIP3    H141896   3.343   2.511   2.490
13985TIP3    H241897   3.230   2.610   2.477
13986TIP3   OH241898   3.279   5.409   2.391
13986TIP3    H141899   3.368   5.376   2.402
13986TIP3    H241900   3.255   5.442   2.478
13987TIP3   OH241901   7.412   6.274   3.495
13987TIP3    H141902   7.449   6.215   3.561
13987TIP3    H241903   7.336   6.313   3.538
13988TIP3   OH241904   0.513   7.314   6.356
13988TIP3    H141905   0.504   7.223   6.383
13988TIP3    H241906   0.437   7.359   6.394
13989TIP3   OH241907   1.170   4.119   1.101
13989TIP3    H141908   1.099   4.138   1.161
13989TIP3    H241909   1.226   4.057   1.147
13990TIP3   OH241910   6.727   1.012   3.941
13990TIP3    H141911   6.694   0.924   3.960
13990TIP3    H241912   6.722   1.058   4.025
13991TIP3   OH241913   5.870   6.199   5.777
13991TIP3    H141914   5.933   6.129   5.792
13991TIP3    H241915   5.804   6.188   5.846
13992TIP3   OH241916   3.942   4.683   6.804
13992TIP3    H141917   3.973   4.602   6.764
13992TIP3    H241918   4.017   4.743   6.799
13993TIP3   OH241919   4.485   7.853   0.551
13993TIP3    H141920   4.523   7.941   0.552
13993TIP3    H241921   4.549   7.800   0.504
13994TIP3   OH241922   0.541   0.490   3.684
13994TIP3    H141923   0.598   0.502   3.609
13994TIP3    H241924   0.519   0.397   3.683
13995TIP3   OH241925   5.117   5.447   1.987
13995TIP3    H141926   5.177   5.516   1.959
13995TIP3    H241927   5.083   5.410   1.905
13996TIP3   OH241928   0.455   0.277   3.982
13996TIP3    H141929   0.509   0.354   3.963
13996TIP3    H241930   0.491   0.243   4.065
13997TIP3   OH241931   7.505   6.846   5.735
13997TIP3    H141932   7.427   6.792   5.747
13997TIP3    H241933   7.475   6.936   5.751
13998TIP3   OH241934   5.329   4.496   1.167
13998TIP3    H141935   5.369   4.414   1.197
13998TIP3    H241936   5.236   4.475   1.158
13999TIP3   OH241937   5.046   2.357   2.853
13999TIP3    H141938   4.986   2.299   2.805
13999TIP3    H241939   5.017   2.352   2.944
14000TIP3   OH241940   7.380   5.348   1.245
14000TIP3    H141941   7.359   5.401   1.322
14000TIP3    H241942   7.445   5.399   1.197
14001TIP3   OH241943   0.736   3.408   6.285
14001TIP3    H141944   0.731   3.320   6.248
14001TIP3    H241945   0.649   3.445   6.270
14002TIP3   OH241946   7.991   5.446   1.792
14002TIP3    H141947   7.927   5.376   1.780
14002TIP3    H241948   7.973   5.481   1.879
14003TIP3   OH241949   0.184   3.906   1.149
14003TIP3    H141950   0.104   3.956   1.133
14003TIP3    H241951   0.163   3.817   1.121
14004TIP3   OH241952   5.215   0.760   3.411
14004TIP3    H141953   5.221   0.713   3.328
14004TIP3    H241954   5.298   0.742   3.455
14005TIP3   OH241955   7.315   1.264   6.395
14005TIP3    H141956   7.311   1.321   6.472
14005TIP3    H241957   7.229   1.223   6.391
14006TIP3   OH241958   0.897   6.995   5.964
14006TIP3    H141959   0.850   7.067   5.921
14006TIP3    H241960   0.958   7.038   6.023
14007TIP3   OH241961   2.601   0.875   2.697
14007TIP3    H141962   2.645   0.832   2.623
14007TIP3    H241963   2.671   0.896   2.758
14008TIP3   OH241964   2.200   0.178   3.532
14008TIP3    H141965   2.149   0.107   3.493
14008TIP3    H241966   2.156   0.195   3.616
14009TIP3   OH241967   1.231   5.846   4.217
14009TIP3    H141968   1.231   5.926   4.164
14009TIP3    H241969   1.291   5.866   4.289
14010TIP3   OH241970   3.882   5.722   3.799
14010TIP3    H141971   3.926   5.806   3.793
14010TIP3    H241972   3.896   5.693   3.889
14011TIP3   OH241973   1.078   2.114   4.429
14011TIP3    H141974   1.073   2.018   4.424
14011TIP3    H241975   0.986   2.142   4.429
14012TIP3   OH241976   7.167   7.775   3.767
14012TIP3    H141977   7.072   7.767   3.765
14012TIP3    H241978   7.197   7.737   3.684
14013TIP3   OH241979   1.880   5.828   4.503
14013TIP3    H141980   1.950   5.875   4.549
14013TIP3    H241981   1.820   5.802   4.572
14014TIP3   OH241982   1.174   2.413   3.147
14014TIP3    H141983   1.179   2.324   3.181
14014TIP3    H241984   1.165   2.468   3.225
14015TIP3   OH241985   4.241   2.358   6.535
14015TIP3    H141986   4.216   2.448   6.557
14015TIP3    H241987   4.159   2.309   6.538
14016TIP3   OH241988   2.735   1.908   6.515
14016TIP3    H141989   2.749   1.893   6.422
14016TIP3    H241990   2.818   1.942   6.547
14017TIP3   OH241991   2.791   0.454   2.514
14017TIP3    H141992   2.770   0.429   2.604
14017TIP3    H241993   2.815   0.372   2.471
14018TIP3   OH241994   7.859   1.429   0.833
14018TIP3    H141995   7.794   1.395   0.771
14018TIP3    H241996   7.886   1.513   0.796
14019TIP3   OH241997   5.887   7.304   6.213
14019TIP3    H141998   5.801   7.268   6.235
14019TIP3    H241999   5.902   7.373   6.278
14020TIP3   OH242000   6.836   0.631   2.280
14020TIP3    H142001   6.848   0.545   2.321
14020TIP3    H242002   6.874   0.692   2.343
14021TIP3   OH242003   3.105   7.456   1.692
14021TIP3    H142004   3.178   7.518   1.699
14021TIP3    H242005   3.107   7.407   1.774
14022TIP3   OH242006   5.640   1.232   0.786
14022TIP3    H142007   5.641   1.284   0.705
14022TIP3    H242008   5.557   1.185   0.783
14023TIP3   OH242009   5.425   1.330   5.811
14023TIP3    H142010   5.336   1.329   5.776
14023TIP3    H242011   5.477   1.280   5.747
14024TIP3   OH242012   6.878   4.858   6.078
14024TIP3    H142013   6.790   4.840   6.112
14024TIP3    H242014   6.862   4.896   5.992
14025TIP3   OH242015   1.073   5.834   1.754
14025TIP3    H142016   1.016   5.763   1.727
14025TIP3    H242017   1.049   5.851   1.845
14026TIP3   OH242018   8.377   0.997   6.859
14026TIP3    H142019   8.312   1.035   6.918
14026TIP3    H242020   8.389   0.908   6.890
14027TIP3   OH242021   7.428   6.454   1.768
14027TIP3    H142022   7.467   6.422   1.687
14027TIP3    H242023   7.364   6.519   1.741
14028TIP3   OH242024   0.226   3.878   1.466
14028TIP3    H142025   0.288   3.861   1.394
14028TIP3    H242026   0.270   3.942   1.521
14029TIP3   OH242027   1.571   3.595   6.001
14029TIP3    H142028   1.639   3.542   5.958
14029TIP3    H242029   1.502   3.603   5.935
14030TIP3   OH242030   7.030   7.767   3.143
14030TIP3    H142031   7.068   7.680   3.132
14030TIP3    H242032   7.057   7.794   3.231
14031TIP3   OH242033   5.603   6.401   1.737
14031TIP3    H142034   5.526   6.358   1.701
14031TIP3    H242035   5.649   6.332   1.784
14032TIP3   OH242036   7.848   7.394   5.909
14032TIP3    H142037   7.842   7.421   6.001
14032TIP3    H242038   7.917   7.327   5.908
14033TIP3   OH242039   2.471   0.451   4.531
14033TIP3    H142040   2.422   0.459   4.613
14033TIP3    H242041   2.407   0.420   4.468
14034TIP3   OH242042   1.341   7.092   5.333
14034TIP3    H142043   1.286   7.082   5.255
14034TIP3    H242044   1.291   7.150   5.390
14035TIP3   OH242045   5.652   5.210   3.527
14035TIP3    H142046   5.601   5.226   3.606
14035TIP3    H242047   5.609   5.264   3.460
14036TIP3   OH242048   1.852   0.283   3.960
14036TIP3    H142049   1.832   0.207   4.015
14036TIP3    H242050   1.921   0.330   4.007
14037TIP3   OH242051   5.103   5.955   4.071
14037TIP3    H142052   5.136   6.037   4.036
14037TIP3    H242053   5.012   5.951   4.043
14038TIP3   OH242054   0.244   1.500   2.891
14038TIP3    H142055   0.258   1.408   2.869
14038TIP3    H242056   0.306   1.517   2.962
14039TIP3   OH242057   4.469   3.179   0.991
14039TIP3    H142058   4.383   3.155   0.956
14039TIP3    H242059   4.507   3.235   0.924
14040TIP3   OH242060   5.228   2.776   3.561
14040TIP3    H142061   5.287   2.726   3.618
14040TIP3    H242062   5.176   2.710   3.516
14041TIP3   OH242063   5.188   5.098   3.529
14041TIP3    H142064   5.124   5.165   3.552
14041TIP3    H242065   5.248   5.094   3.604
14042TIP3   OH242066   8.093   2.523   0.222
14042TIP3    H142067   8.113   2.601   0.171
14042TIP3    H242068   8.056   2.557   0.304
14043TIP3   OH242069   7.369   3.568   3.632
14043TIP3    H142070   7.381   3.603   3.544
14043TIP3    H242071   7.448   3.518   3.649
14044TIP3   OH242072   0.529   3.710   6.284
14044TIP3    H142073   0.461   3.726   6.350
14044TIP3    H242074   0.611   3.729   6.329
14045TIP3   OH242075   3.759   6.826   3.180
14045TIP3    H142076   3.774   6.736   3.149
14045TIP3    H242077   3.719   6.815   3.266
14046TIP3   OH242078   8.351   0.970   1.538
14046TIP3    H142079   8.284   1.013   1.485
14046TIP3    H242080   8.379   0.895   1.485
14047TIP3   OH242081   2.717   7.318   6.659
14047TIP3    H142082   2.683   7.302   6.747
14047TIP3    H242083   2.669   7.257   6.603
14048TIP3   OH242084   3.956   6.912   0.774
14048TIP3    H142085   3.950   6.941   0.683
14048TIP3    H242086   3.982   6.990   0.823
14049TIP3   OH242087   4.560   0.141   3.634
14049TIP3    H142088   4.610   0.182   3.565
14049TIP3    H242089   4.507   0.074   3.590
14050TIP3   OH242090   2.855   0.431   5.458
14050TIP3    H142091   2.882   0.498   5.521
14050TIP3    H242092   2.790   0.475   5.403
14051TIP3   OH242093   1.364   2.965   1.631
14051TIP3    H142094   1.416   2.914   1.569
14051TIP3    H242095   1.321   3.032   1.577
14052TIP3   OH242096   6.298   1.597   3.701
14052TIP3    H142097   6.302   1.693   3.704
14052TIP3    H242098   6.387   1.568   3.722
14053TIP3   OH242099   6.414   4.923   0.574
14053TIP3    H142100   6.455   5.007   0.598
14053TIP3    H242101   6.330   4.924   0.619
14054TIP3   OH242102   0.397   7.408   2.764
14054TIP3    H142103   0.313   7.362   2.754
14054TIP3    H242104   0.444   7.359   2.831
14055TIP3   OH242105   7.031   4.008   0.319
14055TIP3    H142106   6.957   3.953   0.294
14055TIP3    H242107   7.037   4.073   0.249
14056TIP3   OH242108   6.183   7.172   4.558
14056TIP3    H142109   6.127   7.176   4.635
14056TIP3    H242110   6.205   7.263   4.539
14057TIP3   OH242111   2.745   3.855   4.240
14057TIP3    H142112   2.821   3.908   4.262
14057TIP3    H242113   2.780   3.769   4.220
14058TIP3   OH242114   5.372   6.405   4.379
14058TIP3    H142115   5.445   6.390   4.318
14058TIP3    H242116   5.379   6.498   4.401
14059TIP3   OH242117   7.715   0.044   5.003
14059TIP3    H142118   7.788   0.000   5.046
14059TIP3    H242119   7.720   0.134   5.034
14060TIP3   OH242120   6.719   7.330   4.083
14060TIP3    H142121   6.780   7.288   4.022
14060TIP3    H242122   6.771   7.347   4.161
14061TIP3   OH242123   6.146   3.906   4.490
14061TIP3    H142124   6.188   3.963   4.425
14061TIP3    H242125   6.197   3.825   4.486
14062TIP3   OH242126   6.912   7.631   1.040
14062TIP3    H142127   6.967   7.691   1.091
14062TIP3    H242128   6.931   7.653   0.948
14063TIP3   OH242129   3.237   7.745   0.687
14063TIP3    H142130   3.258   7.715   0.776
14063TIP3    H242131   3.165   7.689   0.659
14064TIP3   OH242132   5.987   6.778   4.255
14064TIP3    H142133   6.011   6.868   4.277
14064TIP3    H242134   5.949   6.743   4.335
14065TIP3   OH242135   1.526   3.558   5.553
14065TIP3    H142136   1.451   3.602   5.513
14065TIP3    H242137   1.553   3.492   5.489
14066TIP3   OH242138   1.841   3.717   4.038
14066TIP3    H142139   1.809   3.678   4.119
14066TIP3    H242140   1.933   3.689   4.033
14067TIP3   OH242141   7.430   1.364   3.404
14067TIP3    H142142   7.381   1.291   3.364
14067TIP3    H242143   7.402   1.441   3.354
14068TIP3   OH242144   3.732   1.009   6.379
14068TIP3    H142145   3.795   1.081   6.379
14068TIP3    H242146   3.777   0.938   6.334
14069TIP3   OH242147   3.041   7.062   2.306
14069TIP3    H142148   3.130   7.051   2.274
14069TIP3    H242149   2.985   7.025   2.237
14070TIP3   OH242150   6.851   2.493   6.690
14070TIP3    H142151   6.889   2.573   6.652
14070TIP3    H242152   6.899   2.480   6.772
14071TIP3   OH242153   3.130   4.613   0.866
14071TIP3    H142154   3.091   4.555   0.800
14071TIP3    H242155   3.086   4.697   0.853
14072TIP3   OH242156   5.093   1.687   3.510
14072TIP3    H142157   5.020   1.687   3.571
14072TIP3    H242158   5.052   1.673   3.424
14073TIP3   OH242159   3.002   7.724   3.607
14073TIP3    H142160   3.059   7.794   3.641
14073TIP3    H242161   2.965   7.683   3.685
14074TIP3   OH242162   2.712   6.350   3.469
14074TIP3    H142163   2.719   6.289   3.542
14074TIP3    H242164   2.665   6.302   3.401
14075TIP3   OH242165   7.769   3.663   3.890
14075TIP3    H142166   7.730   3.738   3.935
14075TIP3    H242167   7.737   3.670   3.800
14076TIP3   OH242168   6.207   5.932   6.150
14076TIP3    H142169   6.153   6.009   6.138
14076TIP3    H242170   6.161   5.879   6.215
14077TIP3   OH242171   1.919   1.033   3.000
14077TIP3    H142172   1.952   1.044   3.089
14077TIP3    H242173   1.893   1.121   2.973
14078TIP3   OH242174   7.807   3.081   1.838
14078TIP3    H142175   7.760   3.074   1.921
14078TIP3    H242176   7.895   3.109   1.863
14079TIP3   OH242177   1.010   0.453   4.774
14079TIP3    H142178   1.005   0.517   4.703
14079TIP3    H242179   0.938   0.392   4.757
14080TIP3   OH242180   6.646   4.753   6.218
14080TIP3    H142181   6.564   4.718   6.253
14080TIP3    H242182   6.702   4.764   6.295
14081TIP3   OH242183   3.669   0.110   4.488
14081TIP3    H142184   3.595   0.114   4.548
14081TIP3    H242185   3.745   0.129   4.543
14082TIP3   OH242186   7.368   7.488   5.485
14082TIP3    H142187   7.284   7.443   5.494
14082TIP3    H242188   7.346   7.580   5.494
14083TIP3   OH242189   1.092   3.721   4.788
14083TIP3    H142190   1.035   3.684   4.719
14083TIP3    H242191   1.159   3.769   4.740
14084TIP3   OH242192   0.297   4.854   5.361
14084TIP3    H142193   0.256   4.767   5.360
14084TIP3    H242194   0.365   4.848   5.428
14085TIP3   OH242195   0.655   7.094   5.836
14085TIP3    H142196   0.658   7.090   5.740
14085TIP3    H242197   0.609   7.176   5.855
14086TIP3   OH242198   5.720   1.684   0.927
14086TIP3    H142199   5.682   1.738   0.997
14086TIP3    H242200   5.804   1.725   0.909
14087TIP3   OH242201   1.500   7.192   4.755
14087TIP3    H142202   1.485   7.214   4.663
14087TIP3    H242203   1.595   7.187   4.764
14088TIP3   OH242204   7.348   7.744   6.181
14088TIP3    H142205   7.272   7.685   6.184
14088TIP3    H242206   7.379   7.738   6.091
14089TIP3   OH242207   6.329   3.521   6.100
14089TIP3    H142208   6.258   3.542   6.161
14089TIP3    H242209   6.403   3.574   6.130
14090TIP3   OH242210   7.018   1.282   2.596
14090TIP3    H142211   7.110   1.258   2.593
14090TIP3    H242212   7.010   1.356   2.535
14091TIP3   OH242213   7.368   3.641   6.718
14091TIP3    H142214   7.315   3.593   6.655
14091TIP3    H242215   7.327   3.727   6.723
14092TIP3   OH242216   1.757   0.704   0.873
14092TIP3    H142217   1.713   0.789   0.863
14092TIP3    H242218   1.739   0.679   0.964
14093TIP3   OH242219   8.134   3.959   2.187
14093TIP3    H142220   8.165   4.042   2.222
14093TIP3    H242221   8.084   3.920   2.258
14094TIP3   OH242222   6.690   2.557   5.098
14094TIP3    H142223   6.743   2.608   5.160
14094TIP3    H242224   6.686   2.470   5.136
14095TIP3   OH242225   0.519   6.342   4.110
14095TIP3    H142226   0.480   6.257   4.088
14095TIP3    H242227   0.611   6.333   4.086
14096TIP3   OH242228   4.681   2.965   6.475
14096TIP3    H142229   4.737   2.892   6.503
14096TIP3    H242230   4.617   2.974   6.545
14097TIP3   OH242231   2.063   0.962   2.250
14097TIP3    H142232   2.092   1.011   2.327
14097TIP3    H242233   2.084   0.871   2.270
14098TIP3   OH242234   7.784   5.841   2.529
14098TIP3    H142235   7.757   5.796   2.449
14098TIP3    H242236   7.812   5.771   2.588
14099TIP3   OH242237   7.321   0.086   6.532
14099TIP3    H142238   7.305   0.161   6.589
14099TIP3    H242239   7.413   0.063   6.548
14100TIP3   OH242240   6.711   0.359   6.432
14100TIP3    H142241   6.623   0.380   6.400
14100TIP3    H242242   6.762   0.438   6.416
14101TIP3   OH242243   6.895   1.025   1.766
14101TIP3    H142244   6.840   1.092   1.724
14101TIP3    H242245   6.847   0.943   1.753
14102TIP3   OH242246   0.104   2.814   1.406
14102TIP3    H142247   0.124   2.727   1.371
14102TIP3    H242248   0.178   2.869   1.378
14103TIP3   OH242249   2.823   0.166   3.457
14103TIP3    H142250   2.910   0.178   3.420
14103TIP3    H242251   2.770   0.135   3.383
14104TIP3   OH242252   6.153   7.603   3.849
14104TIP3    H142253   6.106   7.519   3.853
14104TIP3    H242254   6.133   7.645   3.932
14105TIP3   OH242255   3.147   1.154   2.672
14105TIP3    H142256   3.084   1.212   2.630
14105TIP3    H242257   3.157   1.081   2.612
14106TIP3   OH242258   4.993   6.694   4.516
14106TIP3    H142259   4.912   6.741   4.535
14106TIP3    H242260   4.965   6.611   4.478
14107TIP3   OH242261   2.519   0.091   6.493
14107TIP3    H142262   2.593   0.136   6.452
14107TIP3    H242263   2.479   0.156   6.550
14108TIP3   OH242264   1.274   4.827   2.136
14108TIP3    H142265   1.265   4.913   2.097
14108TIP3    H242266   1.314   4.773   2.067
14109TIP3   OH242267   3.758   0.497   5.262
14109TIP3    H142268   3.789   0.572   5.313
14109TIP3    H242269   3.670   0.523   5.233
14110TIP3   OH242270   1.119   0.266   3.429
14110TIP3    H142271   1.084   0.177   3.417
14110TIP3    H242272   1.145   0.269   3.521
14111TIP3   OH242273   8.295   3.686   5.345
14111TIP3    H142274   8.316   3.770   5.383
14111TIP3    H242275   8.245   3.640   5.413
14112TIP3   OH242276   5.504   6.222   2.552
14112TIP3    H142277   5.430   6.282   2.564
14112TIP3    H242278   5.526   6.230   2.459
14113TIP3   OH242279   5.817   3.336   5.191
14113TIP3    H142280   5.823   3.384   5.109
14113TIP3    H242281   5.762   3.260   5.170
14114TIP3   OH242282   3.820   5.773   1.156
14114TIP3    H142283   3.754   5.777   1.225
14114TIP3    H242284   3.770   5.762   1.075
14115TIP3   OH242285   6.206   0.834   5.624
14115TIP3    H142286   6.245   0.915   5.593
14115TIP3    H242287   6.233   0.768   5.561
14116TIP3   OH242288   3.559   0.077   5.387
14116TIP3    H142289   3.606   0.158   5.406
14116TIP3    H242290   3.479   0.105   5.343
14117TIP3   OH242291   4.836   3.749   5.191
14117TIP3    H142292   4.905   3.711   5.245
14117TIP3    H242293   4.803   3.676   5.139
14118TIP3   OH242294   4.292   1.623   3.932
14118TIP3    H142295   4.343   1.689   3.886
14118TIP3    H242296   4.243   1.671   3.998
14119TIP3   OH242297   4.454   6.123   3.459
14119TIP3    H142298   4.470   6.100   3.368
14119TIP3    H242299   4.377   6.072   3.484
14120TIP3   OH242300   2.310   7.517   1.477
14120TIP3    H142301   2.302   7.451   1.546
14120TIP3    H242302   2.385   7.490   1.425
14121TIP3   OH242303   1.310   6.613   3.515
14121TIP3    H142304   1.245   6.676   3.484
14121TIP3    H242305   1.390   6.664   3.526
14122TIP3   OH242306   0.541   0.003   2.056
14122TIP3    H142307   0.521   0.082   2.006
14122TIP3    H242308   0.615   0.027   2.111
14123TIP3   OH242309   6.990   3.933   1.302
14123TIP3    H142310   6.970   3.906   1.392
14123TIP3    H242311   6.975   4.027   1.302
14124TIP3   OH242312   4.477   7.788   4.098
14124TIP3    H142313   4.511   7.738   4.173
14124TIP3    H242314   4.398   7.830   4.131
14125TIP3   OH242315   1.830   3.082   0.359
14125TIP3    H142316   1.839   2.993   0.392
14125TIP3    H242317   1.895   3.132   0.409
14126TIP3   OH242318   2.144   3.607   1.005
14126TIP3    H142319   2.162   3.692   1.044
14126TIP3    H242320   2.175   3.544   1.070
14127TIP3   OH242321   6.649   1.806   1.385
14127TIP3    H142322   6.695   1.877   1.340
14127TIP3    H242323   6.557   1.819   1.360
14128TIP3   OH242324   4.663   6.097   2.156
14128TIP3    H142325   4.695   6.187   2.164
14128TIP3    H242326   4.743   6.045   2.148
14129TIP3   OH242327   0.854   6.059   0.205
14129TIP3    H142328   0.840   6.133   0.146
14129TIP3    H242329   0.793   6.074   0.278
14130TIP3   OH242330   2.300   2.288   6.031
14130TIP3    H142331   2.248   2.214   6.000
14130TIP3    H242332   2.295   2.283   6.126
14131TIP3   OH242333   0.556   4.925   6.333
14131TIP3    H142334   0.513   4.935   6.248
14131TIP3    H242335   0.513   4.850   6.373
14132TIP3   OH242336   1.090   3.066   3.836
14132TIP3    H142337   1.132   3.028   3.759
14132TIP3    H242338   1.000   3.085   3.808
14133TIP3   OH242339   1.479   4.439   6.642
14133TIP3    H142340   1.504   4.429   6.734
14133TIP3    H242341   1.448   4.530   6.635
14134TIP3   OH242342   0.420   4.353   3.157
14134TIP3    H142343   0.416   4.346   3.253
14134TIP3    H242344   0.335   4.387   3.132
14135TIP3   OH242345   7.905   5.684   6.660
14135TIP3    H142346   7.955   5.747   6.608
14135TIP3    H242347   7.830   5.660   6.605
14136TIP3   OH242348   5.190   7.749   3.147
14136TIP3    H142349   5.227   7.821   3.096
14136TIP3    H242350   5.103   7.780   3.172
14137TIP3   OH242351   2.045   5.004   5.399
14137TIP3    H142352   2.120   4.954   5.430
14137TIP3    H242353   2.081   5.089   5.373
14138TIP3   OH242354   0.829   2.241   1.917
14138TIP3    H142355   0.762   2.181   1.885
14138TIP3    H242356   0.791   2.280   1.996
14139TIP3   OH242357   8.107   4.558   0.423
14139TIP3    H142358   8.025   4.580   0.380
14139TIP3    H242359   8.084   4.553   0.516
14140TIP3   OH242360   2.483   5.578   1.517
14140TIP3    H142361   2.405   5.613   1.474
14140TIP3    H242362   2.453   5.551   1.604
14141TIP3   OH242363   5.961   3.487   0.766
14141TIP3    H142364   5.874   3.479   0.727
14141TIP3    H242365   5.970   3.408   0.820
14142TIP3   OH242366   3.618   7.892   4.014
14142TIP3    H142367   3.648   7.974   4.053
14142TIP3    H242368   3.599   7.913   3.923
14143TIP3   OH242369   1.876   4.210   3.737
14143TIP3    H142370   1.908   4.126   3.769
14143TIP3    H242371   1.900   4.272   3.806
14144TIP3   OH242372   7.482   5.819   5.924
14144TIP3    H142373   7.445   5.864   6.000
14144TIP3    H242374   7.441   5.861   5.849
14145TIP3   OH242375   3.015   3.028   6.119
14145TIP3    H142376   2.933   2.989   6.089
14145TIP3    H242377   3.080   2.999   6.055
14146TIP3   OH242378   2.175   1.205   3.139
14146TIP3    H142379   2.123   1.186   3.061
14146TIP3    H242380   2.121   1.176   3.212
14147TIP3   OH242381   4.773   1.427   5.586
14147TIP3    H142382   4.696   1.455   5.636
14147TIP3    H242383   4.814   1.360   5.641
14148TIP3   OH242384   7.855   6.933   3.064
14148TIP3    H142385   7.905   6.937   2.982
14148TIP3    H242386   7.844   6.839   3.080
14149TIP3   OH242387   5.554  -0.064   1.962
14149TIP3    H142388   5.459  -0.067   1.977
14149TIP3    H242389   5.577   0.028   1.979
14150TIP3   OH242390   4.864   1.716   2.839
14150TIP3    H142391   4.886   1.646   2.901
14150TIP3    H242392   4.922   1.700   2.764
14151TIP3   OH242393   4.838   7.233   4.553
14151TIP3    H142394   4.892   7.230   4.474
14151TIP3    H242395   4.900   7.226   4.626
14152TIP3   OH242396   4.424   6.956   2.565
14152TIP3    H142397   4.358   6.974   2.631
14152TIP3    H242398   4.476   7.036   2.561
14153TIP3   OH242399   6.412   3.019   6.750
14153TIP3    H142400   6.407   3.062   6.836
14153TIP3    H242401   6.349   2.947   6.756
14154TIP3   OH242402   2.767   5.773   3.600
14154TIP3    H142403   2.727   5.844   3.551
14154TIP3    H242404   2.780   5.703   3.536
14155TIP3   OH242405   4.027   1.648   4.896
14155TIP3    H142406   4.055   1.666   4.986
14155TIP3    H242407   4.089   1.695   4.841
14156TIP3   OH242408   4.291   6.324   4.829
14156TIP3    H142409   4.282   6.396   4.892
14156TIP3    H242410   4.202   6.289   4.819
14157TIP3   OH242411   1.916   3.185   1.082
14157TIP3    H142412   1.923   3.179   1.178
14157TIP3    H242413   1.873   3.103   1.057
14158TIP3   OH242414   6.205   2.801   1.152
14158TIP3    H142415   6.164   2.730   1.103
14158TIP3    H242416   6.259   2.847   1.088
14159TIP3   OH242417   2.086   0.811   3.207
14159TIP3    H142418   2.094   0.792   3.113
14159TIP3    H242419   2.174   0.835   3.235
14160TIP3   OH242420   5.563   5.229   6.224
14160TIP3    H142421   5.480   5.275   6.240
14160TIP3    H242422   5.610   5.235   6.307
14161TIP3   OH242423   8.297   5.994   1.449
14161TIP3    H142424   8.229   6.044   1.405
14161TIP3    H242425   8.264   5.982   1.538
14162TIP3   OH242426   2.056   4.972   1.735
14162TIP3    H142427   1.973   4.947   1.696
14162TIP3    H242428   2.102   5.022   1.668
14163TIP3   OH242429   5.962   2.326   2.804
14163TIP3    H142430   5.866   2.334   2.804
14163TIP3    H242431   5.978   2.234   2.827
14164TIP3   OH242432   6.456   6.860   5.411
14164TIP3    H142433   6.416   6.945   5.427
14164TIP3    H242434   6.395   6.797   5.448
14165TIP3   OH242435   0.906   4.589   4.026
14165TIP3    H142436   0.978   4.602   4.088
14165TIP3    H242437   0.948   4.588   3.940
14166TIP3   OH242438   0.637   3.609   0.083
14166TIP3    H142439   0.588   3.635   0.005
14166TIP3    H242440   0.720   3.657   0.076
14167TIP3   OH242441   1.052   1.448   1.546
14167TIP3    H142442   1.122   1.459   1.611
14167TIP3    H242443   1.059   1.526   1.491
14168TIP3   OH242444   5.207   5.175   3.120
14168TIP3    H142445   5.243   5.108   3.177
14168TIP3    H242446   5.272   5.245   3.122
14169TIP3   OH242447   0.638   4.511   0.107
14169TIP3    H142448   0.655   4.563   0.185
14169TIP3    H242449   0.558   4.462   0.128
14170TIP3   OH242450   0.506   2.605   2.015
14170TIP3    H142451   0.467   2.658   2.084
14170TIP3    H242452   0.588   2.651   1.994
14171TIP3   OH242453   5.559   0.868   6.496
14171TIP3    H142454   5.518   0.816   6.564
14171TIP3    H242455   5.626   0.812   6.459
14172TIP3   OH242456   3.132   7.768   4.977
14172TIP3    H142457   3.139   7.723   5.062
14172TIP3    H242458   3.042   7.753   4.949
14173TIP3   OH242459   3.963   6.609   1.111
14173TIP3    H142460   3.913   6.544   1.063
14173TIP3    H242461   3.898   6.670   1.145
14174TIP3   OH242462   3.172   3.293   0.038
14174TIP3    H142463   3.127   3.226   0.090
14174TIP3    H242464   3.199   3.247  -0.042
14175TIP3   OH242465   4.392   7.836   1.393
14175TIP3    H142466   4.308   7.832   1.439
14175TIP3    H242467   4.379   7.902   1.325
14176TIP3   OH242468   7.707   2.674   5.569
14176TIP3    H142469   7.794   2.683   5.607
14176TIP3    H242470   7.694   2.579   5.560
14177TIP3   OH242471   0.551   1.452   1.130
14177TIP3    H142472   0.556   1.466   1.225
14177TIP3    H242473   0.638   1.419   1.107
14178TIP3   OH242474   3.638   3.061   0.055
14178TIP3    H142475   3.648   3.154   0.074
14178TIP3    H242476   3.628   3.056  -0.040
14179TIP3   OH242477   4.895   5.413   4.880
14179TIP3    H142478   4.904   5.318   4.887
14179TIP3    H242479   4.939   5.447   4.958
14180TIP3   OH242480   4.584   5.347   3.244
14180TIP3    H142481   4.623   5.428   3.276
14180TIP3    H242482   4.493   5.351   3.274
14181TIP3   OH242483   6.898   4.225   5.529
14181TIP3    H142484   6.971   4.238   5.590
14181TIP3    H242485   6.847   4.306   5.536
14182TIP3   OH242486   7.349   3.199   4.263
14182TIP3    H142487   7.321   3.171   4.176
14182TIP3    H242488   7.321   3.290   4.270
14183TIP3   OH242489   8.062   6.917   1.243
14183TIP3    H142490   8.134   6.911   1.180
14183TIP3    H242491   8.051   7.011   1.256
14184TIP3   OH242492   8.039   1.723   1.731
14184TIP3    H142493   7.946   1.705   1.745
14184TIP3    H242494   8.080   1.704   1.816
14185TIP3   OH242495   4.042   0.941   3.099
14185TIP3    H142496   3.946   0.942   3.094
14185TIP3    H242497   4.061   0.932   3.192
14186TIP3   OH242498   6.769   7.160   6.898
14186TIP3    H142499   6.759   7.217   6.974
14186TIP3    H242500   6.737   7.213   6.825
14187TIP3   OH242501   7.884   6.062   1.783
14187TIP3    H142502   7.839   6.146   1.771
14187TIP3    H242503   7.819   6.007   1.828
14188TIP3   OH242504   2.762   7.235   5.156
14188TIP3    H142505   2.677   7.194   5.173
14188TIP3    H242506   2.797   7.255   5.243
14189TIP3   OH242507   1.991   1.505   5.276
14189TIP3    H142508   1.946   1.587   5.298
14189TIP3    H242509   2.084   1.528   5.279
14190TIP3   OH242510   2.725   4.787   4.355
14190TIP3    H142511   2.740   4.881   4.364
14190TIP3    H242512   2.640   4.771   4.398
14191TIP3   OH242513   5.814   1.159   4.812
14191TIP3    H142514   5.880   1.223   4.839
14191TIP3    H242515   5.732   1.192   4.848
14192TIP3   OH242516   6.296   6.564   4.565
14192TIP3    H142517   6.335   6.631   4.509
14192TIP3    H242518   6.290   6.605   4.651
14193TIP3   OH242519   5.932   2.314   2.311
14193TIP3    H142520   5.946   2.263   2.391
14193TIP3    H242521   5.925   2.404   2.341
14194TIP3   OH242522   7.984   1.538   1.091
14194TIP3    H142523   7.957   1.499   1.008
14194TIP3    H242524   7.938   1.621   1.095
14195TIP3   OH242525   2.975   0.429   4.256
14195TIP3    H142526   2.897   0.427   4.312
14195TIP3    H242527   2.943   0.465   4.173
14196TIP3   OH242528   6.933   7.565   3.465
14196TIP3    H142529   6.991   7.624   3.417
14196TIP3    H242530   6.922   7.490   3.408
14197TIP3   OH242531   3.441   6.593   4.934
14197TIP3    H142532   3.349   6.619   4.940
14197TIP3    H242533   3.477   6.649   4.865
14198TIP3   OH242534   7.750   0.943   3.567
14198TIP3    H142535   7.658   0.922   3.585
14198TIP3    H242536   7.749   1.034   3.538
14199TIP3   OH242537   7.153   4.474   1.334
14199TIP3    H142538   7.063   4.502   1.351
14199TIP3    H242539   7.158   4.385   1.369
14200TIP3   OH242540   0.934   5.254   4.613
14200TIP3    H142541   0.926   5.163   4.642
14200TIP3    H242542   0.979   5.298   4.685
14201TIP3   OH242543   1.669   0.264   1.839
14201TIP3    H142544   1.755   0.307   1.840
14201TIP3    H242545   1.677   0.193   1.903
14202TIP3   OH242546   5.853   6.588   5.706
14202TIP3    H142547   5.799   6.556   5.778
14202TIP3    H242548   5.910   6.653   5.746
14203TIP3   OH242549   0.372   4.453   5.664
14203TIP3    H142550   0.372   4.403   5.745
14203TIP3    H242551   0.281   4.450   5.634
14204TIP3   OH242552   7.442   2.359   6.640
14204TIP3    H142553   7.434   2.452   6.664
14204TIP3    H242554   7.358   2.321   6.664
14205TIP3   OH242555   2.627   2.559   4.008
14205TIP3    H142556   2.626   2.512   3.925
14205TIP3    H242557   2.535   2.562   4.035
14206TIP3   OH242558   5.909   7.816   3.176
14206TIP3    H142559   5.895   7.736   3.226
14206TIP3    H242560   5.827   7.866   3.186
14207TIP3   OH242561   6.875   0.389   1.703
14207TIP3    H142562   6.816   0.369   1.775
14207TIP3    H242563   6.951   0.332   1.717
14208TIP3   OH242564   2.264   3.580   1.882
14208TIP3    H142565   2.216   3.598   1.801
14208TIP3    H242566   2.347   3.626   1.872
14209TIP3   OH242567   2.834   7.756   2.327
14209TIP3    H142568   2.808   7.687   2.387
14209TIP3    H242569   2.870   7.825   2.384
14210TIP3   OH242570   5.131   4.371   3.611
14210TIP3    H142571   5.154   4.307   3.677
14210TIP3    H242572   5.081   4.321   3.546
14211TIP3   OH242573   7.352   3.616   2.045
14211TIP3    H142574   7.303   3.679   2.096
14211TIP3    H242575   7.400   3.668   1.981
14212TIP3   OH242576   0.170   6.560   2.285
14212TIP3    H142577   0.096   6.579   2.228
14212TIP3    H242578   0.234   6.627   2.265
14213TIP3   OH242579   1.627   6.822   6.699
14213TIP3    H142580   1.653   6.866   6.780
14213TIP3    H242581   1.695   6.757   6.684
14214TIP3   OH242582   6.838   7.871   1.367
14214TIP3    H142583   6.832   7.776   1.376
14214TIP3    H242584   6.758   7.903   1.409
14215TIP3   OH242585   0.265   3.968   4.640
14215TIP3    H142586   0.315   4.017   4.705
14215TIP3    H242587   0.173   3.990   4.659
14216TIP3   OH242588   5.848   6.826   0.689
14216TIP3    H142589   5.884   6.738   0.705
14216TIP3    H242590   5.755   6.818   0.711
14217TIP3   OH242591   4.376   7.783   3.748
14217TIP3    H142592   4.421   7.862   3.717
14217TIP3    H242593   4.329   7.811   3.826
14218TIP3   OH242594   4.940   3.016   6.673
14218TIP3    H142595   5.026   3.038   6.709
14218TIP3    H242596   4.935   2.921   6.680
14219TIP3   OH242597   7.436   7.464   0.975
14219TIP3    H142598   7.370   7.478   0.907
14219TIP3    H242599   7.490   7.543   0.973
14220TIP3   OH242600   3.581   2.062   4.282
14220TIP3    H142601   3.569   1.997   4.352
14220TIP3    H242602   3.663   2.106   4.305
14221TIP3   OH242603   3.766   6.732   6.624
14221TIP3    H142604   3.789   6.782   6.702
14221TIP3    H242605   3.847   6.688   6.599
14222TIP3   OH242606   0.384   4.112   6.824
14222TIP3    H142607   0.395   4.193   6.774
14222TIP3    H242608   0.305   4.072   6.788
14223TIP3   OH242609   1.896   1.925   2.729
14223TIP3    H142610   1.861   1.906   2.642
14223TIP3    H242611   1.829   1.978   2.772
14224TIP3   OH242612   4.027   5.446   1.422
14224TIP3    H142613   4.088   5.515   1.446
14224TIP3    H242614   4.030   5.384   1.496
14225TIP3   OH242615   1.351   4.125   3.511
14225TIP3    H142616   1.295   4.127   3.434
14225TIP3    H242617   1.439   4.111   3.477
14226TIP3   OH242618   1.787   7.152   0.954
14226TIP3    H142619   1.779   7.060   0.982
14226TIP3    H242620   1.707   7.169   0.905
14227TIP3   OH242621   0.782   4.949   2.551
14227TIP3    H142622   0.753   4.859   2.567
14227TIP3    H242623   0.761   4.966   2.459
14228TIP3   OH242624   7.804   4.386   4.566
14228TIP3    H142625   7.747   4.342   4.629
14228TIP3    H242626   7.891   4.379   4.605
14229TIP3   OH242627   2.541   7.540   4.301
14229TIP3    H142628   2.456   7.583   4.304
14229TIP3    H242629   2.565   7.528   4.393
14230TIP3   OH242630   6.349   4.675   1.121
14230TIP3    H142631   6.417   4.740   1.137
14230TIP3    H242632   6.318   4.650   1.208
14231TIP3   OH242633   1.882   0.672   0.213
14231TIP3    H142634   1.930   0.641   0.289
14231TIP3    H242635   1.890   0.767   0.216
14232TIP3   OH242636   3.697   1.458   6.498
14232TIP3    H142637   3.616   1.408   6.510
14232TIP3    H242638   3.722   1.442   6.407
14233TIP3   OH242639   3.019   3.201   4.024
14233TIP3    H142640   2.930   3.226   4.048
14233TIP3    H242641   3.009   3.151   3.942
14234TIP3   OH242642   2.238   3.407   5.880
14234TIP3    H142643   2.227   3.349   5.955
14234TIP3    H242644   2.218   3.494   5.914
14235TIP3   OH242645   7.587   0.005   6.548
14235TIP3    H142646   7.620  -0.082   6.571
14235TIP3    H242647   7.627   0.025   6.464
14236TIP3   OH242648   5.205   0.365   4.125
14236TIP3    H142649   5.258   0.382   4.203
14236TIP3    H242650   5.254   0.405   4.053
14237TIP3   OH242651   5.339   6.604   1.888
14237TIP3    H142652   5.329   6.699   1.900
14237TIP3    H242653   5.324   6.568   1.976
14238TIP3   OH242654   7.438   2.032   3.585
14238TIP3    H142655   7.451   1.956   3.641
14238TIP3    H242656   7.458   2.000   3.497
14239TIP3   OH242657   3.322   0.207   4.361
14239TIP3    H142658   3.381   0.275   4.394
14239TIP3    H242659   3.335   0.209   4.266
14240TIP3   OH242660   6.524   0.962   2.555
14240TIP3    H142661   6.611   0.949   2.593
14240TIP3    H242662   6.515   1.057   2.549
14241TIP3   OH242663   4.230   3.985   5.309
14241TIP3    H142664   4.262   3.916   5.250
14241TIP3    H242665   4.275   3.968   5.392
14242TIP3   OH242666   5.584   6.885   5.389
14242TIP3    H142667   5.531   6.880   5.468
14242TIP3    H242668   5.619   6.797   5.377
14243TIP3   OH242669   1.684   0.245   3.711
14243TIP3    H142670   1.739   0.222   3.786
14243TIP3    H242671   1.730   0.317   3.669
14244TIP3   OH242672   7.285   1.505   1.913
14244TIP3    H142673   7.282   1.413   1.937
14244TIP3    H242674   7.348   1.509   1.841
14245TIP3   OH242675   1.046   4.578   2.149
14245TIP3    H142676   1.058   4.615   2.061
14245TIP3    H242677   1.124   4.526   2.164
14246TIP3   OH242678   2.742   6.384   0.182
14246TIP3    H142679   2.767   6.445   0.251
14246TIP3    H242680   2.818   6.327   0.172
14247TIP3   OH242681   4.281   7.650   4.610
14247TIP3    H142682   4.198   7.608   4.589
14247TIP3    H242683   4.267   7.743   4.589
14248TIP3   OH242684   5.103   2.355   0.404
14248TIP3    H142685   5.029   2.308   0.366
14248TIP3    H242686   5.171   2.351   0.337
14249TIP3   OH242687   0.584   3.872   3.905
14249TIP3    H142688   0.519   3.925   3.951
14249TIP3    H242689   0.602   3.920   3.824
14250TIP3   OH242690   7.947   4.509   3.173
14250TIP3    H142691   7.985   4.526   3.087
14250TIP3    H242692   7.932   4.596   3.210
14251TIP3   OH242693   4.470   0.181   0.503
14251TIP3    H142694   4.513   0.253   0.549
14251TIP3    H242695   4.478   0.107   0.563
14252TIP3   OH242696   2.137   7.669   0.666
14252TIP3    H142697   2.226   7.669   0.699
14252TIP3    H242698   2.117   7.577   0.650
14253TIP3   OH242699   1.327   7.873   4.882
14253TIP3    H142700   1.290   7.961   4.895
14253TIP3    H242701   1.401   7.887   4.823
14254TIP3   OH242702   3.456   5.363   3.813
14254TIP3    H142703   3.396   5.427   3.773
14254TIP3    H242704   3.534   5.366   3.757
14255TIP3   OH242705   2.774   1.703   4.092
14255TIP3    H142706   2.740   1.652   4.165
14255TIP3    H242707   2.780   1.793   4.126
14256TIP3   OH242708   0.290   0.994   1.736
14256TIP3    H142709   0.307   0.908   1.699
14256TIP3    H242710   0.374   1.022   1.772
14257TIP3   OH242711   1.897   2.151   5.052
14257TIP3    H142712   1.823   2.132   4.995
14257TIP3    H242713   1.865   2.132   5.141
14258TIP3   OH242714   4.140   6.741   3.853
14258TIP3    H142715   4.140   6.648   3.876
14258TIP3    H242716   4.147   6.741   3.757
14259TIP3   OH242717   4.418   6.630   5.827
14259TIP3    H142718   4.396   6.722   5.815
14259TIP3    H242719   4.513   6.629   5.840
14260TIP3   OH242720   3.151   5.136   4.054
14260TIP3    H142721   3.117   5.212   4.009
14260TIP3    H242722   3.235   5.165   4.090
14261TIP3   OH242723   0.286   2.452   5.567
14261TIP3    H142724   0.372   2.487   5.542
14261TIP3    H242725   0.289   2.446   5.662
14262TIP3   OH242726   7.489   5.827   3.769
14262TIP3    H142727   7.440   5.794   3.844
14262TIP3    H242728   7.539   5.752   3.738
14263TIP3   OH242729   5.517   2.724   0.528
14263TIP3    H142730   5.583   2.793   0.536
14263TIP3    H242731   5.550   2.667   0.458
14264TIP3   OH242732   6.447   6.733   3.583
14264TIP3    H142733   6.362   6.759   3.546
14264TIP3    H242734   6.427   6.658   3.639
14265TIP3   OH242735   7.136   6.767   2.869
14265TIP3    H142736   7.105   6.726   2.789
14265TIP3    H242737   7.138   6.695   2.933
14266TIP3   OH242738   8.259   2.266   4.942
14266TIP3    H142739   8.191   2.204   4.968
14266TIP3    H242740   8.279   2.243   4.851
14267TIP3   OH242741   7.112   4.122   5.907
14267TIP3    H142742   7.050   4.056   5.877
14267TIP3    H242743   7.159   4.149   5.829
14268TIP3   OH242744   5.111   2.932   5.117
14268TIP3    H142745   5.022   2.961   5.135
14268TIP3    H242746   5.115   2.924   5.022
14269TIP3   OH242747   0.069   2.488   1.588
14269TIP3    H142748   0.049   2.475   1.495
14269TIP3    H242749   0.057   2.582   1.603
14270TIP3   OH242750   3.144   2.461   4.735
14270TIP3    H142751   3.099   2.384   4.702
14270TIP3    H242752   3.148   2.449   4.830
14271TIP3   OH242753   6.654   6.854   6.671
14271TIP3    H142754   6.589   6.924   6.664
14271TIP3    H242755   6.688   6.861   6.760
14272TIP3   OH242756   5.545   4.318   1.247
14272TIP3    H142757   5.587   4.236   1.270
14272TIP3    H242758   5.545   4.369   1.328
14273TIP3   OH242759   0.226   0.095   6.209
14273TIP3    H142760   0.308   0.049   6.189
14273TIP3    H242761   0.186   0.043   6.279
14274TIP3   OH242762   2.139   3.649   5.960
14274TIP3    H142763   2.163   3.659   6.052
14274TIP3    H242764   2.046   3.674   5.957
14275TIP3   OH242765   5.013   5.827   1.782
14275TIP3    H142766   5.106   5.848   1.790
14275TIP3    H242767   5.009   5.731   1.783
14276TIP3   OH242768   0.743   7.369   2.630
14276TIP3    H142769   0.833   7.377   2.662
14276TIP3    H242770   0.724   7.453   2.589
14277TIP3   OH242771   7.221   1.810   6.106
14277TIP3    H142772   7.141   1.851   6.137
14277TIP3    H242773   7.232   1.733   6.162
14278TIP3   OH242774   1.415   4.016   0.246
14278TIP3    H142775   1.497   4.013   0.295
14278TIP3    H242776   1.347   3.998   0.312
14279TIP3   OH242777   3.216   7.761   6.414
14279TIP3    H142778   3.217   7.806   6.329
14279TIP3    H242779   3.268   7.682   6.399
14280TIP3   OH242780   2.238   6.740   1.787
14280TIP3    H142781   2.315   6.734   1.729
14280TIP3    H242782   2.245   6.828   1.826
14281TIP3   OH242783   0.791   2.947   2.093
14281TIP3    H142784   0.858   2.907   2.149
14281TIP3    H242785   0.826   3.034   2.073
14282TIP3   OH242786   6.512   4.212   3.370
14282TIP3    H142787   6.437   4.265   3.395
14282TIP3    H242788   6.575   4.224   3.441
14283TIP3   OH242789   6.291   2.180   6.823
14283TIP3    H142790   6.269   2.169   6.730
14283TIP3    H242791   6.249   2.263   6.847
14284TIP3   OH242792   7.230   0.520   0.686
14284TIP3    H142793   7.240   0.605   0.730
14284TIP3    H242794   7.242   0.540   0.593
14285TIP3   OH242795   2.885   0.191   5.312
14285TIP3    H142796   2.874   0.271   5.363
14285TIP3    H242797   2.954   0.143   5.357
14286TIP3   OH242798   1.730   7.331   4.846
14286TIP3    H142799   1.745   7.398   4.780
14286TIP3    H242800   1.791   7.353   4.917
14287TIP3   OH242801   5.493   1.661   2.226
14287TIP3    H142802   5.570   1.696   2.181
14287TIP3    H242803   5.471   1.729   2.290
14288TIP3   OH242804   3.167   2.155   2.143
14288TIP3    H142805   3.214   2.132   2.063
14288TIP3    H242806   3.132   2.072   2.174
14289TIP3   OH242807   4.705   6.015   3.495
14289TIP3    H142808   4.770   6.075   3.531
14289TIP3    H242809   4.622   6.063   3.499
14290TIP3   OH242810   0.792   7.649   2.600
14290TIP3    H142811   0.865   7.710   2.612
14290TIP3    H242812   0.785   7.638   2.505
14291TIP3   OH242813   5.025   6.902   5.267
14291TIP3    H142814   5.020   6.925   5.360
14291TIP3    H242815   4.940   6.928   5.231
14292TIP3   OH242816   8.160   3.369   1.211
14292TIP3    H142817   8.246   3.395   1.242
14292TIP3    H242818   8.101   3.386   1.284
14293TIP3   OH242819   3.812   7.342   1.034
14293TIP3    H142820   3.892   7.362   1.083
14293TIP3    H242821   3.843   7.301   0.953
14294TIP3   OH242822   6.092   6.574   6.013
14294TIP3    H142823   6.091   6.498   5.956
14294TIP3    H242824   6.097   6.649   5.954
14295TIP3   OH242825   4.560   4.370   2.285
14295TIP3    H142826   4.508   4.309   2.232
14295TIP3    H242827   4.496   4.412   2.342
14296TIP3   OH242828   7.186   3.683   5.948
14296TIP3    H142829   7.186   3.587   5.950
14296TIP3    H242830   7.270   3.707   5.985
14297TIP3   OH242831   1.987   2.006   2.065
14297TIP3    H142832   2.032   2.090   2.056
14297TIP3    H242833   2.057   1.941   2.073
14298TIP3   OH242834   7.468   3.050   6.904
14298TIP3    H142835   7.473   3.144   6.890
14298TIP3    H242836   7.444   3.014   6.819
14299TIP3   OH242837   2.251   6.345   0.369
14299TIP3    H142838   2.318   6.291   0.327
14299TIP3    H242839   2.176   6.287   0.379
14300TIP3   OH242840   0.961   0.581   4.560
14300TIP3    H142841   0.899   0.573   4.487
14300TIP3    H242842   1.045   0.599   4.517
14301TIP3   OH242843   2.152   2.778   2.918
14301TIP3    H142844   2.077   2.807   2.865
14301TIP3    H242845   2.124   2.694   2.955
14302TIP3   OH242846   6.702   6.984   0.475
14302TIP3    H142847   6.664   6.995   0.562
14302TIP3    H242848   6.684   7.066   0.431
14303TIP3   OH242849   4.932   4.465   5.748
14303TIP3    H142850   4.939   4.399   5.817
14303TIP3    H242851   4.982   4.429   5.674
14304TIP3   OH242852   4.887   1.629   5.034
14304TIP3    H142853   4.851   1.669   5.114
14304TIP3    H242854   4.817   1.637   4.970
14305TIP3   OH242855   0.696   4.510   1.533
14305TIP3    H142856   0.629   4.533   1.597
14305TIP3    H242857   0.732   4.427   1.565
14306TIP3   OH242858   4.381   6.066   2.801
14306TIP3    H142859   4.343   5.995   2.749
14306TIP3    H242860   4.378   6.033   2.891
14307TIP3   OH242861   4.126   5.002   5.746
14307TIP3    H142862   4.066   4.992   5.819
14307TIP3    H242863   4.069   5.007   5.669
14308TIP3   OH242864   5.074   0.433   1.789
14308TIP3    H142865   4.991   0.394   1.817
14308TIP3    H242866   5.054   0.526   1.780
14309TIP3   OH242867   6.896   0.609   4.562
14309TIP3    H142868   6.925   0.695   4.594
14309TIP3    H242869   6.810   0.626   4.523
14310TIP3   OH242870   4.264   7.290   5.051
14310TIP3    H142871   4.345   7.239   5.049
14310TIP3    H242872   4.272   7.344   5.130
14311TIP3   OH242873   4.539   0.846   3.457
14311TIP3    H142874   4.450   0.830   3.425
14311TIP3    H242875   4.579   0.759   3.462
14312TIP3   OH242876   8.149   7.222   0.702
14312TIP3    H142877   8.144   7.126   0.697
14312TIP3    H242878   8.149   7.241   0.796
14313TIP3   OH242879   3.436   0.196   2.382
14313TIP3    H142880   3.414   0.124   2.442
14313TIP3    H242881   3.488   0.256   2.435
14314TIP3   OH242882   5.395   4.691   5.577
14314TIP3    H142883   5.329   4.687   5.646
14314TIP3    H242884   5.375   4.771   5.529
14315TIP3   OH242885   2.788   3.675   5.396
14315TIP3    H142886   2.777   3.701   5.305
14315TIP3    H242887   2.853   3.736   5.431
14316TIP3   OH242888   4.930   6.288   3.315
14316TIP3    H142889   4.977   6.215   3.354
14316TIP3    H242890   4.902   6.256   3.229
14317TIP3   OH242891   6.124   1.835   0.250
14317TIP3    H142892   6.075   1.833   0.168
14317TIP3    H242893   6.211   1.867   0.224
14318TIP3   OH242894   7.780   1.691   5.337
14318TIP3    H142895   7.804   1.651   5.420
14318TIP3    H242896   7.715   1.757   5.360
14319TIP3   OH242897   2.508   4.964   3.073
14319TIP3    H142898   2.566   4.974   3.148
14319TIP3    H242899   2.566   4.937   3.002
14320TIP3   OH242900   1.800   7.222   6.031
14320TIP3    H142901   1.727   7.283   6.031
14320TIP3    H242902   1.768   7.147   6.081
14321TIP3   OH242903   5.036   7.109   3.165
14321TIP3    H142904   4.990   7.179   3.118
14321TIP3    H242905   5.106   7.154   3.212
14322TIP3   OH242906   1.398   3.204   0.139
14322TIP3    H142907   1.323   3.165   0.184
14322TIP3    H242908   1.424   3.278   0.195
14323TIP3   OH242909   6.819   0.372   0.017
14323TIP3    H142910   6.875   0.442   0.051
14323TIP3    H242911   6.779   0.333   0.095
14324TIP3   OH242912   7.812   1.917   1.281
14324TIP3    H142913   7.816   2.010   1.304
14324TIP3    H242914   7.826   1.871   1.363
14325TIP3   OH242915   0.062   4.653   1.188
14325TIP3    H142916   0.144   4.611   1.211
14325TIP3    H242917   0.011   4.654   1.270
14326TIP3   OH242918   8.112   0.814   1.373
14326TIP3    H142919   8.096   0.907   1.392
14326TIP3    H242920   8.206   0.808   1.361
14327TIP3   OH242921   8.240   5.976   3.457
14327TIP3    H142922   8.244   6.069   3.477
14327TIP3    H242923   8.330   5.945   3.473
14328TIP3   OH242924   3.559   4.902   1.175
14328TIP3    H142925   3.508   4.981   1.196
14328TIP3    H242926   3.531   4.837   1.239
14329TIP3   OH242927   2.913   7.359   4.428
14329TIP3    H142928   2.998   7.331   4.392
14329TIP3    H242929   2.934   7.393   4.515
14330TIP3   OH242930   3.988   6.898   2.402
14330TIP3    H142931   3.949   6.818   2.438
14330TIP3    H242932   3.923   6.931   2.340
14331TIP3   OH242933   4.653   2.916   3.509
14331TIP3    H142934   4.718   2.938   3.575
14331TIP3    H242935   4.703   2.905   3.428
14332TIP3   OH242936   4.605   2.164   4.196
14332TIP3    H142937   4.629   2.071   4.197
14332TIP3    H242938   4.688   2.210   4.212
14333TIP3   OH242939   2.611   0.311   1.000
14333TIP3    H142940   2.555   0.382   0.968
14333TIP3    H242941   2.700   0.341   0.984
14334TIP3   OH242942   3.574   6.240   1.704
14334TIP3    H142943   3.623   6.180   1.648
14334TIP3    H242944   3.495   6.191   1.728
14335TIP3   OH242945   7.180   3.357   6.663
14335TIP3    H142946   7.265   3.369   6.620
14335TIP3    H242947   7.160   3.264   6.651
14336TIP3   OH242948   1.429   1.167   3.932
14336TIP3    H142949   1.495   1.098   3.921
14336TIP3    H242950   1.439   1.195   4.023
14337TIP3   OH242951   4.153   2.912   6.395
14337TIP3    H142952   4.167   2.920   6.489
14337TIP3    H242953   4.155   2.818   6.378
14338TIP3   OH242954   2.161   7.604   1.249
14338TIP3    H142955   2.221   7.596   1.176
14338TIP3    H242956   2.197   7.547   1.317
14339TIP3   OH242957   3.927   6.392   5.325
14339TIP3    H142958   3.940   6.321   5.262
14339TIP3    H242959   3.868   6.355   5.391
14340TIP3   OH242960   2.687   2.281   0.724
14340TIP3    H142961   2.677   2.193   0.759
14340TIP3    H242962   2.682   2.270   0.629
14341TIP3   OH242963   4.534   6.284   3.924
14341TIP3    H142964   4.488   6.368   3.936
14341TIP3    H242965   4.617   6.296   3.969
14342TIP3   OH242966   2.368   2.551   0.931
14342TIP3    H142967   2.323   2.583   1.009
14342TIP3    H242968   2.407   2.468   0.958
14343TIP3   OH242969   4.054   7.918   1.201
14343TIP3    H142970   4.073   7.873   1.119
14343TIP3    H242971   4.011   7.852   1.255
14344TIP3   OH242972   4.875   5.660   5.343
14344TIP3    H142973   4.884   5.751   5.316
14344TIP3    H242974   4.791   5.657   5.389
14345TIP3   OH242975   5.596   1.058   1.674
14345TIP3    H142976   5.520   1.075   1.618
14345TIP3    H242977   5.602   1.136   1.730
14346TIP3   OH242978   4.743   6.561   1.893
14346TIP3    H142979   4.824   6.610   1.877
14346TIP3    H242980   4.698   6.562   1.808
14347TIP3   OH242981   0.169   6.343   5.950
14347TIP3    H142982   0.204   6.402   5.883
14347TIP3    H242983   0.234   6.347   6.021
14348TIP3   OH242984   3.906   4.561   3.913
14348TIP3    H142985   3.872   4.512   3.988
14348TIP3    H242986   3.997   4.580   3.936
14349TIP3   OH242987   2.380   6.891   0.576
14349TIP3    H142988   2.405   6.800   0.592
14349TIP3    H242989   2.408   6.908   0.486
14350TIP3   OH242990   2.156   4.284   2.129
14350TIP3    H142991   2.208   4.345   2.076
14350TIP3    H242992   2.108   4.340   2.189
14351TIP3   OH242993   7.296   7.428   2.559
14351TIP3    H142994   7.257   7.350   2.598
14351TIP3    H242995   7.279   7.419   2.465
14352TIP3   OH242996   4.526   3.383   5.624
14352TIP3    H142997   4.565   3.385   5.712
14352TIP3    H242998   4.433   3.400   5.639
14353TIP3   OH242999   5.961   0.542   4.768
14353TIP3    H143000   6.027   0.606   4.744
14353TIP3    H243001   5.884   0.566   4.716
14354TIP3   OH243002   2.495   3.175   6.208
14354TIP3    H143003   2.583   3.147   6.183
14354TIP3    H243004   2.486   3.262   6.169
14355TIP3   OH243005   0.491   7.072   2.975
14355TIP3    H143006   0.493   7.053   3.069
14355TIP3    H243007   0.497   7.167   2.970
14356TIP3   OH243008   1.841   0.602   5.637
14356TIP3    H143009   1.841   0.693   5.610
14356TIP3    H243010   1.888   0.601   5.721
14357TIP3   OH243011   1.599   4.753   2.378
14357TIP3    H143012   1.589   4.816   2.307
14357TIP3    H243013   1.523   4.769   2.435
14358TIP3   OH243014   0.050   7.840   5.581
14358TIP3    H143015   0.100   7.905   5.533
14358TIP3    H243016  -0.038   7.842   5.542
14359TIP3   OH243017   3.215   5.632   6.261
14359TIP3    H143018   3.130   5.667   6.234
14359TIP3    H243019   3.276   5.666   6.195
14360TIP3   OH243020   1.174   2.865   6.163
14360TIP3    H143021   1.123   2.913   6.229
14360TIP3    H243022   1.182   2.927   6.090
14361TIP3   OH243023   5.429   3.693   5.544
14361TIP3    H143024   5.476   3.745   5.478
14361TIP3    H243025   5.436   3.745   5.624
14362TIP3   OH243026   3.481   3.751   3.681
14362TIP3    H143027   3.437   3.709   3.754
14362TIP3    H243028   3.438   3.715   3.603
14363TIP3   OH243029   6.196   6.229   6.548
14363TIP3    H143030   6.206   6.256   6.639
14363TIP3    H243031   6.104   6.245   6.528
14364TIP3   OH243032   4.933   3.223   5.868
14364TIP3    H143033   4.942   3.130   5.850
14364TIP3    H243034   4.964   3.267   5.789
14365TIP3   OH243035   3.758   0.650   4.722
14365TIP3    H143036   3.704   0.657   4.801
14365TIP3    H243037   3.773   0.741   4.695
14366TIP3   OH243038   0.240   4.979   5.148
14366TIP3    H143039   0.272   4.967   5.238
14366TIP3    H243040   0.311   4.946   5.093
14367TIP3   OH243041   0.614   1.880   5.724
14367TIP3    H143042   0.534   1.908   5.681
14367TIP3    H243043   0.586   1.813   5.787
14368TIP3   OH243044   0.423   4.835   2.716
14368TIP3    H143045   0.374   4.863   2.639
14368TIP3    H243046   0.359   4.839   2.787
14369TIP3   OH243047   5.680   7.225   6.363
14369TIP3    H143048   5.674   7.307   6.411
14369TIP3    H243049   5.604   7.174   6.391
14370TIP3   OH243050   3.599  -0.029   2.321
14370TIP3    H143051   3.536  -0.068   2.382
14370TIP3    H243052   3.570   0.062   2.312
14371TIP3   OH243053   3.704   4.453   5.630
14371TIP3    H143054   3.728   4.538   5.667
14371TIP3    H243055   3.713   4.464   5.535
14372TIP3   OH243056   7.886   4.290   1.309
14372TIP3    H143057   7.799   4.304   1.272
14372TIP3    H243058   7.898   4.195   1.310
14373TIP3   OH243059   4.986   5.349   3.043
14373TIP3    H143060   5.040   5.274   3.068
14373TIP3    H243061   4.913   5.347   3.104
14374TIP3   OH243062   7.607   7.616   2.942
14374TIP3    H143063   7.576   7.587   2.856
14374TIP3    H243064   7.528   7.620   2.995
14375TIP3   OH243065   6.657   3.142   5.754
14375TIP3    H143066   6.650   3.222   5.702
14375TIP3    H243067   6.574   3.097   5.740
14376TIP3   OH243068   6.037   2.874   0.170
14376TIP3    H143069   6.002   2.826   0.095
14376TIP3    H243070   5.964   2.875   0.233
14377TIP3   OH243071   6.681   3.540   4.051
14377TIP3    H143072   6.598   3.569   4.014
14377TIP3    H243073   6.684   3.582   4.138
14378TIP3   OH243074   7.756   4.888   1.337
14378TIP3    H143075   7.799   4.960   1.384
14378TIP3    H243076   7.784   4.810   1.384
14379TIP3   OH243077   4.010   7.483   1.673
14379TIP3    H143078   4.045   7.395   1.688
14379TIP3    H243079   3.929   7.485   1.723
14380TIP3   OH243080   7.047   5.751   4.439
14380TIP3    H143081   6.957   5.732   4.413
14380TIP3    H243082   7.048   5.845   4.458
14381TIP3   OH243083   2.854   0.770   1.640
14381TIP3    H143084   2.874   0.696   1.698
14381TIP3    H243085   2.905   0.753   1.561
14382TIP3   OH243086   1.947   3.404   0.575
14382TIP3    H143087   1.965   3.312   0.593
14382TIP3    H243088   1.882   3.402   0.505
14383TIP3   OH243089   0.836   1.779   6.629
14383TIP3    H143090   0.778   1.744   6.697
14383TIP3    H243091   0.805   1.868   6.614
14384TIP3   OH243092   7.407   7.223   2.973
14384TIP3    H143093   7.462   7.236   2.896
14384TIP3    H243094   7.392   7.129   2.976
14385TIP3   OH243095   6.840   4.062   1.555
14385TIP3    H143096   6.765   4.014   1.521
14385TIP3    H243097   6.854   4.027   1.643
14386TIP3   OH243098   2.566   1.885   0.569
14386TIP3    H143099   2.508   1.927   0.506
14386TIP3    H243100   2.600   1.808   0.522
14387TIP3   OH243101   1.305   3.673   2.029
14387TIP3    H143102   1.327   3.582   2.051
14387TIP3    H243103   1.388   3.712   2.004
14388TIP3   OH243104   1.913   2.816   3.980
14388TIP3    H143105   1.877   2.809   4.068
14388TIP3    H243106   2.001   2.852   3.993
14389TIP3   OH243107   7.875   2.188   1.348
14389TIP3    H143108   7.832   2.273   1.355
14389TIP3    H243109   7.968   2.206   1.362
14390TIP3   OH243110   4.428   0.858   0.095
14390TIP3    H143111   4.406   0.951   0.094
14390TIP3    H243112   4.409   0.829   0.184
14391TIP3   OH243113   1.469   5.825   6.346
14391TIP3    H143114   1.468   5.869   6.430
14391TIP3    H243115   1.462   5.895   6.281
14392TIP3   OH243116   0.701   3.435   2.786
14392TIP3    H143117   0.715   3.351   2.831
14392TIP3    H243118   0.757   3.497   2.834
14393TIP3   OH243119   5.082   6.334   2.335
14393TIP3    H143120   5.004   6.279   2.329
14393TIP3    H243121   5.083   6.385   2.254
14394TIP3   OH243122   7.806   3.433   1.644
14394TIP3    H143123   7.727   3.431   1.698
14394TIP3    H243124   7.878   3.435   1.708
14395TIP3   OH243125   2.916   5.653   3.289
14395TIP3    H143126   2.984   5.712   3.320
14395TIP3    H243127   2.946   5.566   3.316
14396TIP3   OH243128   7.047   6.569   3.097
14396TIP3    H143129   7.045   6.485   3.143
14396TIP3    H243130   7.140   6.588   3.085
14397TIP3   OH243131   5.635   0.234   4.362
14397TIP3    H143132   5.610   0.282   4.283
14397TIP3    H243133   5.569   0.258   4.427
14398TIP3   OH243134   1.622   5.236   3.098
14398TIP3    H143135   1.548   5.182   3.125
14398TIP3    H243136   1.616   5.239   3.002
14399TIP3   OH243137   3.052   6.502   2.267
14399TIP3    H143138   2.998   6.515   2.345
14399TIP3    H243139   3.008   6.433   2.218
14400TIP3   OH243140   7.243   4.438   1.971
14400TIP3    H143141   7.250   4.485   2.055
14400TIP3    H243142   7.325   4.458   1.926
14401TIP3   OH243143   2.391   5.980   2.936
14401TIP3    H143144   2.320   5.918   2.955
14401TIP3    H243145   2.349   6.066   2.938
14402TIP3   OH243146   5.722   4.453   2.554
14402TIP3    H143147   5.817   4.443   2.558
14402TIP3    H243148   5.690   4.403   2.628
14403TIP3   OH243149   3.511   5.810   2.612
14403TIP3    H143150   3.512   5.898   2.573
14403TIP3    H243151   3.476   5.823   2.700
14404TIP3   OH243152   1.574   2.372   2.126
14404TIP3    H143153   1.573   2.389   2.220
14404TIP3    H243154   1.504   2.309   2.112
14405TIP3   OH243155   0.428   6.881   6.669
14405TIP3    H143156   0.362   6.838   6.723
14405TIP3    H243157   0.389   6.965   6.645
14406TIP3   OH243158   0.128   2.836   4.914
14406TIP3    H143159   0.172   2.791   4.986
14406TIP3    H243160   0.115   2.925   4.946
14407TIP3   OH243161   8.282   6.246   3.508
14407TIP3    H143162   8.227   6.255   3.430
14407TIP3    H243163   8.227   6.279   3.580
14408TIP3   OH243164   1.716   1.382   1.089
14408TIP3    H143165   1.659   1.455   1.111
14408TIP3    H243166   1.683   1.350   1.004
14409TIP3   OH243167   6.504   0.540   2.147
14409TIP3    H143168   6.420   0.583   2.132
14409TIP3    H243169   6.567   0.592   2.097
14410TIP3   OH243170   4.521   4.662   1.615
14410TIP3    H143171   4.568   4.580   1.628
14410TIP3    H243172   4.461   4.644   1.542
14411TIP3   OH243173   7.673   3.056   2.095
14411TIP3    H143174   7.624   2.975   2.099
14411TIP3    H243175   7.617   3.121   2.139
14412TIP3   OH243176   2.126   3.530   4.506
14412TIP3    H143177   2.155   3.484   4.428
14412TIP3    H243178   2.032   3.511   4.512
14413TIP3   OH243179   0.541   4.828   0.218
14413TIP3    H143180   0.511   4.832   0.309
14413TIP3    H243181   0.625   4.876   0.219
14414TIP3   OH243182   4.892   5.195   4.179
14414TIP3    H143183   4.946   5.116   4.170
14414TIP3    H243184   4.870   5.198   4.272
14415TIP3   OH243185   7.514   2.009   6.762
14415TIP3    H143186   7.469   1.934   6.802
14415TIP3    H243187   7.443   2.063   6.727
14416TIP3   OH243188   6.935   6.899   1.185
14416TIP3    H143189   6.848   6.899   1.225
14416TIP3    H243190   6.995   6.914   1.259
14417TIP3   OH243191   4.881   4.218   5.325
14417TIP3    H143192   4.813   4.266   5.373
14417TIP3    H243193   4.846   4.129   5.317
14418TIP3   OH243194   0.167   5.538   5.339
14418TIP3    H143195   0.182   5.457   5.290
14418TIP3    H243196   0.246   5.549   5.393
14419TIP3   OH243197   6.919   4.483   4.859
14419TIP3    H143198   6.851   4.416   4.868
14419TIP3    H243199   6.978   4.466   4.932
14420TIP3   OH243200   1.535   0.804   5.812
14420TIP3    H143201   1.554   0.795   5.719
14420TIP3    H243202   1.620   0.819   5.853
14421TIP3   OH243203   6.479   3.668   5.313
14421TIP3    H143204   6.500   3.718   5.392
14421TIP3    H243205   6.383   3.668   5.310
14422TIP3   OH243206   6.767   5.258   2.376
14422TIP3    H143207   6.832   5.201   2.416
14422TIP3    H243208   6.756   5.329   2.439
14423TIP3   OH243209   7.094   3.529   2.813
14423TIP3    H143210   7.096   3.616   2.775
14423TIP3    H243211   7.101   3.544   2.908
14424TIP3   OH243212   0.122   1.946   6.479
14424TIP3    H143213   0.179   2.020   6.457
14424TIP3    H243214   0.098   1.909   6.394
14425TIP3   OH243215   4.814   4.140   4.876
14425TIP3    H143216   4.855   4.071   4.928
14425TIP3    H243217   4.721   4.135   4.898
14426TIP3   OH243218   3.995   2.776   6.778
14426TIP3    H143219   3.907   2.812   6.790
14426TIP3    H243220   4.018   2.741   6.864
14427TIP3   OH243221   0.363   1.438   2.427
14427TIP3    H143222   0.452   1.405   2.439
14427TIP3    H243223   0.307   1.364   2.448
14428TIP3   OH243224   7.086   7.554   5.773
14428TIP3    H143225   7.050   7.622   5.717
14428TIP3    H243226   7.013   7.494   5.787
14429TIP3   OH243227   4.004   3.927   3.802
14429TIP3    H143228   3.985   3.833   3.807
14429TIP3    H243229   4.067   3.935   3.731
14430TIP3   OH243230   3.377   1.281   6.745
14430TIP3    H143231   3.359   1.247   6.833
14430TIP3    H243232   3.292   1.305   6.710
14431TIP3   OH243233   7.500   5.561   2.338
14431TIP3    H143234   7.588   5.575   2.304
14431TIP3    H243235   7.443   5.600   2.272
14432TIP3   OH243236   2.652   5.422   2.823
14432TIP3    H143237   2.640   5.327   2.829
14432TIP3    H243238   2.587   5.450   2.758
14433TIP3   OH243239   8.229   2.451   3.674
14433TIP3    H143240   8.315   2.436   3.636
14433TIP3    H243241   8.214   2.545   3.665
14434TIP3   OH243242   6.507   1.945   4.413
14434TIP3    H143243   6.538   1.980   4.496
14434TIP3    H243244   6.437   2.004   4.386
14435TIP3   OH243245   3.584   5.244   1.445
14435TIP3    H143246   3.611   5.222   1.534
14435TIP3    H243247   3.628   5.327   1.426
14436TIP3   OH243248   7.836   7.078   2.756
14436TIP3    H143249   7.830   7.068   2.661
14436TIP3    H243250   7.891   7.005   2.785
14437TIP3   OH243251   5.704   1.034   1.363
14437TIP3    H143252   5.756   0.973   1.311
14437TIP3    H243253   5.760   1.058   1.436
14438TIP3   OH243254   7.755   5.773   3.916
14438TIP3    H143255   7.810   5.843   3.949
14438TIP3    H243256   7.796   5.746   3.834
14439TIP3   OH243257   8.415   4.860   5.210
14439TIP3    H143258   8.489   4.916   5.186
14439TIP3    H243259   8.353   4.870   5.137
14440TIP3   OH243260   3.510   7.385   2.976
14440TIP3    H143261   3.545   7.444   2.909
14440TIP3    H243262   3.586   7.366   3.032
14441TIP3   OH243263   5.783   1.739   3.662
14441TIP3    H143264   5.862   1.793   3.655
14441TIP3    H243265   5.763   1.737   3.756
14442TIP3   OH243266   5.239   5.374   1.722
14442TIP3    H143267   5.169   5.309   1.715
14442TIP3    H243268   5.315   5.331   1.683
14443TIP3   OH243269   3.962   6.916   1.748
14443TIP3    H143270   4.051   6.945   1.770
14443TIP3    H243271   3.935   6.862   1.823
14444TIP3   OH243272   5.180   4.356   4.660
14444TIP3    H143273   5.215   4.267   4.652
14444TIP3    H243274   5.136   4.357   4.745
14445TIP3   OH243275   1.604   6.988   2.265
14445TIP3    H143276   1.655   6.909   2.247
14445TIP3    H243277   1.619   7.005   2.358
14446TIP3   OH243278   0.245   7.919   5.771
14446TIP3    H143279   0.226   7.864   5.848
14446TIP3    H243280   0.202   7.873   5.699
14447TIP3   OH243281   6.266   2.457   0.638
14447TIP3    H143282   6.354   2.494   0.630
14447TIP3    H243283   6.271   2.374   0.591
14448TIP3   OH243284   3.248   5.365   4.683
14448TIP3    H143285   3.187   5.422   4.731
14448TIP3    H243286   3.298   5.425   4.628
14449TIP3   OH243287   1.451   0.922   2.060
14449TIP3    H143288   1.434   0.914   1.966
14449TIP3    H243289   1.507   0.847   2.080
14450TIP3   OH243290   3.453   2.708   5.196
14450TIP3    H143291   3.487   2.621   5.217
14450TIP3    H243292   3.403   2.696   5.115
14451TIP3   OH243293   7.629   3.965   1.359
14451TIP3    H143294   7.556   3.903   1.359
14451TIP3    H243295   7.696   3.923   1.412
14452TIP3   OH243296   2.261   6.050   0.947
14452TIP3    H143297   2.272   5.960   0.979
14452TIP3    H243298   2.318   6.103   1.002
14453TIP3   OH243299   2.853   6.010   6.556
14453TIP3    H143300   2.862   6.018   6.461
14453TIP3    H243301   2.769   5.967   6.569
14454TIP3   OH243302   0.205   4.370   2.619
14454TIP3    H143303   0.189   4.290   2.569
14454TIP3    H243304   0.120   4.413   2.625
14455TIP3   OH243305   5.793   1.569   6.138
14455TIP3    H143306   5.763   1.617   6.061
14455TIP3    H243307   5.825   1.637   6.197
14456TIP3   OH243308   3.760   0.475   4.491
14456TIP3    H143309   3.729   0.551   4.542
14456TIP3    H243310   3.855   0.488   4.485
14457TIP3   OH243311   3.447   3.203   6.452
14457TIP3    H143312   3.379   3.205   6.519
14457TIP3    H243313   3.404   3.166   6.375
14458TIP3   OH243314   1.154   2.511   2.376
14458TIP3    H143315   1.181   2.419   2.384
14458TIP3    H243316   1.215   2.548   2.312
14459TIP3   OH243317   4.366   4.585   1.357
14459TIP3    H143318   4.307   4.536   1.415
14459TIP3    H243319   4.311   4.654   1.320
14460TIP3   OH243320   0.560   1.589   2.136
14460TIP3    H143321   0.512   1.657   2.183
14460TIP3    H243322   0.651   1.598   2.164
14461TIP3   OH243323   0.772   4.667   1.842
14461TIP3    H143324   0.790   4.759   1.859
14461TIP3    H243325   0.700   4.667   1.779
14462TIP3   OH243326   6.949   2.570   2.668
14462TIP3    H143327   6.926   2.508   2.599
14462TIP3    H243328   7.005   2.635   2.624
14463TIP3   OH243329   4.442   1.457   2.724
14463TIP3    H143330   4.481   1.378   2.760
14463TIP3    H243331   4.455   1.450   2.630
14464TIP3   OH243332   1.206   0.724   6.601
14464TIP3    H143333   1.179   0.720   6.509
14464TIP3    H243334   1.245   0.811   6.611
14465TIP3   OH243335   6.729   0.797   1.181
14465TIP3    H143336   6.784   0.726   1.213
14465TIP3    H243337   6.677   0.823   1.258
14466TIP3   OH243338   1.746   4.082   1.169
14466TIP3    H143339   1.826   4.033   1.154
14466TIP3    H243340   1.697   4.029   1.233
14467TIP3   OH243341   3.293   2.868   3.768
14467TIP3    H143342   3.321   2.954   3.800
14467TIP3    H243343   3.206   2.854   3.806
14468TIP3   OH243344   5.473   1.779   4.044
14468TIP3    H143345   5.520   1.695   4.044
14468TIP3    H243346   5.392   1.761   3.996
14469TIP3   OH243347   2.633   4.953   2.196
14469TIP3    H143348   2.672   4.897   2.130
14469TIP3    H243349   2.658   4.914   2.280
14470TIP3   OH243350   2.798   1.968   2.242
14470TIP3    H143351   2.813   2.061   2.227
14470TIP3    H243352   2.872   1.940   2.296
14471TIP3   OH243353   3.444   4.917   2.894
14471TIP3    H143354   3.489   4.914   2.809
14471TIP3    H243355   3.431   4.826   2.918
14472TIP3   OH243356   6.714   3.591   6.465
14472TIP3    H143357   6.714   3.648   6.388
14472TIP3    H243358   6.800   3.548   6.464
14473TIP3   OH243359   6.011   3.139   3.835
14473TIP3    H143360   6.107   3.144   3.835
14473TIP3    H243361   5.993   3.045   3.836
14474TIP3   OH243362   6.597   5.561   5.902
14474TIP3    H143363   6.512   5.521   5.883
14474TIP3    H243364   6.583   5.608   5.984
14475TIP3   OH243365   4.454   6.762   1.744
14475TIP3    H143366   4.472   6.791   1.834
14475TIP3    H243367   4.374   6.710   1.751
14476TIP3   OH243368   7.831   5.082   2.099
14476TIP3    H143369   7.832   5.115   2.188
14476TIP3    H243370   7.752   5.028   2.094
14477TIP3   OH243371   2.952   6.706   1.795
14477TIP3    H143372   2.997   6.760   1.860
14477TIP3    H243373   2.883   6.763   1.760
14478TIP3   OH243374   0.344   2.014   1.520
14478TIP3    H143375   0.339   2.045   1.611
14478TIP3    H243376   0.268   1.957   1.510
14479TIP3   OH243377   2.079   0.979   3.553
14479TIP3    H143378   2.145   0.940   3.495
14479TIP3    H243379   2.084   1.073   3.534
14480TIP3   OH243380   0.331   5.550   0.897
14480TIP3    H143381   0.278   5.488   0.948
14480TIP3    H243382   0.268   5.603   0.850
14481TIP3   OH243383   2.628   3.567   1.938
14481TIP3    H143384   2.705   3.593   1.989
14481TIP3    H243385   2.559   3.626   1.967
14482TIP3   OH243386   5.417   2.965   5.009
14482TIP3    H143387   5.458   3.035   4.958
14482TIP3    H243388   5.447   2.884   4.968
14483TIP3   OH243389   2.267   3.728   6.180
14483TIP3    H143390   2.279   3.822   6.193
14483TIP3    H243391   2.316   3.686   6.250
14484TIP3   OH243392   6.512   2.270   1.651
14484TIP3    H143393   6.491   2.177   1.643
14484TIP3    H243394   6.544   2.280   1.741
14485TIP3   OH243395   7.431   2.764   3.338
14485TIP3    H143396   7.491   2.701   3.298
14485TIP3    H243397   7.360   2.772   3.275
14486TIP3   OH243398   6.086   6.503   1.493
14486TIP3    H143399   6.008   6.449   1.481
14486TIP3    H243400   6.104   6.540   1.407
14487TIP3   OH243401   3.927   3.614   1.587
14487TIP3    H143402   3.956   3.618   1.678
14487TIP3    H243403   3.942   3.523   1.561
14488TIP3   OH243404   1.774   3.097   6.880
14488TIP3    H143405   1.831   3.113   6.956
14488TIP3    H243406   1.833   3.059   6.815
14489TIP3   OH243407   5.378   2.009   3.176
14489TIP3    H143408   5.354   2.097   3.205
14489TIP3    H243409   5.341   1.951   3.244
14490TIP3   OH243410   4.456   5.653   2.886
14490TIP3    H143411   4.541   5.687   2.859
14490TIP3    H243412   4.440   5.578   2.829
14491TIP3   OH243413   5.459   2.903   1.086
14491TIP3    H143414   5.452   2.819   1.042
14491TIP3    H243415   5.491   2.963   1.018
14492TIP3   OH243416   1.606   0.395   5.401
14492TIP3    H143417   1.565   0.420   5.484
14492TIP3    H243418   1.697   0.377   5.424
14493TIP3   OH243419   4.711   0.902   0.869
14493TIP3    H143420   4.700   0.864   0.781
14493TIP3    H243421   4.684   0.993   0.860
14494TIP3   OH243422   5.868   5.087   4.924
14494TIP3    H143423   5.782   5.069   4.887
14494TIP3    H243424   5.907   5.001   4.936
14495TIP3   OH243425   7.572   3.754   0.194
14495TIP3    H143426   7.498   3.814   0.185
14495TIP3    H243427   7.595   3.759   0.287
14496TIP3   OH243428   1.046   0.149   5.598
14496TIP3    H143429   1.057   0.121   5.689
14496TIP3    H243430   1.046   0.245   5.603
14497TIP3   OH243431   7.837   0.712   1.029
14497TIP3    H143432   7.805   0.772   0.962
14497TIP3    H243433   7.925   0.744   1.050
14498TIP3   OH243434   8.204   1.670   4.113
14498TIP3    H143435   8.276   1.617   4.080
14498TIP3    H243436   8.246   1.733   4.172
14499TIP3   OH243437   6.141   1.993   1.039
14499TIP3    H143438   6.229   2.024   1.019
14499TIP3    H243439   6.154   1.919   1.098
14500TIP3   OH243440   0.754   6.956   0.377
14500TIP3    H143441   0.813   6.881   0.368
14500TIP3    H243442   0.684   6.925   0.435
14501TIP3   OH243443   1.333   7.263   4.986
14501TIP3    H143444   1.380   7.262   4.903
14501TIP3    H243445   1.241   7.254   4.962
14502TIP3   OH243446   1.802   7.737   3.587
14502TIP3    H143447   1.877   7.714   3.532
14502TIP3    H243448   1.836   7.733   3.676
14503TIP3   OH243449   3.835   2.661   6.500
14503TIP3    H143450   3.850   2.737   6.557
14503TIP3    H243451   3.800   2.594   6.558
14504TIP3   OH243452   8.386   4.041   3.567
14504TIP3    H143453   8.377   4.069   3.658
14504TIP3    H243454   8.403   3.947   3.572
14505TIP3   OH243455   7.888   6.172   2.830
14505TIP3    H143456   7.890   6.268   2.833
14505TIP3    H243457   7.964   6.145   2.881
14506TIP3   OH243458   5.581   3.176   5.127
14506TIP3    H143459   5.518   3.246   5.112
14506TIP3    H243460   5.533   3.096   5.104
14507TIP3   OH243461   7.900   4.966   5.751
14507TIP3    H143462   7.876   5.019   5.827
14507TIP3    H243463   7.980   4.921   5.778
14508TIP3   OH243464   0.776   6.672   3.685
14508TIP3    H143465   0.817   6.605   3.629
14508TIP3    H243466   0.691   6.689   3.644
14509TIP3   OH243467   4.484   4.271   3.909
14509TIP3    H143468   4.525   4.354   3.885
14509TIP3    H243469   4.557   4.217   3.939
14510TIP3   OH243470   5.924   6.073   4.537
14510TIP3    H143471   5.928   6.147   4.598
14510TIP3    H243472   5.891   6.000   4.589
14511TIP3   OH243473   0.423   7.783   4.967
14511TIP3    H143474   0.511   7.744   4.969
14511TIP3    H243475   0.367   7.715   4.929
14512TIP3   OH243476   7.934   6.455   2.446
14512TIP3    H143477   7.913   6.505   2.526
14512TIP3    H243478   7.864   6.390   2.440
14513TIP3   OH243479   7.810   2.713   1.454
14513TIP3    H143480   7.820   2.779   1.523
14513TIP3    H243481   7.717   2.689   1.458
14514TIP3   OH243482   7.354   7.777   5.640
14514TIP3    H143483   7.424   7.805   5.581
14514TIP3    H243484   7.278   7.829   5.615
14515TIP3   OH243485   4.878   7.538   6.121
14515TIP3    H143486   4.880   7.492   6.205
14515TIP3    H243487   4.966   7.574   6.112
14516TIP3   OH243488   5.170   6.097   6.095
14516TIP3    H143489   5.076   6.112   6.092
14516TIP3    H243490   5.189   6.045   6.016
14517TIP3   OH243491   3.950   6.568   6.506
14517TIP3    H143492   4.035   6.557   6.549
14517TIP3    H243493   3.973   6.589   6.415
14518TIP3   OH243494   3.276   0.135   6.497
14518TIP3    H143495   3.289   0.228   6.519
14518TIP3    H243496   3.204   0.108   6.554
14519TIP3   OH243497   7.720   2.418   1.411
14519TIP3    H143498   7.643   2.474   1.420
14519TIP3    H243499   7.761   2.420   1.498
14520TIP3   OH243500   4.469   6.514   1.910
14520TIP3    H143501   4.559   6.539   1.929
14520TIP3    H243502   4.431   6.493   1.995
14521TIP3   OH243503   5.177   5.886   4.963
14521TIP3    H143504   5.090   5.881   5.002
14521TIP3    H243505   5.232   5.924   5.031
14522TIP3   OH243506   0.977   4.528   4.775
14522TIP3    H143507   0.952   4.607   4.823
14522TIP3    H243508   0.898   4.474   4.777
14523TIP3   OH243509   4.276   0.367   4.794
14523TIP3    H143510   4.308   0.369   4.703
14523TIP3    H243511   4.223   0.446   4.803
14524TIP3   OH243512   7.429   7.887   4.572
14524TIP3    H143513   7.440   7.817   4.637
14524TIP3    H243514   7.391   7.844   4.496
14525TIP3   OH243515   7.225   3.436   0.513
14525TIP3    H143516   7.268   3.433   0.598
14525TIP3    H243517   7.155   3.372   0.519
14526TIP3   OH243518   2.163   5.096   2.706
14526TIP3    H143519   2.142   5.039   2.780
14526TIP3    H243520   2.078   5.125   2.673
14527TIP3   OH243521   0.378   4.732   5.890
14527TIP3    H143522   0.447   4.666   5.890
14527TIP3    H243523   0.297   4.682   5.897
14528TIP3   OH243524   0.158   5.827   5.275
14528TIP3    H143525   0.235   5.866   5.318
14528TIP3    H243526   0.164   5.734   5.296
14529TIP3   OH243527   2.767   2.941   1.344
14529TIP3    H143528   2.766   3.036   1.358
14529TIP3    H243529   2.858   2.922   1.321
14530TIP3   OH243530   7.756   6.466   4.377
14530TIP3    H143531   7.681   6.490   4.321
14530TIP3    H243532   7.755   6.371   4.378
14531TIP3   OH243533   1.157   0.635   1.187
14531TIP3    H143534   1.099   0.661   1.258
14531TIP3    H243535   1.231   0.593   1.231
14532TIP3   OH243536   2.860   5.624   6.389
14532TIP3    H143537   2.851   5.606   6.483
14532TIP3    H243538   2.830   5.714   6.378
14533TIP3   OH243539   5.227   0.888   2.703
14533TIP3    H143540   5.316   0.882   2.669
14533TIP3    H243541   5.220   0.978   2.735
14534TIP3   OH243542   6.132   5.358   3.608
14534TIP3    H143543   6.118   5.433   3.550
14534TIP3    H243544   6.051   5.308   3.603
14535TIP3   OH243545   1.760   0.821   2.608
14535TIP3    H143546   1.838   0.817   2.554
14535TIP3    H243547   1.698   0.875   2.558
14536TIP3   OH243548   6.524   3.110   1.711
14536TIP3    H143549   6.595   3.080   1.768
14536TIP3    H243550   6.478   3.177   1.762
14537TIP3   OH243551   0.528   6.261   5.569
14537TIP3    H143552   0.589   6.310   5.625
14537TIP3    H243553   0.476   6.209   5.630
14538TIP3   OH243554   7.759   5.624   1.557
14538TIP3    H143555   7.852   5.609   1.545
14538TIP3    H243556   7.740   5.701   1.504
14539TIP3   OH243557   4.962   5.070  -0.005
14539TIP3    H143558   5.042   5.034   0.034
14539TIP3    H243559   4.939   5.008  -0.074
14540TIP3   OH243560   3.192   0.165   1.250
14540TIP3    H143561   3.223   0.177   1.160
14540TIP3    H243562   3.272   0.157   1.301
14541TIP3   OH243563   0.968   3.087   4.904
14541TIP3    H143564   0.907   3.096   4.831
14541TIP3    H243565   1.036   3.027   4.872
14542TIP3   OH243566   0.918   7.189   3.993
14542TIP3    H143567   0.968   7.119   4.034
14542TIP3    H243568   0.949   7.190   3.902
14543TIP3   OH243569   2.715   4.356   2.726
14543TIP3    H143570   2.738   4.422   2.792
14543TIP3    H243571   2.620   4.347   2.733
14544TIP3   OH243572   4.939   1.605   1.959
14544TIP3    H143573   4.876   1.661   2.004
14544TIP3    H243574   4.993   1.666   1.908
14545TIP3   OH243575   8.189   1.961   1.418
14545TIP3    H143576   8.118   1.897   1.413
14545TIP3    H243577   8.156   2.028   1.477
14546TIP3   OH243578   7.571   0.999   0.633
14546TIP3    H143579   7.541   0.970   0.546
14546TIP3    H243580   7.494   1.037   0.674
14547TIP3   OH243581   3.509   6.286   5.638
14547TIP3    H143582   3.485   6.193   5.645
14547TIP3    H243583   3.451   6.320   5.570
14548TIP3   OH243584   0.497   3.326   1.468
14548TIP3    H143585   0.567   3.263   1.486
14548TIP3    H243586   0.489   3.378   1.547
14549TIP3   OH243587   3.573   0.986   3.428
14549TIP3    H143588   3.533   1.042   3.361
14549TIP3    H243589   3.654   1.031   3.451
14550TIP3   OH243590   2.995   7.174   2.569
14550TIP3    H143591   3.080   7.184   2.611
14550TIP3    H243592   3.014   7.131   2.485
14551TIP3   OH243593   2.413   6.269   5.702
14551TIP3    H143594   2.343   6.333   5.701
14551TIP3    H243595   2.419   6.242   5.794
14552TIP3   OH243596   3.589   1.404   0.852
14552TIP3    H143597   3.509   1.388   0.902
14552TIP3    H243598   3.607   1.498   0.866
14553TIP3   OH243599   4.190   6.295   1.582
14553TIP3    H143600   4.228   6.235   1.519
14553TIP3    H243601   4.163   6.240   1.655
14554TIP3   OH243602   4.585   1.566   3.114
14554TIP3    H143603   4.589   1.660   3.128
14554TIP3    H243604   4.508   1.538   3.163
14555TIP3   OH243605   2.610   0.041   4.479
14555TIP3    H143606   2.530  -0.011   4.484
14555TIP3    H243607   2.679  -0.018   4.510
14556TIP3   OH243608   6.146   4.043   4.754
14556TIP3    H143609   6.185   3.994   4.682
14556TIP3    H243610   6.188   4.129   4.749
14557TIP3   OH243611   2.119   1.649   6.055
14557TIP3    H143612   2.187   1.613   5.998
14557TIP3    H243613   2.130   1.744   6.048
14558TIP3   OH243614   6.642   7.484   5.481
14558TIP3    H143615   6.714   7.500   5.420
14558TIP3    H243616   6.563   7.509   5.433
14559TIP3   OH243617   0.996   2.227   5.809
14559TIP3    H143618   0.931   2.162   5.783
14559TIP3    H243619   1.049   2.184   5.875
14560TIP3   OH243620   8.062   0.241   2.855
14560TIP3    H143621   8.029   0.229   2.766
14560TIP3    H243622   8.029   0.327   2.882
14561TIP3   OH243623   4.745   7.548   0.962
14561TIP3    H143624   4.704   7.483   1.019
14561TIP3    H243625   4.828   7.509   0.935
14562TIP3   OH243626   4.444   1.206   5.980
14562TIP3    H143627   4.514   1.156   5.938
14562TIP3    H243628   4.487   1.288   6.006
14563TIP3   OH243629   6.148   6.851   0.720
14563TIP3    H143630   6.109   6.792   0.784
14563TIP3    H243631   6.096   6.931   0.725
14564TIP3   OH243632   1.513   1.894   5.805
14564TIP3    H143633   1.436   1.861   5.851
14564TIP3    H243634   1.482   1.974   5.762
14565TIP3   OH243635   0.491   2.880   3.354
14565TIP3    H143636   0.493   2.891   3.259
14565TIP3    H243637   0.581   2.855   3.377
14566TIP3   OH243638   5.082   0.108   4.094
14566TIP3    H143639   5.114   0.196   4.076
14566TIP3    H243640   5.121   0.085   4.179
14567TIP3   OH243641   8.305   6.561   5.733
14567TIP3    H143642   8.225   6.607   5.708
14567TIP3    H243643   8.280   6.510   5.810
14568TIP3   OH243644   4.848   4.669   5.878
14568TIP3    H143645   4.862   4.595   5.819
14568TIP3    H243646   4.929   4.676   5.928
14569TIP3   OH243647   2.186   7.782   2.953
14569TIP3    H143648   2.249   7.729   3.001
14569TIP3    H243649   2.228   7.798   2.868
14570TIP3   OH243650   5.719   3.054   5.451
14570TIP3    H143651   5.685   3.019   5.534
14570TIP3    H243652   5.809   3.022   5.446
14571TIP3   OH243653   6.713   6.277   5.146
14571TIP3    H143654   6.772   6.351   5.157
14571TIP3    H243655   6.719   6.255   5.053
14572TIP3   OH243656   3.005   0.029   3.069
14572TIP3    H143657   3.055  -0.040   3.025
14572TIP3    H243658   2.913   0.005   3.054
14573TIP3   OH243659   0.844   5.971   3.908
14573TIP3    H143660   0.774   5.985   3.973
14573TIP3    H243661   0.808   6.004   3.826
14574TIP3   OH243662   6.390   6.915   2.185
14574TIP3    H143663   6.330   6.866   2.130
14574TIP3    H243664   6.410   6.855   2.257
14575TIP3   OH243665   3.787   6.708   2.561
14575TIP3    H143666   3.733   6.744   2.631
14575TIP3    H243667   3.845   6.646   2.605
14576TIP3   OH243668   3.176   0.423   0.583
14576TIP3    H143669   3.090   0.393   0.611
14576TIP3    H243670   3.225   0.343   0.566
14577TIP3   OH243671   3.262   4.002   5.007
14577TIP3    H143672   3.173   3.988   5.041
14577TIP3    H243673   3.315   3.938   5.055
14578TIP3   OH243674   2.645   2.553   4.529
14578TIP3    H143675   2.583   2.536   4.599
14578TIP3    H243676   2.603   2.622   4.476
14579TIP3   OH243677   7.913   3.222   3.917
14579TIP3    H143678   7.838   3.264   3.958
14579TIP3    H243679   7.906   3.244   3.824
14580TIP3   OH243680   7.990   0.557   3.660
14580TIP3    H143681   8.056   0.577   3.726
14580TIP3    H243682   8.002   0.464   3.641
14581TIP3   OH243683   7.271   3.335   3.418
14581TIP3    H143684   7.319   3.347   3.499
14581TIP3    H243685   7.242   3.244   3.419
14582TIP3   OH243686   6.054   7.914   4.493
14582TIP3    H143687   5.989   7.924   4.562
14582TIP3    H243688   6.016   7.851   4.432
14583TIP3   OH243689   1.126   5.893   0.953
14583TIP3    H143690   1.098   5.805   0.976
14583TIP3    H243691   1.045   5.941   0.934
14584TIP3   OH243692   5.688   2.194   1.223
14584TIP3    H143693   5.724   2.249   1.153
14584TIP3    H243694   5.615   2.244   1.259
14585TIP3   OH243695   8.207   2.098   4.417
14585TIP3    H143696   8.292   2.126   4.382
14585TIP3    H243697   8.154   2.177   4.418
14586TIP3   OH243698   3.717   5.190   3.675
14586TIP3    H143699   3.757   5.238   3.603
14586TIP3    H243700   3.781   5.122   3.696
14587TIP3   OH243701   8.388   7.821   1.413
14587TIP3    H143702   8.468   7.844   1.366
14587TIP3    H243703   8.324   7.801   1.345
14588TIP3   OH243704   7.202   6.713   1.267
14588TIP3    H143705   7.254   6.786   1.234
14588TIP3    H243706   7.252   6.679   1.342
14589TIP3   OH243707   2.197   3.675   5.041
14589TIP3    H143708   2.219   3.762   5.075
14589TIP3    H243709   2.215   3.615   5.113
14590TIP3   OH243710   4.393   7.779   6.587
14590TIP3    H143711   4.311   7.801   6.544
14590TIP3    H243712   4.448   7.856   6.576
14591TIP3   OH243713   8.107   0.621   1.903
14591TIP3    H143714   8.146   0.699   1.864
14591TIP3    H243715   8.134   0.625   1.995
14592TIP3   OH243716   7.049   0.882   5.048
14592TIP3    H143717   7.115   0.951   5.052
14592TIP3    H243718   6.979   0.913   5.105
14593TIP3   OH243719   4.831   2.698   3.073
14593TIP3    H143720   4.749   2.668   3.035
14593TIP3    H243721   4.855   2.630   3.135
14594TIP3   OH243722   1.544   4.268   6.247
14594TIP3    H143723   1.585   4.183   6.233
14594TIP3    H243724   1.607   4.331   6.212
14595TIP3   OH243725   2.514   1.829   5.420
14595TIP3    H143726   2.441   1.883   5.449
14595TIP3    H243727   2.504   1.825   5.324
14596TIP3   OH243728   2.092   1.167   2.035
14596TIP3    H143729   2.040   1.101   2.082
14596TIP3    H243730   2.146   1.117   1.974
14597TIP3   OH243731   3.834   5.449   4.989
14597TIP3    H143732   3.745   5.442   4.955
14597TIP3    H243733   3.876   5.366   4.967
14598TIP3   OH243734   5.239   1.618   6.770
14598TIP3    H143735   5.302   1.546   6.774
14598TIP3    H243736   5.252   1.657   6.684
14599TIP3   OH243737   6.056   1.393   0.779
14599TIP3    H143738   6.106   1.387   0.697
14599TIP3    H243739   5.992   1.462   0.762
14600TIP3   OH243740   4.289   2.051   1.389
14600TIP3    H143741   4.277   1.992   1.464
14600TIP3    H243742   4.233   2.015   1.321
14601TIP3   OH243743   4.794   0.993   2.484
14601TIP3    H143744   4.832   0.936   2.417
14601TIP3    H243745   4.870   1.031   2.529
14602TIP3   OH243746   0.365   7.088   5.539
14602TIP3    H143747   0.344   6.995   5.529
14602TIP3    H243748   0.370   7.101   5.633
14603TIP3   OH243749   1.709   0.984   2.822
14603TIP3    H143750   1.752   0.935   2.752
14603TIP3    H243751   1.776   0.992   2.890
14604TIP3   OH243752   0.193   7.846   6.795
14604TIP3    H143753   0.150   7.930   6.811
14604TIP3    H243754   0.286   7.867   6.791
14605TIP3   OH243755   5.059   4.508   1.453
14605TIP3    H143756   4.994   4.439   1.465
14605TIP3    H243757   5.143   4.466   1.474
14606TIP3   OH243758   4.188   4.072   3.957
14606TIP3    H143759   4.130   4.001   3.928
14606TIP3    H243760   4.245   4.030   4.021
14607TIP3   OH243761   5.674   1.712   3.285
14607TIP3    H143762   5.625   1.740   3.362
14607TIP3    H243763   5.609   1.702   3.216
14608TIP3   OH243764   0.525   2.524   5.295
14608TIP3    H143765   0.434   2.554   5.302
14608TIP3    H243766   0.577   2.600   5.320
14609TIP3   OH243767   8.261   0.722   4.665
14609TIP3    H143768   8.299   0.760   4.745
14609TIP3    H243769   8.238   0.797   4.612
14610TIP3   OH243770   0.221   0.354   2.244
14610TIP3    H143771   0.269   0.301   2.180
14610TIP3    H243772   0.268   0.342   2.326
14611TIP3   OH243773   2.363   5.255   3.069
14611TIP3    H143774   2.411   5.174   3.082
14611TIP3    H243775   2.272   5.228   3.057
14612TIP3   OH243776   5.278   0.374   5.239
14612TIP3    H143777   5.187   0.365   5.267
14612TIP3    H243778   5.274   0.364   5.144
14613TIP3   OH243779   7.128   3.602   0.276
14613TIP3    H143780   7.110   3.515   0.240
14613TIP3    H243781   7.144   3.587   0.369
14614TIP3   OH243782   1.255   2.644   1.589
14614TIP3    H143783   1.333   2.699   1.576
14614TIP3    H243784   1.199   2.665   1.514
14615TIP3   OH243785   6.539   2.629   6.619
14615TIP3    H143786   6.526   2.617   6.713
14615TIP3    H243787   6.588   2.551   6.592
14616TIP3   OH243788   5.232   1.012   6.331
14616TIP3    H143789   5.303   1.059   6.287
14616TIP3    H243790   5.228   0.928   6.285
14617TIP3   OH243791   7.619   3.454   2.418
14617TIP3    H143792   7.599   3.365   2.445
14617TIP3    H243793   7.540   3.504   2.442
14618TIP3   OH243794   0.956   4.271   4.033
14618TIP3    H143795   0.923   4.217   3.962
14618TIP3    H243796   0.918   4.357   4.017
14619TIP3   OH243797   4.231   5.357   3.835
14619TIP3    H143798   4.214   5.446   3.803
14619TIP3    H243799   4.159   5.339   3.895
14620TIP3   OH243800   2.414   1.194   0.808
14620TIP3    H143801   2.376   1.197   0.896
14620TIP3    H243802   2.396   1.281   0.772
14621TIP3   OH243803   6.393   1.480   3.145
14621TIP3    H143804   6.306   1.517   3.157
14621TIP3    H243805   6.401   1.414   3.215
14622TIP3   OH243806   5.025   2.570   0.971
14622TIP3    H143807   5.046   2.479   0.947
14622TIP3    H243808   4.960   2.561   1.041
14623TIP3   OH243809   5.143   2.073   3.882
14623TIP3    H143810   5.198   2.002   3.915
14623TIP3    H243811   5.129   2.130   3.958
14624TIP3   OH243812   1.405   6.796   2.106
14624TIP3    H143813   1.323   6.808   2.155
14624TIP3    H243814   1.466   6.859   2.145
14625TIP3   OH243815   7.290   2.596   6.076
14625TIP3    H143816   7.347   2.646   6.017
14625TIP3    H243817   7.288   2.649   6.157
14626TIP3   OH243818   6.243   0.742   6.497
14626TIP3    H143819   6.165   0.796   6.506
14626TIP3    H243820   6.252   0.698   6.581
14627TIP3   OH243821   5.740   2.660   3.241
14627TIP3    H143822   5.791   2.593   3.288
14627TIP3    H243823   5.706   2.614   3.164
14628TIP3   OH243824   1.947   0.591   4.274
14628TIP3    H143825   1.966   0.684   4.280
14628TIP3    H243826   1.898   0.581   4.192
14629TIP3   OH243827   5.920   4.540   5.305
14629TIP3    H143828   5.840   4.496   5.335
14629TIP3    H243829   5.931   4.612   5.366
14630TIP3   OH243830   8.077   1.428   0.009
14630TIP3    H143831   8.106   1.346   0.049
14630TIP3    H243832   8.148   1.490   0.029
14631TIP3   OH243833   3.036   1.550   6.018
14631TIP3    H143834   3.072   1.508   5.941
14631TIP3    H243835   3.068   1.640   6.014
14632TIP3   OH243836   6.001   6.218   4.322
14632TIP3    H143837   6.086   6.254   4.349
14632TIP3    H243838   5.983   6.148   4.384
14633TIP3   OH243839   6.338   0.528   4.669
14633TIP3    H143840   6.270   0.595   4.669
14633TIP3    H243841   6.342   0.498   4.578
14634TIP3   OH243842   1.551   0.114   0.691
14634TIP3    H143843   1.550   0.054   0.766
14634TIP3    H243844   1.642   0.144   0.685
14635TIP3   OH243845   0.987   1.510   5.893
14635TIP3    H143846   0.957   1.420   5.883
14635TIP3    H243847   0.930   1.547   5.960
14636TIP3   OH243848   3.120   5.485   5.776
14636TIP3    H143849   3.057   5.456   5.842
14636TIP3    H243850   3.149   5.571   5.807
14637TIP3   OH243851   3.629   3.453   4.290
14637TIP3    H143852   3.703   3.408   4.248
14637TIP3    H243853   3.668   3.529   4.332
14638TIP3   OH243854   8.115   3.164   3.424
14638TIP3    H143855   8.061   3.164   3.346
14638TIP3    H243856   8.122   3.256   3.448
14639TIP3   OH243857   5.827   6.031   6.330
14639TIP3    H143858   5.750   5.973   6.330
14639TIP3    H243859   5.892   5.985   6.277
14640TIP3   OH243860   5.090   5.497   2.269
14640TIP3    H143861   5.131   5.574   2.230
14640TIP3    H243862   5.102   5.509   2.363
14641TIP3   OH243863   4.866   5.364   5.519
14641TIP3    H143864   4.816   5.427   5.571
14641TIP3    H243865   4.925   5.323   5.582
14642TIP3   OH243866   6.114   0.793   5.165
14642TIP3    H143867   6.204   0.775   5.192
14642TIP3    H243868   6.089   0.716   5.113
14643TIP3   OH243869   0.118   2.084   1.816
14643TIP3    H143870   0.090   1.996   1.791
14643TIP3    H243871   0.211   2.075   1.835
14644TIP3   OH243872   8.095   3.130   5.906
14644TIP3    H143873   8.063   3.040   5.899
14644TIP3    H243874   8.151   3.141   5.829
14645TIP3   OH243875   3.159   5.462   2.154
14645TIP3    H143876   3.190   5.444   2.243
14645TIP3    H243877   3.108   5.542   2.162
14646TIP3   OH243878   1.364   1.546   6.262
14646TIP3    H143879   1.303   1.543   6.189
14646TIP3    H243880   1.393   1.637   6.266
14647TIP3   OH243881   4.895   3.781   1.684
14647TIP3    H143882   4.844   3.739   1.614
14647TIP3    H243883   4.831   3.801   1.751
14648TIP3   OH243884   6.481   6.699   6.457
14648TIP3    H143885   6.443   6.612   6.443
14648TIP3    H243886   6.502   6.701   6.551
14649TIP3   OH243887   4.567   7.623   3.857
14649TIP3    H143888   4.549   7.667   3.939
14649TIP3    H243889   4.506   7.662   3.794
14650TIP3   OH243890   0.066   5.812   3.219
14650TIP3    H143891   0.085   5.848   3.305
14650TIP3    H243892   0.028   5.884   3.170
14651TIP3   OH243893   5.288   4.490   2.579
14651TIP3    H143894   5.193   4.491   2.580
14651TIP3    H243895   5.314   4.538   2.657
14652TIP3   OH243896   2.722   3.826   3.000
14652TIP3    H143897   2.680   3.897   2.951
14652TIP3    H243898   2.729   3.860   3.090
14653TIP3   OH243899   6.211   2.855   6.854
14653TIP3    H143900   6.133   2.806   6.829
14653TIP3    H243901   6.179   2.925   6.911
14654TIP3   OH243902   0.042   1.754   4.430
14654TIP3    H143903   0.093   1.675   4.410
14654TIP3    H243904   0.050   1.764   4.525
14655TIP3   OH243905   6.857   2.206   6.583
14655TIP3    H143906   6.889   2.294   6.605
14655TIP3    H243907   6.899   2.185   6.500
14656TIP3   OH243908   3.751   6.774   0.901
14656TIP3    H143909   3.821   6.789   0.837
14656TIP3    H243910   3.724   6.862   0.928
14657TIP3   OH243911   0.269   0.586   3.640
14657TIP3    H143912   0.360   0.568   3.667
14657TIP3    H243913   0.269   0.678   3.615
14658TIP3   OH243914   4.521   2.931   2.318
14658TIP3    H143915   4.614   2.925   2.337
14658TIP3    H243916   4.482   2.856   2.364
14659TIP3   OH243917   5.910   1.670   2.983
14659TIP3    H143918   5.894   1.745   3.040
14659TIP3    H243919   5.967   1.612   3.034
14660TIP3   OH243920   7.256   7.184   2.643
14660TIP3    H143921   7.269   7.152   2.554
14660TIP3    H243922   7.294   7.116   2.699
14661TIP3   OH243923   5.483   0.671   3.410
14661TIP3    H143924   5.562   0.693   3.459
14661TIP3    H243925   5.515   0.647   3.323
14662TIP3   OH243926   4.166   3.549   3.818
14662TIP3    H143927   4.186   3.458   3.841
14662TIP3    H243928   4.242   3.579   3.768
14663TIP3   OH243929   6.289   4.778   3.953
14663TIP3    H143930   6.208   4.738   3.983
14663TIP3    H243931   6.314   4.837   4.024
14664TIP3   OH243932   6.235   0.111   2.239
14664TIP3    H143933   6.317   0.090   2.284
14664TIP3    H243934   6.182   0.156   2.305
14665TIP3   OH243935   2.188   1.130   2.423
14665TIP3    H143936   2.271   1.155   2.465
14665TIP3    H243937   2.158   1.209   2.379
14666TIP3   OH243938   2.263   6.200   4.582
14666TIP3    H143939   2.263   6.294   4.597
14666TIP3    H243940   2.313   6.188   4.501
14667TIP3   OH243941   2.594   5.272   2.233
14667TIP3    H143942   2.686   5.252   2.212
14667TIP3    H243943   2.599   5.331   2.308
14668TIP3   OH243944   6.185   7.027   2.940
14668TIP3    H143945   6.174   6.932   2.929
14668TIP3    H243946   6.200   7.060   2.851
14669TIP3   OH243947   6.303   6.372   0.084
14669TIP3    H143948   6.308   6.396   0.177
14669TIP3    H243949   6.221   6.411   0.054
14670TIP3   OH243950   7.637   6.177   6.213
14670TIP3    H143951   7.653   6.271   6.213
14670TIP3    H243952   7.585   6.160   6.134
14671TIP3   OH243953   0.413   5.561   4.446
14671TIP3    H143954   0.430   5.618   4.521
14671TIP3    H243955   0.422   5.619   4.370
14672TIP3   OH243956   0.720   4.628   6.208
14672TIP3    H143957   0.763   4.583   6.135
14672TIP3    H243958   0.648   4.676   6.167
14673TIP3   OH243959   7.262   2.223   5.293
14673TIP3    H143960   7.314   2.300   5.270
14673TIP3    H243961   7.258   2.224   5.388
14674TIP3   OH243962   6.654   0.178   3.820
14674TIP3    H143963   6.616   0.219   3.897
14674TIP3    H243964   6.708   0.107   3.854
14675TIP3   OH243965   0.798   0.183   1.233
14675TIP3    H143966   0.794   0.087   1.235
14675TIP3    H243967   0.891   0.203   1.233
14676TIP3   OH243968   6.609   7.256   6.686
14676TIP3    H143969   6.611   7.349   6.665
14676TIP3    H243970   6.597   7.213   6.601
14677TIP3   OH243971   7.728   2.790   5.012
14677TIP3    H143972   7.744   2.870   4.962
14677TIP3    H243973   7.759   2.810   5.100
14678TIP3   OH243974   1.119   1.543   5.421
14678TIP3    H143975   1.109   1.510   5.331
14678TIP3    H243976   1.204   1.587   5.420
14679TIP3   OH243977   5.832   1.183   5.689
14679TIP3    H143978   5.863   1.271   5.670
14679TIP3    H243979   5.847   1.134   5.608
14680TIP3   OH243980   6.771   3.932   0.217
14680TIP3    H143981   6.797   3.920   0.126
14680TIP3    H243982   6.726   4.017   0.218
14681TIP3   OH243983   5.959   1.167   0.659
14681TIP3    H143984   5.864   1.165   0.672
14681TIP3    H243985   5.987   1.249   0.701
14682TIP3   OH243986   7.871   1.002   3.823
14682TIP3    H143987   7.819   1.003   3.742
14682TIP3    H243988   7.820   0.950   3.884
14683TIP3   OH243989   7.662   5.962   4.331
14683TIP3    H143990   7.636   5.935   4.419
14683TIP3    H243991   7.659   5.882   4.279
14684TIP3   OH243992   5.608   1.505   6.761
14684TIP3    H143993   5.531   1.520   6.816
14684TIP3    H243994   5.619   1.410   6.760
14685TIP3   OH243995   1.266   6.482   4.881
14685TIP3    H143996   1.229   6.410   4.830
14685TIP3    H243997   1.325   6.527   4.820
14686TIP3   OH243998   3.977   5.978   3.749
14686TIP3    H143999   4.063   5.982   3.708
14686TIP3    H244000   3.974   6.055   3.805
14687TIP3   OH244001   6.216   1.789   5.371
14687TIP3    H144002   6.217   1.765   5.279
14687TIP3    H244003   6.308   1.795   5.396
14688TIP3   OH244004   5.372   2.874   5.263
14688TIP3    H144005   5.323   2.937   5.315
14688TIP3    H244006   5.358   2.901   5.172
14689TIP3   OH244007   5.931   6.284   6.482
14689TIP3    H144008   5.900   6.270   6.393
14689TIP3    H244009   5.881   6.222   6.535
14690TIP3   OH244010   7.065   6.323   6.082
14690TIP3    H144011   7.048   6.405   6.129
14690TIP3    H244012   7.114   6.350   6.004
14691TIP3   OH244013   7.544   5.665   5.319
14691TIP3    H144014   7.525   5.674   5.412
14691TIP3    H244015   7.513   5.747   5.280
14692TIP3   OH244016   2.887   5.902   6.286
14692TIP3    H144017   2.954   5.833   6.282
14692TIP3    H244018   2.888   5.941   6.199
14693TIP3   OH244019   2.906   4.377   3.436
14693TIP3    H144020   2.816   4.356   3.459
14693TIP3    H244021   2.959   4.308   3.477
14694TIP3   OH244022   4.091   7.704   5.473
14694TIP3    H144023   4.087   7.734   5.563
14694TIP3    H244024   4.159   7.638   5.473
14695TIP3   OH244025   1.348   7.529   1.342
14695TIP3    H144026   1.266   7.576   1.334
14695TIP3    H244027   1.371   7.538   1.435
14696TIP3   OH244028   3.614   7.107   0.815
14696TIP3    H144029   3.679   7.166   0.777
14696TIP3    H244030   3.566   7.072   0.740
14697TIP3   OH244031   7.453   0.063   1.900
14697TIP3    H144032   7.369   0.108   1.889
14697TIP3    H244033   7.450   0.030   1.990
14698TIP3   OH244034   0.401   6.779   0.350
14698TIP3    H144035   0.432   6.864   0.382
14698TIP3    H244036   0.315   6.797   0.312
14699TIP3   OH244037   6.696   7.395   3.717
14699TIP3    H144038   6.608   7.426   3.738
14699TIP3    H244039   6.689   7.362   3.628
14700TIP3   OH244040   4.458   6.942   4.665
14700TIP3    H144041   4.529   6.982   4.616
14700TIP3    H244042   4.438   7.005   4.734
14701TIP3   OH244043   3.993   3.672   3.506
14701TIP3    H144044   4.066   3.624   3.545
14701TIP3    H244045   3.932   3.688   3.578
14702TIP3   OH244046   4.889   4.239   1.889
14702TIP3    H144047   4.835   4.218   1.813
14702TIP3    H244048   4.847   4.194   1.962
14703TIP3   OH244049   2.533   3.160   3.427
14703TIP3    H144050   2.480   3.098   3.478
14703TIP3    H244051   2.616   3.163   3.474
14704TIP3   OH244052   5.808   6.073   0.957
14704TIP3    H144053   5.758   6.077   1.038
14704TIP3    H244054   5.802   5.982   0.930
14705TIP3   OH244055   3.523   7.142   5.940
14705TIP3    H144056   3.571   7.094   5.872
14705TIP3    H244057   3.591   7.190   5.988
14706TIP3   OH244058   4.288   0.653   6.071
14706TIP3    H144059   4.318   0.690   5.988
14706TIP3    H244060   4.358   0.674   6.133
14707TIP3   OH244061   2.098   3.578   0.394
14707TIP3    H144062   2.058   3.521   0.460
14707TIP3    H244063   2.029   3.591   0.329
14708TIP3   OH244064   5.047   3.834   5.479
14708TIP3    H144065   5.000   3.757   5.448
14708TIP3    H244066   5.116   3.799   5.535
14709TIP3   OH244067   0.624   0.971   5.248
14709TIP3    H144068   0.612   0.928   5.332
14709TIP3    H244069   0.685   1.043   5.266
14710TIP3   OH244070   6.477   4.338   2.740
14710TIP3    H144071   6.499   4.258   2.788
14710TIP3    H244072   6.468   4.310   2.649
14711TIP3   OH244073   1.367   6.029   6.791
14711TIP3    H144074   1.406   6.067   6.713
14711TIP3    H244075   1.441   6.007   6.847
14712TIP3   OH244076   3.890   6.747   0.266
14712TIP3    H144077   3.833   6.776   0.337
14712TIP3    H244078   3.949   6.821   0.252
14713TIP3   OH244079   0.858   0.787   1.015
14713TIP3    H144080   0.871   0.875   1.051
14713TIP3    H244081   0.868   0.799   0.920
14714TIP3   OH244082   0.028   2.667   6.125
14714TIP3    H144083   0.074   2.678   6.208
14714TIP3    H244084   0.074   2.595   6.081
14715TIP3   OH244085   4.442   3.881   6.855
14715TIP3    H144086   4.509   3.826   6.817
14715TIP3    H244087   4.489   3.938   6.917
14716TIP3   OH244088   7.514   3.681   1.579
14716TIP3    H144089   7.511   3.587   1.562
14716TIP3    H244090   7.482   3.721   1.498
14717TIP3   OH244091   6.940   3.227   4.263
14717TIP3    H144092   6.957   3.309   4.216
14717TIP3    H244093   6.881   3.178   4.206
14718TIP3   OH244094   7.741   5.583   4.916
14718TIP3    H144095   7.732   5.550   4.827
14718TIP3    H244096   7.821   5.636   4.914
14719TIP3   OH244097   6.882   0.210   5.570
14719TIP3    H144098   6.815   0.277   5.583
14719TIP3    H244099   6.901   0.177   5.658
14720TIP3   OH244100   3.979   3.042   2.114
14720TIP3    H144101   4.021   3.087   2.041
14720TIP3    H244102   3.897   3.089   2.128
14721TIP3   OH244103   6.283   6.579   3.769
14721TIP3    H144104   6.240   6.494   3.768
14721TIP3    H244105   6.351   6.572   3.836
14722TIP3   OH244106   5.821   0.490   2.597
14722TIP3    H144107   5.809   0.406   2.640
14722TIP3    H244108   5.900   0.527   2.637
14723TIP3   OH244109   3.951   0.653   0.508
14723TIP3    H144110   3.994   0.737   0.525
14723TIP3    H244111   4.007   0.589   0.553
14724TIP3   OH244112   2.494   6.436   2.764
14724TIP3    H144113   2.428   6.475   2.707
14724TIP3    H244114   2.578   6.466   2.728
14725TIP3   OH244115   0.044   2.400   6.760
14725TIP3    H144116   0.015   2.339   6.692
14725TIP3    H244117  -0.037   2.429   6.803
14726TIP3   OH244118   1.587   6.726   3.542
14726TIP3    H144119   1.641   6.795   3.504
14726TIP3    H244120   1.622   6.713   3.630
14727TIP3   OH244121   1.580   0.505   6.366
14727TIP3    H144122   1.530   0.511   6.447
14727TIP3    H244123   1.615   0.416   6.366
14728TIP3   OH244124   4.036   3.172   1.831
14728TIP3    H144125   4.009   3.080   1.824
14728TIP3    H244126   3.962   3.222   1.798
14729TIP3   OH244127   6.468   1.871   6.228
14729TIP3    H144128   6.430   1.786   6.206
14729TIP3    H244129   6.541   1.881   6.167
14730TIP3   OH244130   2.995   5.913   3.090
14730TIP3    H144131   2.992   5.819   3.075
14730TIP3    H244132   3.066   5.925   3.154
14731TIP3   OH244133   6.049   5.929   1.674
14731TIP3    H144134   6.075   6.004   1.727
14731TIP3    H244135   6.083   5.853   1.723
14732TIP3   OH244136   2.334   2.521   1.301
14732TIP3    H144137   2.315   2.614   1.299
14732TIP3    H244138   2.385   2.508   1.381
14733TIP3   OH244139   5.033   6.381   6.628
14733TIP3    H144140   4.968   6.451   6.616
14733TIP3    H244141   5.117   6.423   6.611
14734TIP3   OH244142   8.313   2.306   0.972
14734TIP3    H144143   8.408   2.299   0.967
14734TIP3    H244144   8.297   2.386   1.022
14735TIP3   OH244145   6.286   3.207   3.198
14735TIP3    H144146   6.300   3.126   3.150
14735TIP3    H244147   6.374   3.240   3.216
14736TIP3   OH244148   6.234   3.906   4.988
14736TIP3    H144149   6.201   3.921   4.899
14736TIP3    H244150   6.173   3.843   5.026
14737TIP3   OH244151   3.287   0.165   0.460
14737TIP3    H144152   3.351   0.095   0.475
14737TIP3    H244153   3.319   0.211   0.382
14738TIP3   OH244154   4.822   3.717   4.119
14738TIP3    H144155   4.750   3.655   4.130
14738TIP3    H244156   4.800   3.766   4.039
14739TIP3   OH244157   0.540   7.725   0.315
14739TIP3    H144158   0.453   7.726   0.354
14739TIP3    H244159   0.593   7.675   0.376
14740TIP3   OH244160   4.964   6.831   0.962
14740TIP3    H144161   4.959   6.873   0.876
14740TIP3    H244162   5.047   6.784   0.960
14741TIP3   OH244163   2.284   1.976   3.104
14741TIP3    H144164   2.288   1.949   3.196
14741TIP3    H244165   2.211   2.037   3.101
14742TIP3   OH244166   4.505   0.992   2.577
14742TIP3    H144167   4.488   0.905   2.614
14742TIP3    H244168   4.596   0.988   2.549
14743TIP3   OH244169   0.285   7.427   5.379
14743TIP3    H144170   0.353   7.473   5.331
14743TIP3    H244171   0.288   7.338   5.345
14744TIP3   OH244172   0.061   2.657   1.983
14744TIP3    H144173   0.101   2.577   1.948
14744TIP3    H244174   0.098   2.666   2.071
14745TIP3   OH244175   7.864   7.372   5.443
14745TIP3    H144176   7.933   7.438   5.453
14745TIP3    H244177   7.804   7.389   5.516
14746TIP3   OH244178   4.716   1.556   1.269
14746TIP3    H144179   4.724   1.474   1.318
14746TIP3    H244180   4.754   1.537   1.183
14747TIP3   OH244181   7.101   5.252   5.751
14747TIP3    H144182   7.017   5.238   5.708
14747TIP3    H244183   7.125   5.342   5.728
14748TIP3   OH244184   7.324   3.176   4.675
14748TIP3    H144185   7.284   3.251   4.632
14748TIP3    H244186   7.273   3.164   4.755
14749TIP3   OH244187   3.812   5.893   3.397
14749TIP3    H144188   3.775   5.922   3.480
14749TIP3    H244189   3.740   5.847   3.354
14750TIP3   OH244190   4.870   6.936   0.454
14750TIP3    H144191   4.907   7.014   0.414
14750TIP3    H244192   4.895   6.864   0.396
14751TIP3   OH244193   4.085   4.094   6.686
14751TIP3    H144194   4.146   4.022   6.673
14751TIP3    H244195   3.998   4.056   6.672
14752TIP3   OH244196   3.195   6.882   2.862
14752TIP3    H144197   3.135   6.951   2.889
14752TIP3    H244198   3.202   6.825   2.938
14753TIP3   OH244199   1.077   2.261   1.008
14753TIP3    H144200   0.992   2.303   1.024
14753TIP3    H244201   1.055   2.171   0.983
14754TIP3   OH244202   3.835   1.182   3.038
14754TIP3    H144203   3.810   1.267   3.073
14754TIP3    H244204   3.869   1.201   2.950
14755TIP3   OH244205   6.832   3.799   2.929
14755TIP3    H144206   6.879   3.867   2.881
14755TIP3    H244207   6.900   3.743   2.966
14756TIP3   OH244208   5.879   3.935   4.413
14756TIP3    H144209   5.829   3.921   4.493
14756TIP3    H244210   5.970   3.938   4.442
14757TIP3   OH244211   2.120   7.428   3.852
14757TIP3    H144212   2.043   7.393   3.808
14757TIP3    H244213   2.097   7.519   3.873
14758TIP3   OH244214   5.552   0.876   4.724
14758TIP3    H144215   5.533   0.966   4.698
14758TIP3    H244216   5.561   0.880   4.819
14759TIP3   OH244217   6.992   0.588   5.454
14759TIP3    H144218   7.024   0.500   5.475
14759TIP3    H244219   7.038   0.612   5.374
14760TIP3   OH244220   0.483   7.023   2.438
14760TIP3    H144221   0.550   7.045   2.503
14760TIP3    H244222   0.400   7.047   2.479
14761TIP3   OH244223   3.832   7.295   3.601
14761TIP3    H144224   3.900   7.314   3.536
14761TIP3    H244225   3.873   7.315   3.685
14762TIP3   OH244226   0.955   0.212   5.329
14762TIP3    H144227   1.002   0.159   5.394
14762TIP3    H244228   0.909   0.278   5.381
14763TIP3   OH244229   6.886   2.905   2.156
14763TIP3    H144230   6.907   2.875   2.068
14763TIP3    H244231   6.937   2.848   2.214
14764TIP3   OH244232   7.924   4.117   2.026
14764TIP3    H144233   7.940   4.062   2.102
14764TIP3    H244234   7.890   4.057   1.960
14765TIP3   OH244235   4.105   6.309   6.411
14765TIP3    H144236   4.039   6.271   6.469
14765TIP3    H244237   4.076   6.284   6.323
14766TIP3   OH244238   0.251   1.323   1.519
14766TIP3    H144239   0.215   1.245   1.561
14766TIP3    H244240   0.314   1.288   1.455
14767TIP3   OH244241   2.100   1.437   4.769
14767TIP3    H144242   2.104   1.444   4.864
14767TIP3    H244243   2.064   1.521   4.740
14768TIP3   OH244244   8.087   3.416   3.000
14768TIP3    H144245   8.167   3.467   3.012
14768TIP3    H244246   8.116   3.333   2.962
14769TIP3   OH244247   0.610   3.308   2.554
14769TIP3    H144248   0.670   3.361   2.606
14769TIP3    H244249   0.555   3.264   2.619
14770TIP3   OH244250   2.811   2.354   3.195
14770TIP3    H144251   2.820   2.385   3.106
14770TIP3    H244252   2.749   2.281   3.189
14771TIP3   OH244253   2.004   6.925   5.897
14771TIP3    H144254   1.975   6.856   5.837
14771TIP3    H244255   2.075   6.969   5.850
14772TIP3   OH244256  -0.014   7.657   6.359
14772TIP3    H144257   0.034   7.650   6.441
14772TIP3    H244258   0.011   7.742   6.323
14773TIP3   OH244259   1.228   4.100   2.965
14773TIP3    H144260   1.199   4.017   3.004
14773TIP3    H244261   1.287   4.074   2.894
14774TIP3   OH244262   0.623   7.756   0.926
14774TIP3    H144263   0.653   7.845   0.946
14774TIP3    H244264   0.693   7.699   0.957
14775TIP3   OH244265   0.196   6.729   3.080
14775TIP3    H144266   0.287   6.709   3.055
14775TIP3    H244267   0.157   6.643   3.096
14776TIP3   OH244268   0.098   6.522   6.628
14776TIP3    H144269   0.084   6.473   6.547
14776TIP3    H244270   0.189   6.552   6.622
14777TIP3   OH244271   0.267   5.146   0.207
14777TIP3    H144272   0.307   5.232   0.214
14777TIP3    H244273   0.256   5.131   0.113
14778TIP3   OH244274   3.093   0.199   6.740
14778TIP3    H144275   3.014   0.209   6.792
14778TIP3    H244276   3.147   0.275   6.763
14779TIP3   OH244277   1.341   2.852   3.065
14779TIP3    H144278   1.349   2.848   3.160
14779TIP3    H244279   1.275   2.919   3.049
14780TIP3   OH244280   7.060   3.094   6.083
14780TIP3    H144281   7.106   3.024   6.037
14780TIP3    H244282   6.974   3.098   6.040
14781TIP3   OH244283   5.157   5.242   1.416
14781TIP3    H144284   5.115   5.191   1.346
14781TIP3    H244285   5.194   5.176   1.474
14782TIP3   OH244286   1.965   3.019  -0.040
14782TIP3    H144287   1.901   3.082  -0.007
14782TIP3    H244288   2.023   3.002   0.035
14783TIP3   OH244289   2.421   4.517   2.954
14783TIP3    H144290   2.437   4.584   2.887
14783TIP3    H244291   2.447   4.435   2.913
14784TIP3   OH244292   2.463   6.604   6.188
14784TIP3    H144293   2.406   6.657   6.133
14784TIP3    H244294   2.549   6.646   6.182
14785TIP3   OH244295   4.431   6.115   0.572
14785TIP3    H144296   4.446   6.023   0.551
14785TIP3    H244297   4.347   6.116   0.618
14786TIP3   OH244298   2.397   1.712   6.325
14786TIP3    H144299   2.482   1.715   6.281
14786TIP3    H244300   2.363   1.801   6.321
14787TIP3   OH244301   2.741   1.096   2.386
14787TIP3    H144302   2.777   1.046   2.313
14787TIP3    H244303   2.776   1.052   2.464
14788TIP3   OH244304   6.631   4.833   0.417
14788TIP3    H144305   6.558   4.783   0.380
14788TIP3    H244306   6.644   4.797   0.504
14789TIP3   OH244307   3.936   6.246   0.403
14789TIP3    H144308   3.973   6.231   0.315
14789TIP3    H244309   3.930   6.341   0.409
14790TIP3   OH244310   4.086   0.578   4.627
14790TIP3    H144311   4.103   0.553   4.536
14790TIP3    H244312   4.066   0.672   4.623
14791TIP3   OH244313   4.858   3.810   0.030
14791TIP3    H144314   4.896   3.825   0.116
14791TIP3    H244315   4.885   3.721   0.007
14792TIP3   OH244316   3.926   4.705   0.840
14792TIP3    H144317   3.975   4.787   0.848
14792TIP3    H244318   3.855   4.712   0.904
14793TIP3   OH244319   7.729   6.507   2.714
14793TIP3    H144320   7.680   6.518   2.633
14793TIP3    H244321   7.687   6.433   2.758
14794TIP3   OH244322   7.604   5.127   5.378
14794TIP3    H144323   7.686   5.125   5.428
14794TIP3    H244324   7.583   5.220   5.369
14795TIP3   OH244325   5.464   7.452   4.480
14795TIP3    H144326   5.453   7.365   4.519
14795TIP3    H244327   5.492   7.435   4.390
14796TIP3   OH244328   0.138   3.259   1.580
14796TIP3    H144329   0.183   3.234   1.660
14796TIP3    H244330   0.186   3.215   1.510
14797TIP3   OH244331   2.455   1.408   5.356
14797TIP3    H144332   2.543   1.432   5.328
14797TIP3    H244333   2.442   1.320   5.321
14798TIP3   OH244334   4.382   6.717   5.476
14798TIP3    H144335   4.390   6.780   5.548
14798TIP3    H244336   4.428   6.639   5.507
14799TIP3   OH244337   7.294   2.262   2.541
14799TIP3    H144338   7.328   2.250   2.630
14799TIP3    H244339   7.354   2.212   2.486
14800TIP3   OH244340   3.560   2.877   4.924
14800TIP3    H144341   3.466   2.862   4.917
14800TIP3    H244342   3.600   2.801   4.883
14801TIP3   OH244343   0.007   7.215   1.637
14801TIP3    H144344   0.070   7.160   1.683
14801TIP3    H244345  -0.074   7.165   1.638
14802TIP3   OH244346   1.997   4.290   4.742
14802TIP3    H144347   2.001   4.222   4.809
14802TIP3    H244348   2.085   4.327   4.741
14803TIP3   OH244349   4.021   7.163   5.121
14803TIP3    H144350   4.060   7.111   5.191
14803TIP3    H244351   4.096   7.204   5.077
14804TIP3   OH244352   5.085   2.663   3.249
14804TIP3    H144353   5.060   2.755   3.255
14804TIP3    H244354   5.026   2.618   3.310
14805TIP3   OH244355   2.523   0.109   1.378
14805TIP3    H144356   2.600   0.158   1.348
14805TIP3    H244357   2.531   0.024   1.335
14806TIP3   OH244358   6.787   5.645   6.132
14806TIP3    H144359   6.771   5.698   6.210
14806TIP3    H244360   6.738   5.564   6.148
14807TIP3   OH244361   3.292   2.758   6.271
14807TIP3    H144362   3.244   2.801   6.341
14807TIP3    H244363   3.235   2.686   6.242
14808TIP3   OH244364   1.283   7.003   2.771
14808TIP3    H144365   1.296   6.936   2.704
14808TIP3    H244366   1.191   6.993   2.798
14809TIP3   OH244367   1.825   6.107   1.943
14809TIP3    H144368   1.836   6.169   2.016
14809TIP3    H244369   1.733   6.081   1.947
14810TIP3   OH244370   1.531   3.698   6.492
14810TIP3    H144371   1.479   3.778   6.505
14810TIP3    H244372   1.573   3.710   6.407
14811TIP3   OH244373   2.844   7.698   5.201
14811TIP3    H144374   2.767   7.734   5.245
14811TIP3    H244375   2.811   7.669   5.116
14812TIP3   OH244376   5.871   4.760   0.127
14812TIP3    H144377   5.908   4.672   0.122
14812TIP3    H244378   5.793   4.756   0.072
14813TIP3   OH244379   0.044   0.498   3.506
14813TIP3    H144380   0.077   0.466   3.423
14813TIP3    H244381   0.120   0.502   3.563
14814TIP3   OH244382   0.513   0.388   5.471
14814TIP3    H144383   0.474   0.332   5.539
14814TIP3    H244384   0.499   0.340   5.390
14815TIP3   OH244385   1.957   5.982   1.741
14815TIP3    H144386   1.894   5.997   1.670
14815TIP3    H244387   1.921   6.030   1.816
14816TIP3   OH244388   4.951   4.627   3.493
14816TIP3    H144389   4.996   4.561   3.547
14816TIP3    H244390   4.942   4.702   3.551
14817TIP3   OH244391   6.708   1.533   3.196
14817TIP3    H144392   6.747   1.486   3.123
14817TIP3    H244393   6.617   1.504   3.200
14818TIP3   OH244394   2.362   3.666   4.017
14818TIP3    H144395   2.442   3.642   3.971
14818TIP3    H244396   2.391   3.685   4.107
14819TIP3   OH244397   1.364   3.604   1.406
14819TIP3    H144398   1.426   3.625   1.336
14819TIP3    H244399   1.338   3.690   1.441
14820TIP3   OH244400   6.313   6.850   3.894
14820TIP3    H144401   6.279   6.762   3.880
14820TIP3    H244402   6.275   6.902   3.824
14821TIP3   OH244403   5.162   0.475   5.758
14821TIP3    H144404   5.104   0.438   5.692
14821TIP3    H244405   5.140   0.428   5.839
14822TIP3   OH244406   7.155   2.033   5.759
14822TIP3    H144407   7.162   1.939   5.743
14822TIP3    H244408   7.233   2.054   5.811
14823TIP3   OH244409   2.524   0.151   2.070
14823TIP3    H144410   2.508   0.126   2.161
14823TIP3    H244411   2.437   0.158   2.031
14824TIP3   OH244412   7.309   1.254   2.624
14824TIP3    H144413   7.355   1.295   2.697
14824TIP3    H244414   7.364   1.270   2.548
14825TIP3   OH244415   2.936   6.848   6.301
14825TIP3    H144416   2.976   6.934   6.316
14825TIP3    H244417   3.005   6.796   6.260
14826TIP3   OH244418   6.849   7.687   5.024
14826TIP3    H144419   6.913   7.735   4.970
14826TIP3    H244420   6.773   7.676   4.967
14827TIP3   OH244421   6.737   0.624   6.646
14827TIP3    H144422   6.711   0.716   6.642
14827TIP3    H244423   6.656   0.578   6.669
14828TIP3   OH244424   5.613   1.488   3.035
14828TIP3    H144425   5.548   1.550   3.066
14828TIP3    H244426   5.579   1.456   2.952
14829TIP3   OH244427   4.593   1.528   6.393
14829TIP3    H144428   4.679   1.557   6.364
14829TIP3    H244429   4.578   1.447   6.345
14830TIP3   OH244430   5.677   6.689   6.216
14830TIP3    H144431   5.765   6.698   6.251
14830TIP3    H244432   5.620   6.726   6.283
14831TIP3   OH244433   4.575   1.325   6.210
14831TIP3    H144434   4.521   1.254   6.244
14831TIP3    H244435   4.665   1.295   6.224
14832TIP3   OH244436   5.419   5.613   5.057
14832TIP3    H144437   5.358   5.583   5.124
14832TIP3    H244438   5.497   5.640   5.106
14833TIP3   OH244439   1.811   1.620   0.743
14833TIP3    H144440   1.783   1.631   0.834
14833TIP3    H244441   1.851   1.533   0.740
14834TIP3   OH244442   4.276   7.316   1.170
14834TIP3    H144443   4.307   7.262   1.097
14834TIP3    H244444   4.350   7.374   1.190
14835TIP3   OH244445   3.797   6.909   5.382
14835TIP3    H144446   3.791   6.817   5.356
14835TIP3    H244447   3.879   6.915   5.431
14836TIP3   OH244448   7.915   3.088   0.320
14836TIP3    H144449   7.958   3.036   0.252
14836TIP3    H244450   7.951   3.055   0.402
14837TIP3   OH244451   6.975   5.418   0.716
14837TIP3    H144452   6.900   5.370   0.680
14837TIP3    H244453   6.942   5.507   0.728
14838TIP3   OH244454   2.635   6.822   3.930
14838TIP3    H144455   2.551   6.846   3.969
14838TIP3    H244456   2.696   6.817   4.004
14839TIP3   OH244457   2.014   5.239   6.273
14839TIP3    H144458   1.990   5.307   6.211
14839TIP3    H244459   2.061   5.174   6.220
14840TIP3   OH244460   3.555   1.429   4.486
14840TIP3    H144461   3.649   1.413   4.493
14840TIP3    H244462   3.533   1.473   4.568
14841TIP3   OH244463   3.293   4.754   5.285
14841TIP3    H144464   3.377   4.798   5.276
14841TIP3    H244465   3.258   4.750   5.196
14842TIP3   OH244466   7.968   6.553   3.506
14842TIP3    H144467   7.881   6.580   3.477
14842TIP3    H244468   7.965   6.560   3.602
14843TIP3   OH244469   1.654   2.675   3.301
14843TIP3    H144470   1.747   2.651   3.308
14843TIP3    H244471   1.613   2.599   3.259
14844TIP3   OH244472   5.674   6.720   2.551
14844TIP3    H144473   5.663   6.813   2.532
14844TIP3    H244474   5.723   6.718   2.633
14845TIP3   OH244475   1.998   3.575   1.987
14845TIP3    H144476   2.035   3.571   2.075
14845TIP3    H244477   2.074   3.578   1.929
14846TIP3   OH244478   2.000   5.489   0.677
14846TIP3    H144479   2.013   5.474   0.770
14846TIP3    H244480   2.051   5.568   0.657
14847TIP3   OH244481   6.372   3.942   3.305
14847TIP3    H144482   6.292   3.974   3.264
14847TIP3    H244483   6.418   4.021   3.333
14848TIP3   OH244484   2.023   3.384   0.088
14848TIP3    H144485   1.944   3.334   0.067
14848TIP3    H244486   2.046   3.355   0.176
14849TIP3   OH244487   6.642   2.549   6.242
14849TIP3    H144488   6.554   2.585   6.229
14849TIP3    H244489   6.631   2.455   6.232
14850TIP3   OH244490   6.389   0.491   0.089
14850TIP3    H144491   6.390   0.455   0.177
14850TIP3    H244492   6.324   0.561   0.092
14851TIP3   OH244493   3.730   2.423   3.204
14851TIP3    H144494   3.721   2.328   3.213
14851TIP3    H244495   3.709   2.440   3.112
14852TIP3   OH244496   3.660   2.259   1.851
14852TIP3    H144497   3.688   2.350   1.842
14852TIP3    H244498   3.591   2.262   1.918
14853TIP3   OH244499   1.099   3.351   6.379
14853TIP3    H144500   1.162   3.279   6.380
14853TIP3    H244501   1.013   3.309   6.379
14854TIP3   OH244502   5.056   5.199   5.669
14854TIP3    H144503   4.988   5.143   5.706
14854TIP3    H244504   5.120   5.209   5.740
14855TIP3   OH244505   6.081   2.434   1.850
14855TIP3    H144506   6.099   2.461   1.940
14855TIP3    H244507   6.155   2.379   1.826
14856TIP3   OH244508   2.894   6.963   3.179
14856TIP3    H144509   2.971   6.934   3.229
14856TIP3    H244510   2.930   7.016   3.108
14857TIP3   OH244511   0.536   7.673   1.334
14857TIP3    H144512   0.530   7.581   1.309
14857TIP3    H244513   0.541   7.672   1.430
14858TIP3   OH244514   5.483   6.941   5.015
14858TIP3    H144515   5.466   7.029   5.049
14858TIP3    H244516   5.432   6.883   5.071
14859TIP3   OH244517   5.198   1.505   1.484
14859TIP3    H144518   5.204   1.469   1.396
14859TIP3    H244519   5.280   1.553   1.496
14860TIP3   OH244520   5.596   2.846   6.612
14860TIP3    H144521   5.602   2.939   6.634
14860TIP3    H244522   5.516   2.839   6.561
14861TIP3   OH244523   1.953   0.768   4.920
14861TIP3    H144524   1.921   0.762   5.010
14861TIP3    H244525   2.048   0.764   4.929
14862TIP3   OH244526   7.179   7.224   3.149
14862TIP3    H144527   7.240   7.259   3.084
14862TIP3    H244528   7.231   7.161   3.200
14863TIP3   OH244529   1.205   1.011   2.924
14863TIP3    H144530   1.296   0.993   2.900
14863TIP3    H244531   1.175   1.073   2.857
14864TIP3   OH244532   4.200   2.388   4.953
14864TIP3    H144533   4.263   2.441   5.002
14864TIP3    H244534   4.249   2.357   4.877
14865TIP3   OH244535   4.970   7.362   5.399
14865TIP3    H144536   5.021   7.416   5.460
14865TIP3    H244537   4.906   7.423   5.363
14866TIP3   OH244538   4.908   3.073   4.787
14866TIP3    H144539   4.961   3.008   4.832
14866TIP3    H244540   4.970   3.137   4.752
14867TIP3   OH244541   4.788   0.924   5.084
14867TIP3    H144542   4.768   0.833   5.060
14867TIP3    H244543   4.850   0.953   5.017
14868TIP3   OH244544   3.845   7.893   5.534
14868TIP3    H144545   3.937   7.877   5.552
14868TIP3    H244546   3.810   7.928   5.616
14869TIP3   OH244547   3.190   6.169   1.541
14869TIP3    H144548   3.179   6.246   1.485
14869TIP3    H244549   3.164   6.095   1.486
14870TIP3   OH244550   6.837   1.895   1.937
14870TIP3    H144551   6.923   1.937   1.928
14870TIP3    H244552   6.855   1.801   1.927
14871TIP3   OH244553   6.709   1.899   6.073
14871TIP3    H144554   6.790   1.856   6.049
14871TIP3    H244555   6.732   1.955   6.148
14872TIP3   OH244556   2.406   3.322   2.126
14872TIP3    H144557   2.325   3.356   2.163
14872TIP3    H244558   2.378   3.267   2.052
14873TIP3   OH244559   1.897   6.280   2.988
14873TIP3    H144560   1.850   6.344   2.934
14873TIP3    H244561   1.829   6.235   3.038
14874TIP3   OH244562   7.997   2.843   3.427
14874TIP3    H144563   8.080   2.843   3.380
14874TIP3    H244564   8.012   2.900   3.502
14875TIP3   OH244565   5.416   7.418   1.100
14875TIP3    H144566   5.506   7.387   1.106
14875TIP3    H244567   5.385   7.387   1.015
14876TIP3   OH244568   3.246   2.997   6.857
14876TIP3    H144569   3.213   2.915   6.819
14876TIP3    H244570   3.337   2.978   6.880
14877TIP3   OH244571   2.676   2.245   2.493
14877TIP3    H144572   2.642   2.170   2.541
14877TIP3    H244573   2.598   2.295   2.467
14878TIP3   OH244574   5.543   2.260   3.315
14878TIP3    H144575   5.522   2.310   3.394
14878TIP3    H244576   5.464   2.263   3.262
14879TIP3   OH244577   3.165   2.706   6.776
14879TIP3    H144578   3.176   2.628   6.721
14879TIP3    H244579   3.086   2.748   6.743
14880TIP3   OH244580   5.374   2.500   5.120
14880TIP3    H144581   5.303   2.465   5.065
14880TIP3    H244582   5.329   2.538   5.196
14881TIP3   OH244583   2.609   7.766   5.337
14881TIP3    H144584   2.650   7.735   5.417
14881TIP3    H244585   2.597   7.860   5.351
14882TIP3   OH244586   7.171   6.911   6.578
14882TIP3    H144587   7.252   6.959   6.596
14882TIP3    H244588   7.159   6.918   6.483
14883TIP3   OH244589   5.034   3.795   5.754
14883TIP3    H144590   5.022   3.887   5.780
14883TIP3    H244591   5.099   3.761   5.817
14884TIP3   OH244592   2.662   6.719   2.454
14884TIP3    H144593   2.668   6.655   2.383
14884TIP3    H244594   2.747   6.762   2.455
14885TIP3   OH244595   6.603   6.711   6.084
14885TIP3    H144596   6.532   6.649   6.105
14885TIP3    H244597   6.644   6.676   6.006
14886TIP3   OH244598   7.028   2.056   3.449
14886TIP3    H144599   7.075   2.131   3.413
14886TIP3    H244600   7.073   2.037   3.532
14887TIP3   OH244601   7.801   3.155   5.118
14887TIP3    H144602   7.713   3.193   5.116
14887TIP3    H244603   7.790   3.072   5.166
14888TIP3   OH244604   4.010   2.224   4.638
14888TIP3    H144605   4.089   2.275   4.618
14888TIP3    H244606   3.960   2.279   4.697
14889TIP3   OH244607   6.564   4.372   6.729
14889TIP3    H144608   6.543   4.279   6.730
14889TIP3    H244609   6.621   4.385   6.804
14890TIP3   OH244610   7.963   4.808   2.712
14890TIP3    H144611   7.902   4.872   2.677
14890TIP3    H244612   8.048   4.852   2.712
14891TIP3   OH244613   2.711   3.305   2.843
14891TIP3    H144614   2.712   3.384   2.896
14891TIP3    H244615   2.646   3.249   2.884
14892TIP3   OH244616   8.373   4.703   2.303
14892TIP3    H144617   8.440   4.697   2.371
14892TIP3    H244618   8.324   4.782   2.325
14893TIP3   OH244619   5.742   4.911   3.268
14893TIP3    H144620   5.794   4.990   3.282
14893TIP3    H244621   5.802   4.839   3.289
14894TIP3   OH244622   7.009   4.484   5.148
14894TIP3    H144623   6.922   4.456   5.177
14894TIP3    H244624   7.018   4.574   5.180
14895TIP3   OH244625   5.450   3.811   6.840
14895TIP3    H144626   5.432   3.881   6.903
14895TIP3    H244627   5.370   3.801   6.790
14896TIP3   OH244628   5.890   1.065   6.364
14896TIP3    H144629   5.858   1.002   6.299
14896TIP3    H244630   5.871   1.150   6.325
14897TIP3   OH244631   3.902   1.532   6.696
14897TIP3    H144632   3.957   1.559   6.623
14897TIP3    H244633   3.815   1.521   6.658
14898TIP3   OH244634   1.693   1.851   0.103
14898TIP3    H144635   1.660   1.918   0.043
14898TIP3    H244636   1.788   1.857   0.094
14899TIP3   OH244637   1.193   7.255   2.595
14899TIP3    H144638   1.268   7.282   2.648
14899TIP3    H244639   1.165   7.172   2.632
14900TIP3   OH244640   1.825   6.407   1.136
14900TIP3    H144641   1.904   6.380   1.090
14900TIP3    H244642   1.806   6.334   1.195
14901TIP3   OH244643   2.627   4.176   0.018
14901TIP3    H144644   2.622   4.086   0.052
14901TIP3    H244645   2.551   4.184  -0.038
14902TIP3   OH244646   3.597   4.887   1.774
14902TIP3    H144647   3.530   4.946   1.809
14902TIP3    H244648   3.671   4.945   1.754
14903TIP3   OH244649   6.874   7.106   2.209
14903TIP3    H144650   6.926   7.039   2.165
14903TIP3    H244651   6.803   7.057   2.251
14904TIP3   OH244652   5.511   2.962   1.638
14904TIP3    H144653   5.449   2.974   1.567
14904TIP3    H244654   5.468   3.000   1.715
14905TIP3   OH244655   0.549   4.636   2.872
14905TIP3    H144656   0.537   4.708   2.810
14905TIP3    H244657   0.486   4.570   2.846
14906TIP3   OH244658   3.142   4.050   2.212
14906TIP3    H144659   3.087   4.128   2.212
14906TIP3    H244660   3.220   4.075   2.163
14907TIP3   OH244661   6.871   6.159   0.402
14907TIP3    H144662   6.804   6.227   0.404
14907TIP3    H244663   6.837   6.093   0.342
14908TIP3   OH244664   6.041   4.557   6.522
14908TIP3    H144665   6.075   4.482   6.473
14908TIP3    H244666   5.948   4.560   6.497
14909TIP3   OH244667   4.788   0.541   5.927
14909TIP3    H144668   4.756   0.524   5.839
14909TIP3    H244669   4.791   0.455   5.969
14910TIP3   OH244670   5.482   3.664   3.239
14910TIP3    H144671   5.543   3.729   3.274
14910TIP3    H244672   5.537   3.591   3.212
14911TIP3   OH244673   5.401   1.872   6.108
14911TIP3    H144674   5.416   1.913   6.023
14911TIP3    H244675   5.466   1.803   6.114
14912TIP3   OH244676   7.397   3.408   3.957
14912TIP3    H144677   7.320   3.403   3.899
14912TIP3    H244678   7.361   3.432   4.042
14913TIP3   OH244679   7.936   4.751   1.896
14913TIP3    H144680   7.929   4.655   1.897
14913TIP3    H244681   7.848   4.781   1.876
14914TIP3   OH244682   5.851   7.758   0.449
14914TIP3    H144683   5.885   7.824   0.510
14914TIP3    H244684   5.802   7.808   0.384
14915TIP3   OH244685   4.012   3.800   5.422
14915TIP3    H144686   4.048   3.805   5.333
14915TIP3    H244687   4.086   3.824   5.478
14916TIP3   OH244688   7.796   2.948   1.605
14916TIP3    H144689   7.807   2.991   1.689
14916TIP3    H244690   7.812   3.017   1.540
14917TIP3   OH244691   5.136   2.716   0.332
14917TIP3    H144692   5.058   2.691   0.381
14917TIP3    H244693   5.184   2.774   0.391
14918TIP3   OH244694   7.809   7.147   2.137
14918TIP3    H144695   7.808   7.051   2.137
14918TIP3    H244696   7.786   7.172   2.047
14919TIP3   OH244697   0.522   2.212   6.114
14919TIP3    H144698   0.559   2.291   6.073
14919TIP3    H244699   0.457   2.181   6.050
14920TIP3   OH244700   3.525   3.450   1.988
14920TIP3    H144701   3.537   3.496   2.071
14920TIP3    H244702   3.451   3.494   1.946
14921TIP3   OH244703   4.915   4.214   3.178
14921TIP3    H144704   4.998   4.261   3.190
14921TIP3    H244705   4.936   4.146   3.115
14922TIP3   OH244706   2.373   0.831   0.426
14922TIP3    H144707   2.467   0.843   0.417
14922TIP3    H244708   2.358   0.739   0.402
14923TIP3   OH244709   7.055   3.522   5.685
14923TIP3    H144710   7.051   3.616   5.672
14923TIP3    H244711   7.018   3.484   5.605
14924TIP3   OH244712   3.557   6.451   1.866
14924TIP3    H144713   3.582   6.359   1.854
14924TIP3    H244714   3.527   6.480   1.780
14925TIP3   OH244715   0.210   3.613   1.538
14925TIP3    H144716   0.219   3.707   1.522
14925TIP3    H244717   0.139   3.605   1.601
14926TIP3   OH244718   4.924   4.624   1.707
14926TIP3    H144719   4.978   4.545   1.714
14926TIP3    H244720   4.866   4.620   1.784
14927TIP3   OH244721   8.087   0.189   0.906
14927TIP3    H144722   8.067   0.233   0.824
14927TIP3    H244723   8.158   0.241   0.945
14928TIP3   OH244724   4.361   2.172   3.111
14928TIP3    H144725   4.389   2.103   3.171
14928TIP3    H244726   4.350   2.249   3.167
14929TIP3   OH244727   0.360   0.328   6.196
14929TIP3    H144728   0.300   0.256   6.214
14929TIP3    H244729   0.308   0.407   6.211
14930TIP3   OH244730   6.960   1.781   4.984
14930TIP3    H144731   7.009   1.801   4.904
14930TIP3    H244732   6.898   1.853   4.992
14931TIP3   OH244733   3.797   0.043   0.369
14931TIP3    H144734   3.768  -0.019   0.302
14931TIP3    H244735   3.755   0.126   0.345
14932TIP3   OH244736   0.458   4.193   4.324
14932TIP3    H144737   0.510   4.180   4.403
14932TIP3    H244738   0.367   4.197   4.355
14933TIP3   OH244739   1.338   4.334   6.436
14933TIP3    H144740   1.390   4.385   6.499
14933TIP3    H244741   1.402   4.304   6.372
14934TIP3   OH244742   1.010   5.448   5.630
14934TIP3    H144743   1.094   5.473   5.591
14934TIP3    H244744   0.952   5.522   5.611
14935TIP3   OH244745   2.965   1.027   5.181
14935TIP3    H144746   2.907   1.088   5.135
14935TIP3    H244747   3.049   1.071   5.184
14936TIP3   OH244748   7.920   2.558   2.534
14936TIP3    H144749   7.963   2.619   2.594
14936TIP3    H244750   7.922   2.602   2.449
14937TIP3   OH244751   7.933   3.350   5.816
14937TIP3    H144752   7.988   3.287   5.862
14937TIP3    H244753   7.954   3.337   5.723
14938TIP3   OH244754   0.286   0.352   0.487
14938TIP3    H144755   0.306   0.379   0.397
14938TIP3    H244756   0.324   0.265   0.495
14939TIP3   OH244757   1.275   6.402   2.680
14939TIP3    H144758   1.216   6.403   2.755
14939TIP3    H244759   1.220   6.424   2.605
14940TIP3   OH244760   8.232   0.128   1.309
14940TIP3    H144761   8.212   0.129   1.403
14940TIP3    H244762   8.152   0.094   1.268
14941TIP3   OH244763   5.403   2.632   0.753
14941TIP3    H144764   5.453   2.660   0.676
14941TIP3    H244765   5.334   2.576   0.717
14942TIP3   OH244766   3.489   4.491   1.802
14942TIP3    H144767   3.434   4.416   1.783
14942TIP3    H244768   3.476   4.507   1.896
14943TIP3   OH244769   7.914   0.610   5.545
14943TIP3    H144770   7.940   0.700   5.565
14943TIP3    H244771   7.843   0.591   5.607
14944TIP3   OH244772   2.362   0.857   4.682
14944TIP3    H144773   2.289   0.833   4.624
14944TIP3    H244774   2.440   0.833   4.632
14945TIP3   OH244775   2.608   5.513   5.097
14945TIP3    H144776   2.577   5.601   5.074
14945TIP3    H244777   2.528   5.460   5.105
14946TIP3   OH244778   8.146   4.736   3.930
14946TIP3    H144779   8.085   4.668   3.900
14946TIP3    H244780   8.169   4.783   3.850
14947TIP3   OH244781   1.708   5.936   3.349
14947TIP3    H144782   1.795   5.961   3.318
14947TIP3    H244783   1.708   5.841   3.351
14948TIP3   OH244784   2.097   2.491   2.733
14948TIP3    H144785   2.174   2.479   2.679
14948TIP3    H244786   2.041   2.551   2.684
14949TIP3   OH244787   2.119   2.074   0.832
14949TIP3    H144788   2.034   2.032   0.839
14949TIP3    H244789   2.114   2.147   0.894
14950TIP3   OH244790   5.506   7.094   1.365
14950TIP3    H144791   5.501   7.042   1.285
14950TIP3    H244792   5.431   7.065   1.417
14951TIP3   OH244793   0.930   1.884   4.622
14951TIP3    H144794   1.002   1.848   4.673
14951TIP3    H244795   0.929   1.832   4.541
14952TIP3   OH244796   7.558   3.954   3.671
14952TIP3    H144797   7.594   3.956   3.582
14952TIP3    H244798   7.471   3.917   3.661
14953TIP3   OH244799   1.228   4.172   6.637
14953TIP3    H144800   1.254   4.234   6.705
14953TIP3    H244801   1.293   4.184   6.568
14954TIP3   OH244802   4.317   5.391   3.333
14954TIP3    H144803   4.236   5.345   3.355
14954TIP3    H244804   4.288   5.469   3.285
14955TIP3   OH244805   1.409   6.314   2.041
14955TIP3    H144806   1.346   6.258   1.996
14955TIP3    H244807   1.356   6.380   2.085
14956TIP3   OH244808   2.538   5.278   5.721
14956TIP3    H144809   2.445   5.294   5.732
14956TIP3    H244810   2.579   5.363   5.736
14957TIP3   OH244811   2.360   7.632   1.045
14957TIP3    H144812   2.438   7.577   1.053
14957TIP3    H244813   2.369   7.674   0.959
14958TIP3   OH244814   2.562   5.367   0.656
14958TIP3    H144815   2.603   5.282   0.640
14958TIP3    H244816   2.627   5.431   0.626
14959TIP3   OH244817   6.405   1.888   3.377
14959TIP3    H144818   6.464   1.829   3.331
14959TIP3    H244819   6.457   1.967   3.392
14960TIP3   OH244820   1.258   5.660   4.489
14960TIP3    H144821   1.308   5.620   4.419
14960TIP3    H244822   1.185   5.599   4.504
14961TIP3   OH244823   6.218   5.215   1.296
14961TIP3    H144824   6.211   5.126   1.262
14961TIP3    H244825   6.173   5.269   1.230
14962TIP3   OH244826   7.389   4.129   6.039
14962TIP3    H144827   7.298   4.122   6.009
14962TIP3    H244828   7.402   4.053   6.095
14963TIP3   OH244829   0.138   5.924   0.294
14963TIP3    H144830   0.233   5.940   0.289
14963TIP3    H244831   0.098   6.009   0.279
14964TIP3   OH244832   1.142   4.567   6.596
14964TIP3    H144833   1.136   4.473   6.611
14964TIP3    H244834   1.151   4.605   6.684
14965TIP3   OH244835   0.670   3.390   3.765
14965TIP3    H144836   0.721   3.390   3.683
14965TIP3    H244837   0.736   3.381   3.834
14966TIP3   OH244838   4.618   1.715   2.680
14966TIP3    H144839   4.684   1.737   2.745
14966TIP3    H244840   4.555   1.661   2.728
14967TIP3   OH244841   6.230   6.693   5.594
14967TIP3    H144842   6.169   6.764   5.574
14967TIP3    H244843   6.255   6.707   5.685
14968TIP3   OH244844   0.575   1.458   1.665
14968TIP3    H144845   0.643   1.525   1.666
14968TIP3    H244846   0.533   1.466   1.751
14969TIP3   OH244847   4.956   6.132   4.804
14969TIP3    H144848   4.891   6.200   4.824
14969TIP3    H244849   4.904   6.058   4.772
14970TIP3   OH244850   7.846   5.491   4.091
14970TIP3    H144851   7.836   5.521   4.001
14970TIP3    H244852   7.756   5.479   4.122
14971TIP3   OH244853   6.391   1.044   5.550
14971TIP3    H144854   6.417   0.992   5.475
14971TIP3    H244855   6.399   1.135   5.521
14972TIP3   OH244856   8.153   2.962   2.477
14972TIP3    H144857   8.058   2.953   2.480
14972TIP3    H244858   8.168   3.057   2.469
14973TIP3   OH244859   0.423   1.124   3.506
14973TIP3    H144860   0.407   1.133   3.600
14973TIP3    H244861   0.505   1.170   3.491
14974TIP3   OH244862   4.758   1.412   1.859
14974TIP3    H144863   4.831   1.474   1.853
14974TIP3    H244864   4.792   1.340   1.912
14975TIP3   OH244865   3.613   0.508   0.238
14975TIP3    H144866   3.686   0.476   0.185
14975TIP3    H244867   3.549   0.539   0.174
14976TIP3   OH244868   1.780   6.737   3.319
14976TIP3    H144869   1.788   6.729   3.224
14976TIP3    H244870   1.745   6.652   3.348
14977TIP3   OH244871   3.642   2.119   3.615
14977TIP3    H144872   3.641   2.124   3.520
14977TIP3    H244873   3.721   2.166   3.641
14978TIP3   OH244874   1.944   7.141   0.693
14978TIP3    H144875   1.857   7.144   0.732
14978TIP3    H244876   1.931   7.098   0.609
14979TIP3   OH244877   6.863   5.065   5.887
14979TIP3    H144878   6.860   5.123   5.811
14979TIP3    H244879   6.802   5.103   5.949
14980TIP3   OH244880   8.330   6.473   4.381
14980TIP3    H144881   8.317   6.493   4.289
14980TIP3    H244882   8.385   6.394   4.381
14981TIP3   OH244883   1.553   5.859   1.057
14981TIP3    H144884   1.637   5.904   1.057
14981TIP3    H244885   1.571   5.774   1.015
14982TIP3   OH244886   6.305   7.171   4.186
14982TIP3    H144887   6.271   7.154   4.098
14982TIP3    H244888   6.340   7.260   4.181
14983TIP3   OH244889   7.369   3.200   3.080
14983TIP3    H144890   7.431   3.148   3.130
14983TIP3    H244891   7.285   3.190   3.126
14984TIP3   OH244892   8.116   1.086   6.189
14984TIP3    H144893   8.063   1.084   6.109
14984TIP3    H244894   8.091   1.006   6.236
14985TIP3   OH244895   5.214   4.312   5.057
14985TIP3    H144896   5.264   4.252   5.001
14985TIP3    H244897   5.281   4.357   5.108
14986TIP3   OH244898   6.601   2.358   6.751
14986TIP3    H144899   6.691   2.375   6.723
14986TIP3    H244900   6.601   2.378   6.844
14987TIP3   OH244901   6.675   1.100   2.888
14987TIP3    H144902   6.612   1.165   2.919
14987TIP3    H244903   6.621   1.028   2.857
14988TIP3   OH244904   3.434   4.497   4.262
14988TIP3    H144905   3.392   4.580   4.284
14988TIP3    H244906   3.516   4.523   4.220
14989TIP3   OH244907   2.854   6.663   2.978
14989TIP3    H144908   2.811   6.716   3.045
14989TIP3    H244909   2.807   6.580   2.980
14990TIP3   OH244910   8.361   0.104   2.451
14990TIP3    H144911   8.396   0.157   2.523
14990TIP3    H244912   8.339   0.167   2.383
14991TIP3   OH244913   5.579   7.649   6.064
14991TIP3    H144914   5.529   7.691   6.135
14991TIP3    H244915   5.521   7.580   6.032
14992TIP3   OH244916   2.000   5.945   5.058
14992TIP3    H144917   1.956   6.026   5.083
14992TIP3    H244918   2.092   5.959   5.083
14993TIP3   OH244919   7.698   3.933   0.411
14993TIP3    H144920   7.679   3.902   0.500
14993TIP3    H244921   7.637   4.006   0.397
14994TIP3   OH244922   6.724   2.131   2.835
14994TIP3    H144923   6.749   2.053   2.786
14994TIP3    H244924   6.807   2.170   2.863
14995TIP3   OH244925   2.497   4.581   3.311
14995TIP3    H144926   2.555   4.655   3.330
14995TIP3    H244927   2.430   4.617   3.253
14996TIP3   OH244928   3.146   6.850   1.306
14996TIP3    H144929   3.120   6.809   1.388
14996TIP3    H244930   3.165   6.940   1.328
14997TIP3   OH244931   7.362   3.933   4.620
14997TIP3    H144932   7.327   4.015   4.656
14997TIP3    H244933   7.377   3.953   4.528
14998TIP3   OH244934   2.377   1.572   4.142
14998TIP3    H144935   2.376   1.513   4.218
14998TIP3    H244936   2.399   1.516   4.068
14999TIP3   OH244937   3.768   6.961   2.213
14999TIP3    H144938   3.700   6.909   2.170
14999TIP3    H244939   3.827   6.987   2.142
15000TIP3   OH244940   6.741   2.008   3.602
15000TIP3    H144941   6.800   2.061   3.549
15000TIP3    H244942   6.787   1.997   3.685
15001TIP3   OH244943   5.083   2.281   1.856
15001TIP3    H144944   5.055   2.202   1.809
15001TIP3    H244945   5.044   2.272   1.943
15002TIP3   OH244946   7.701   1.811   0.086
15002TIP3    H144947   7.716   1.760   0.006
15002TIP3    H244948   7.678   1.745   0.152
15003TIP3   OH244949   3.533   2.175   0.262
15003TIP3    H144950   3.553   2.201   0.352
15003TIP3    H244951   3.536   2.080   0.263
15004TIP3   OH244952   6.109   3.930   6.645
15004TIP3    H144953   6.172   3.925   6.573
15004TIP3    H244954   6.063   3.846   6.642
15005TIP3   OH244955   2.641   1.167   1.306
15005TIP3    H144956   2.566   1.127   1.262
15005TIP3    H244957   2.622   1.155   1.400
15006TIP3   OH244958   6.618   5.237   2.805
15006TIP3    H144959   6.611   5.330   2.783
15006TIP3    H244960   6.533   5.200   2.784
15007TIP3   OH244961   0.579   4.988   0.755
15007TIP3    H144962   0.645   4.926   0.785
15007TIP3    H244963   0.505   4.976   0.815
15008TIP3   OH244964   1.162   4.886   5.937
15008TIP3    H144965   1.228   4.861   6.002
15008TIP3    H244966   1.104   4.946   5.984
15009TIP3   OH244967   7.858   1.830   4.327
15009TIP3    H144968   7.866   1.879   4.246
15009TIP3    H244969   7.947   1.830   4.364
15010TIP3   OH244970   2.560   4.939   3.794
15010TIP3    H144971   2.511   4.857   3.806
15010TIP3    H244972   2.636   4.931   3.852
15011TIP3   OH244973   6.544   5.699   3.382
15011TIP3    H144974   6.490   5.722   3.457
15011TIP3    H244975   6.591   5.620   3.409
15012TIP3   OH244976   4.922   6.841   1.836
15012TIP3    H144977   4.996   6.900   1.825
15012TIP3    H244978   4.912   6.834   1.931
15013TIP3   OH244979   2.697   1.050   3.610
15013TIP3    H144980   2.704   0.973   3.667
15013TIP3    H244981   2.685   1.013   3.522
15014TIP3   OH244982   3.193   7.868   3.714
15014TIP3    H144983   3.255   7.938   3.695
15014TIP3    H244984   3.216   7.838   3.802
15015TIP3   OH244985   2.433   3.804   0.687
15015TIP3    H144986   2.487   3.881   0.669
15015TIP3    H244987   2.347   3.826   0.653
15016TIP3   OH244988   0.743   3.925   5.005
15016TIP3    H144989   0.784   3.967   4.929
15016TIP3    H244990   0.791   3.843   5.016
15017TIP3   OH244991   7.918   7.386   3.390
15017TIP3    H144992   7.937   7.343   3.307
15017TIP3    H244993   8.004   7.416   3.421
15018TIP3   OH244994   1.621   1.992   1.045
15018TIP3    H144995   1.614   2.082   1.013
15018TIP3    H244996   1.535   1.953   1.029
15019TIP3   OH244997   3.769   7.606   3.736
15019TIP3    H144998   3.674   7.609   3.739
15019TIP3    H244999   3.795   7.574   3.822
15020TIP3   OH245000   0.121   4.549   5.908
15020TIP3    H145001   0.071   4.588   5.980
15020TIP3    H245002   0.079   4.464   5.894
15021TIP3   OH245003   3.264   4.709   3.722
15021TIP3    H145004   3.183   4.677   3.762
15021TIP3    H245005   3.325   4.719   3.795
15022TIP3   OH245006   0.383   4.976   5.763
15022TIP3    H145007   0.456   4.992   5.822
15022TIP3    H245008   0.360   4.884   5.778
15023TIP3   OH245009   5.708   5.602   1.975
15023TIP3    H145010   5.690   5.607   1.881
15023TIP3    H245011   5.759   5.680   1.993
15024TIP3   OH245012   8.190   5.551   5.389
15024TIP3    H145013   8.176   5.645   5.386
15024TIP3    H245014   8.175   5.522   5.299
15025TIP3   OH245015   6.713   4.708   3.933
15025TIP3    H145016   6.782   4.724   3.997
15025TIP3    H245017   6.654   4.646   3.975
15026TIP3   OH245018   3.846   0.292   5.140
15026TIP3    H145019   3.831   0.358   5.207
15026TIP3    H245020   3.805   0.328   5.061
15027TIP3   OH245021   8.151   1.840   3.480
15027TIP3    H145022   8.099   1.760   3.469
15027TIP3    H245023   8.088   1.905   3.513
15028TIP3   OH245024   6.578   1.520   3.702
15028TIP3    H145025   6.598   1.485   3.789
15028TIP3    H245026   6.645   1.484   3.645
15029TIP3   OH245027   2.281   3.417   0.557
15029TIP3    H145028   2.202   3.403   0.504
15029TIP3    H245029   2.352   3.423   0.494
15030TIP3   OH245030   2.521   6.698   3.013
15030TIP3    H145031   2.548   6.748   3.090
15030TIP3    H245032   2.536   6.758   2.939
15031TIP3   OH245033   7.506   1.278   1.525
15031TIP3    H145034   7.500   1.364   1.483
15031TIP3    H245035   7.535   1.298   1.614
15032TIP3   OH245036   5.600   2.647   6.300
15032TIP3    H145037   5.546   2.719   6.332
15032TIP3    H245038   5.537   2.581   6.272
15033TIP3   OH245039   6.439   7.320   1.723
15033TIP3    H145040   6.398   7.399   1.758
15033TIP3    H245041   6.510   7.301   1.786
15034TIP3   OH245042   4.771   6.079   1.109
15034TIP3    H145043   4.862   6.092   1.138
15034TIP3    H245044   4.720   6.142   1.160
15035TIP3   OH245045   2.668   6.938   1.047
15035TIP3    H145046   2.739   6.977   0.995
15035TIP3    H245047   2.601   7.006   1.049
15036TIP3   OH245048   3.620   4.290   3.889
15036TIP3    H145049   3.694   4.244   3.850
15036TIP3    H245050   3.576   4.224   3.942
15037TIP3   OH245051   0.003   6.466   2.556
15037TIP3    H145052  -0.008   6.559   2.537
15037TIP3    H245053   0.093   6.447   2.530
15038TIP3   OH245054   0.933   0.496   5.934
15038TIP3    H145055   0.854   0.550   5.943
15038TIP3    H245056   0.901   0.410   5.907
15039TIP3   OH245057   8.224   5.491   4.931
15039TIP3    H145058   8.166   5.449   4.867
15039TIP3    H245059   8.266   5.419   4.977
15040TIP3   OH245060   4.523   7.692   4.993
15040TIP3    H145061   4.461   7.633   4.951
15040TIP3    H245062   4.483   7.713   5.078
15041TIP3   OH245063   0.249   7.021   4.845
15041TIP3    H145064   0.185   7.024   4.917
15041TIP3    H245065   0.244   7.108   4.805
15042TIP3   OH245066   4.981   0.823   5.928
15042TIP3    H145067   4.930   0.743   5.934
15042TIP3    H245068   4.944   0.880   5.995
15043TIP3   OH245069   6.432   6.777   0.992
15043TIP3    H145070   6.467   6.842   0.930
15043TIP3    H245071   6.510   6.733   1.026
15044TIP3   OH245072   2.887   7.480   3.358
15044TIP3    H145073   2.816   7.499   3.418
15044TIP3    H245074   2.924   7.566   3.337
15045TIP3   OH245075   0.765   3.401   4.609
15045TIP3    H145076   0.805   3.478   4.650
15045TIP3    H245077   0.671   3.419   4.613
15046TIP3   OH245078   4.424   5.371   6.477
15046TIP3    H145079   4.350   5.409   6.431
15046TIP3    H245080   4.455   5.441   6.534
15047TIP3   OH245081   4.339   6.452   2.151
15047TIP3    H145082   4.253   6.459   2.195
15047TIP3    H245083   4.347   6.359   2.130
15048TIP3   OH245084   2.099   0.182   2.622
15048TIP3    H145085   2.053   0.114   2.671
15048TIP3    H245086   2.151   0.228   2.688
15049TIP3   OH245087   5.780   2.826   1.680
15049TIP3    H145088   5.700   2.873   1.657
15049TIP3    H245089   5.787   2.756   1.616
15050TIP3   OH245090   4.906   2.140   2.695
15050TIP3    H145091   4.973   2.090   2.743
15050TIP3    H245092   4.823   2.099   2.721
15051TIP3   OH245093   2.977   3.902   5.536
15051TIP3    H145094   2.933   3.918   5.619
15051TIP3    H245095   3.062   3.864   5.561
15052TIP3   OH245096   4.864   7.390   5.868
15052TIP3    H145097   4.874   7.432   5.953
15052TIP3    H245098   4.801   7.446   5.821
15053TIP3   OH245099   6.209   5.569   1.553
15053TIP3    H145100   6.220   5.618   1.635
15053TIP3    H245101   6.116   5.545   1.553
15054TIP3   OH245102   3.720   7.254   2.239
15054TIP3    H145103   3.748   7.162   2.232
15054TIP3    H245104   3.643   7.251   2.295
15055TIP3   OH245105   0.705   2.391   2.749
15055TIP3    H145106   0.646   2.357   2.682
15055TIP3    H245107   0.695   2.330   2.822
15056TIP3   OH245108   6.229   3.220   5.419
15056TIP3    H145109   6.141   3.188   5.396
15056TIP3    H245110   6.215   3.312   5.442
15057TIP3   OH245111   2.818   0.435   1.447
15057TIP3    H145112   2.909   0.450   1.421
15057TIP3    H245113   2.788   0.364   1.391
15058TIP3   OH245114   2.333   5.464   4.295
15058TIP3    H145115   2.373   5.481   4.381
15058TIP3    H245116   2.408   5.458   4.235
15059TIP3   OH245117   4.631   5.756   1.585
15059TIP3    H145118   4.569   5.791   1.520
15059TIP3    H245119   4.706   5.728   1.532
15060TIP3   OH245120   7.125   2.220   5.553
15060TIP3    H145121   7.054   2.279   5.576
15060TIP3    H245122   7.118   2.148   5.616
15061TIP3   OH245123   4.546   5.139   4.090
15061TIP3    H145124   4.608   5.070   4.067
15061TIP3    H245125   4.584   5.219   4.052
15062TIP3   OH245126   0.639   4.823   3.458
15062TIP3    H145127   0.576   4.894   3.473
15062TIP3    H245128   0.692   4.853   3.384
15063TIP3   OH245129   3.664   4.838   0.083
15063TIP3    H145130   3.709   4.770   0.032
15063TIP3    H245131   3.735   4.894   0.116
15064TIP3   OH245132   3.239   1.070   2.385
15064TIP3    H145133   3.183   1.066   2.307
15064TIP3    H245134   3.216   0.992   2.435
15065TIP3   OH245135   3.489   0.141   4.970
15065TIP3    H145136   3.486   0.047   4.987
15065TIP3    H245137   3.410   0.159   4.919
15066TIP3   OH245138   1.916   6.490   2.362
15066TIP3    H145139   1.841   6.475   2.419
15066TIP3    H245140   1.909   6.422   2.295
15067TIP3   OH245141   1.071   1.526   2.882
15067TIP3    H145142   1.007   1.470   2.926
15067TIP3    H245143   1.054   1.613   2.918
15068TIP3   OH245144   2.046   7.190   2.399
15068TIP3    H145145   1.966   7.204   2.348
15068TIP3    H245146   2.070   7.277   2.430
15069TIP3   OH245147   0.814   7.444   4.792
15069TIP3    H145148   0.853   7.514   4.740
15069TIP3    H245149   0.749   7.404   4.735
15070TIP3   OH245150   3.488   0.886   0.643
15070TIP3    H145151   3.519   0.855   0.558
15070TIP3    H245152   3.404   0.842   0.656
15071TIP3   OH245153   7.982   0.477   2.505
15071TIP3    H145154   7.949   0.540   2.441
15071TIP3    H245155   8.077   0.483   2.498
15072TIP3   OH245156   6.012   0.102   2.094
15072TIP3    H145157   6.028   0.130   2.004
15072TIP3    H245158   6.096   0.114   2.138
15073TIP3   OH245159   5.836   4.985   6.461
15073TIP3    H145160   5.777   4.970   6.388
15073TIP3    H245161   5.917   5.018   6.421
15074TIP3   OH245162   2.111   4.129   2.702
15074TIP3    H145163   2.102   4.220   2.672
15074TIP3    H245164   2.110   4.077   2.622
15075TIP3   OH245165   3.188   2.405   3.117
15075TIP3    H145166   3.094   2.397   3.097
15075TIP3    H245167   3.226   2.325   3.082
15076TIP3   OH245168   2.834   1.232   5.968
15076TIP3    H145169   2.800   1.157   5.921
15076TIP3    H245170   2.775   1.242   6.043
15077TIP3   OH245171   2.364   2.592   0.161
15077TIP3    H145172   2.411   2.664   0.205
15077TIP3    H245173   2.312   2.553   0.231
15078TIP3   OH245174   1.770   2.098   2.298
15078TIP3    H145175   1.801   2.184   2.328
15078TIP3    H245176   1.785   2.099   2.203
15079TIP3   OH245177   2.466   6.700   5.290
15079TIP3    H145178   2.395   6.753   5.255
15079TIP3    H245179   2.459   6.616   5.244
15080TIP3   OH245180   6.024   6.404   3.975
15080TIP3    H145181   5.966   6.474   3.947
15080TIP3    H245182   6.030   6.413   4.070
15081TIP3   OH245183   0.785   6.500   4.774
15081TIP3    H145184   0.744   6.418   4.748
15081TIP3    H245185   0.787   6.497   4.870
15082TIP3   OH245186   7.016   5.521   6.007
15082TIP3    H145187   6.960   5.578   6.060
15082TIP3    H245188   6.965   5.503   5.928
15083TIP3   OH245189   5.066   6.982   6.718
15083TIP3    H145190   5.154   6.980   6.681
15083TIP3    H245191   5.071   7.048   6.787
15084TIP3   OH245192   3.684   1.431   0.114
15084TIP3    H145193   3.640   1.454   0.196
15084TIP3    H245194   3.638   1.352   0.085
15085TIP3   OH245195   8.005   4.697   0.890
15085TIP3    H145196   7.988   4.779   0.844
15085TIP3    H245197   7.948   4.700   0.967
15086TIP3   OH245198   0.116   4.248   5.883
15086TIP3    H145199   0.105   4.182   5.951
15086TIP3    H245200   0.096   4.202   5.801
15087TIP3   OH245201   1.635   5.354   6.001
15087TIP3    H145202   1.597   5.414   6.065
15087TIP3    H245203   1.665   5.280   6.053
15088TIP3   OH245204   2.853   1.598   2.190
15088TIP3    H145205   2.789   1.581   2.122
15088TIP3    H245206   2.845   1.524   2.250
15089TIP3   OH245207   2.463   0.647   1.058
15089TIP3    H145208   2.390   0.590   1.081
15089TIP3    H245209   2.532   0.624   1.121
15090TIP3   OH245210   7.529   3.709   4.626
15090TIP3    H145211   7.469   3.783   4.627
15090TIP3    H245212   7.502   3.655   4.701
15091TIP3   OH245213   6.404   2.020   1.647
15091TIP3    H145214   6.385   1.978   1.563
15091TIP3    H245215   6.469   1.962   1.688
15092TIP3   OH245216   7.414   3.799   5.543
15092TIP3    H145217   7.476   3.745   5.591
15092TIP3    H245218   7.374   3.738   5.480
15093TIP3   OH245219   6.514   1.701   6.528
15093TIP3    H145220   6.420   1.701   6.509
15093TIP3    H245221   6.554   1.742   6.452
15094TIP3   OH245222   3.622   7.576   5.945
15094TIP3    H145223   3.717   7.566   5.953
15094TIP3    H245224   3.599   7.638   6.014
15095TIP3   OH245225   0.873   6.158   5.391
15095TIP3    H145226   0.813   6.231   5.377
15095TIP3    H245227   0.957   6.200   5.413
15096TIP3   OH245228   4.510   6.454   1.642
15096TIP3    H145229   4.505   6.549   1.644
15096TIP3    H245230   4.449   6.426   1.710
15097TIP3   OH245231   5.157   6.259   4.291
15097TIP3    H145232   5.122   6.316   4.222
15097TIP3    H245233   5.224   6.312   4.334
15098TIP3   OH245234   6.506   5.544   6.180
15098TIP3    H145235   6.418   5.567   6.151
15098TIP3    H245236   6.497   5.456   6.217
15099TIP3   OH245237   2.596   1.002   4.837
15099TIP3    H145238   2.510   0.998   4.794
15099TIP3    H245239   2.656   1.028   4.767
15100TIP3   OH245240   3.646   2.197   1.350
15100TIP3    H145241   3.649   2.182   1.445
15100TIP3    H245242   3.558   2.169   1.325
15101TIP3   OH245243   2.765   3.343   6.053
15101TIP3    H145244   2.841   3.345   6.111
15101TIP3    H245245   2.703   3.404   6.094
15102TIP3   OH245246   5.861   1.348   5.987
15102TIP3    H145247   5.838   1.428   6.033
15102TIP3    H245248   5.779   1.299   5.981
15103TIP3   OH245249   7.893   2.385   4.735
15103TIP3    H145250   7.861   2.299   4.709
15103TIP3    H245251   7.958   2.408   4.669
15104TIP3   OH245252   3.471   2.636   1.946
15104TIP3    H145253   3.379   2.609   1.953
15104TIP3    H245254   3.507   2.625   2.034
15105TIP3   OH245255   3.130   5.352   6.643
15105TIP3    H145256   3.170   5.383   6.725
15105TIP3    H245257   3.185   5.278   6.616
15106TIP3   OH245258   6.450   1.260   2.985
15106TIP3    H145259   6.387   1.198   3.022
15106TIP3    H245260   6.435   1.341   3.034
15107TIP3   OH245261   5.143   3.731   0.867
15107TIP3    H145262   5.203   3.710   0.939
15107TIP3    H245263   5.125   3.646   0.826
15108TIP3   OH245264   6.879   6.948   6.492
15108TIP3    H145265   6.850   6.899   6.569
15108TIP3    H245266   6.830   6.910   6.419
15109TIP3   OH245267   1.410   1.745   0.448
15109TIP3    H145268   1.467   1.805   0.497
15109TIP3    H245269   1.464   1.717   0.374
15110TIP3   OH245270   7.368   2.854   0.653
15110TIP3    H145271   7.398   2.768   0.622
15110TIP3    H245272   7.283   2.837   0.693
15111TIP3   OH245273   7.785   2.819   6.063
15111TIP3    H145274   7.820   2.752   6.004
15111TIP3    H245275   7.746   2.769   6.135
15112TIP3   OH245276   5.152   2.036   6.111
15112TIP3    H145277   5.214   1.963   6.116
15112TIP3    H245278   5.198   2.102   6.059
15113TIP3   OH245279   4.252   4.773   5.677
15113TIP3    H145280   4.202   4.852   5.695
15113TIP3    H245281   4.343   4.803   5.675
15114TIP3   OH245282   2.893   6.725   6.572
15114TIP3    H145283   2.869   6.799   6.628
15114TIP3    H245284   2.914   6.765   6.487
15115TIP3   OH245285   4.880   2.139   3.243
15115TIP3    H145286   4.860   2.096   3.159
15115TIP3    H245287   4.868   2.070   3.308
15116TIP3   OH245288   0.814   2.209   0.537
15116TIP3    H145289   0.800   2.302   0.521
15116TIP3    H245290   0.841   2.203   0.628
15117TIP3   OH245291   4.354   4.317   1.507
15117TIP3    H145292   4.441   4.329   1.546
15117TIP3    H245293   4.294   4.357   1.569
15118TIP3   OH245294   7.272   3.197   0.304
15118TIP3    H145295   7.280   3.252   0.382
15118TIP3    H245296   7.264   3.259   0.231
15119TIP3   OH245297   5.592   4.158   2.581
15119TIP3    H145298   5.650   4.193   2.649
15119TIP3    H245299   5.563   4.073   2.615
15120TIP3   OH245300   6.084   0.026   1.030
15120TIP3    H145301   6.111   0.089   0.963
15120TIP3    H245302   6.009   0.067   1.074
15121TIP3   OH245303   0.738   0.739   2.515
15121TIP3    H145304   0.760   0.716   2.605
15121TIP3    H245305   0.822   0.760   2.475
15122TIP3   OH245306   5.863   3.336   6.745
15122TIP3    H145307   5.789   3.397   6.747
15122TIP3    H245308   5.898   3.343   6.657
15123TIP3   OH245309   4.696   4.501   3.874
15123TIP3    H145310   4.780   4.483   3.916
15123TIP3    H245311   4.652   4.562   3.932
15124TIP3   OH245312   8.222   7.213   3.676
15124TIP3    H145313   8.208   7.247   3.587
15124TIP3    H245314   8.288   7.144   3.665
15125TIP3   OH245315   8.032   2.120   3.957
15125TIP3    H145316   8.113   2.074   3.936
15125TIP3    H245317   8.046   2.209   3.923
15126TIP3   OH245318   1.725   5.024   6.474
15126TIP3    H145319   1.647   4.968   6.477
15126TIP3    H245320   1.798   4.963   6.470
15127TIP3   OH245321   5.620   1.292   1.837
15127TIP3    H145322   5.706   1.323   1.809
15127TIP3    H245323   5.620   1.306   1.932
15128TIP3   OH245324   2.739   4.323   5.276
15128TIP3    H145325   2.751   4.346   5.183
15128TIP3    H245326   2.647   4.343   5.294
15129TIP3   OH245327   3.594   6.962   4.936
15129TIP3    H145328   3.608   6.916   5.018
15129TIP3    H245329   3.499   6.964   4.925
15130TIP3   OH245330   7.134   4.840   2.424
15130TIP3    H145331   7.170   4.861   2.510
15130TIP3    H245332   7.071   4.769   2.440
15131TIP3   OH245333   4.494   2.776   3.235
15131TIP3    H145334   4.470   2.718   3.307
15131TIP3    H245335   4.581   2.808   3.257
15132TIP3   OH245336   6.570   2.637   1.585
15132TIP3    H145337   6.565   2.683   1.669
15132TIP3    H245338   6.481   2.607   1.569
15133TIP3   OH245339   0.224   5.908   1.940
15133TIP3    H145340   0.144   5.862   1.915
15133TIP3    H245341   0.250   5.956   1.861
15134TIP3   OH245342   3.301   7.806   6.159
15134TIP3    H145343   3.364   7.739   6.187
15134TIP3    H245344   3.349   7.860   6.096
15135TIP3   OH245345   7.422   4.902   6.261
15135TIP3    H145346   7.474   4.822   6.257
15135TIP3    H245347   7.470   4.960   6.319
15136TIP3   OH245348   1.776   5.319   4.123
15136TIP3    H145349   1.782   5.276   4.208
15136TIP3    H245350   1.810   5.254   4.061
15137TIP3   OH245351   7.309   4.363   3.466
15137TIP3    H145352   7.220   4.361   3.499
15137TIP3    H245353   7.305   4.423   3.391
15138TIP3   OH245354   3.415   0.373   1.894
15138TIP3    H145355   3.427   0.468   1.891
15138TIP3    H245356   3.408   0.353   1.988
15139TIP3   OH245357   2.302   4.073   0.447
15139TIP3    H145358   2.237   4.038   0.508
15139TIP3    H245359   2.386   4.060   0.490
15140TIP3   OH245360   3.975   7.399   2.296
15140TIP3    H145361   3.896   7.453   2.308
15140TIP3    H245362   3.943   7.320   2.252
15141TIP3   OH245363   5.640   2.527   5.182
15141TIP3    H145364   5.625   2.563   5.269
15141TIP3    H245365   5.553   2.522   5.143
15142TIP3   OH245366   1.113   5.972   3.249
15142TIP3    H145367   1.050   5.951   3.180
15142TIP3    H245368   1.153   6.054   3.220
15143TIP3   OH245369   6.055   0.492   6.326
15143TIP3    H145370   6.108   0.496   6.406
15143TIP3    H245371   6.031   0.400   6.317
15144TIP3   OH245372   2.586   3.449   2.319
15144TIP3    H145373   2.542   3.419   2.239
15144TIP3    H245374   2.537   3.527   2.344
15145TIP3   OH245375   6.830   3.428   3.032
15145TIP3    H145376   6.902   3.445   3.093
15145TIP3    H245377   6.789   3.514   3.019
15146TIP3   OH245378   1.822   4.490   2.067
15146TIP3    H145379   1.743   4.462   2.021
15146TIP3    H245380   1.894   4.473   2.005
15147TIP3   OH245381   7.320   6.954   2.814
15147TIP3    H145382   7.252   6.888   2.818
15147TIP3    H245383   7.364   6.949   2.899
15148TIP3   OH245384   1.207   2.619   4.110
15148TIP3    H145385   1.222   2.534   4.069
15148TIP3    H245386   1.148   2.665   4.050
15149TIP3   OH245387   6.027   4.587   1.141
15149TIP3    H145388   6.079   4.640   1.080
15149TIP3    H245389   6.092   4.543   1.196
15150TIP3   OH245390   5.812   4.023   3.457
15150TIP3    H145391   5.890   4.067   3.423
15150TIP3    H245392   5.784   4.077   3.530
15151TIP3   OH245393   4.123   1.165   3.734
15151TIP3    H145394   4.142   1.240   3.678
15151TIP3    H245395   4.208   1.127   3.753
15152TIP3   OH245396   3.961   6.226   3.879
15152TIP3    H145397   3.891   6.277   3.839
15152TIP3    H245398   3.922   6.190   3.959
15153TIP3   OH245399   3.151   1.927   2.901
15153TIP3    H145400   3.076   1.892   2.851
15153TIP3    H245401   3.194   1.849   2.936
15154TIP3   OH245402   6.621   4.807   5.586
15154TIP3    H145403   6.638   4.773   5.674
15154TIP3    H245404   6.684   4.878   5.575
15155TIP3   OH245405   2.069   4.277   5.070
15155TIP3    H145406   2.011   4.202   5.060
15155TIP3    H245407   2.018   4.351   5.038
15156TIP3   OH245408   5.389   5.985   2.255
15156TIP3    H145409   5.433   6.067   2.276
15156TIP3    H245410   5.331   5.969   2.330
15157TIP3   OH245411   5.297   7.488   5.224
15157TIP3    H145412   5.364   7.524   5.281
15157TIP3    H245413   5.229   7.455   5.283
15158TIP3   OH245414   6.249   3.790   0.924
15158TIP3    H145415   6.331   3.781   0.875
15158TIP3    H245416   6.269   3.754   1.011
15159TIP3   OH245417   6.653   1.267   4.787
15159TIP3    H145418   6.571   1.230   4.756
15159TIP3    H245419   6.630   1.354   4.819
15160TIP3   OH245420   6.876   2.957   1.166
15160TIP3    H145421   6.805   2.918   1.217
15160TIP3    H245422   6.946   2.971   1.230
15161TIP3   OH245423   2.225   1.434   2.844
15161TIP3    H145424   2.251   1.459   2.933
15161TIP3    H245425   2.241   1.513   2.792
15162TIP3   OH245426   0.998   2.217   0.207
15162TIP3    H145427   0.970   2.149   0.146
15162TIP3    H245428   0.919   2.267   0.226
15163TIP3   OH245429   0.398   4.761   1.218
15163TIP3    H145430   0.340   4.684   1.223
15163TIP3    H245431   0.352   4.821   1.160
15164TIP3   OH245432   5.333   4.435   2.309
15164TIP3    H145433   5.321   4.447   2.403
15164TIP3    H245434   5.333   4.523   2.272
15165TIP3   OH245435   6.349   4.039   4.367
15165TIP3    H145436   6.361   4.134   4.365
15165TIP3    H245437   6.374   4.010   4.279
15166TIP3   OH245438   7.046   4.663   4.689
15166TIP3    H145439   6.980   4.596   4.709
15166TIP3    H245440   7.039   4.725   4.762
15167TIP3   OH245441   5.046   5.792   2.391
15167TIP3    H145442   4.967   5.819   2.344
15167TIP3    H245443   5.013   5.757   2.474
15168TIP3   OH245444   3.419   2.759   3.352
15168TIP3    H145445   3.403   2.686   3.291
15168TIP3    H245446   3.514   2.771   3.349
15169TIP3   OH245447   0.118   0.734   2.899
15169TIP3    H145448   0.199   0.785   2.909
15169TIP3    H245449   0.126   0.694   2.813
15170TIP3   OH245450   1.167   7.422   5.316
15170TIP3    H145451   1.261   7.411   5.303
15170TIP3    H245452   1.158   7.508   5.356
15171TIP3   OH245453   7.596   7.732   0.146
15171TIP3    H145454   7.628   7.744   0.056
15171TIP3    H245455   7.671   7.697   0.194
15172TIP3   OH245456   0.668   7.108   1.772
15172TIP3    H145457   0.735   7.158   1.725
15172TIP3    H245458   0.638   7.043   1.708
15173TIP3   OH245459   3.711   5.656   2.280
15173TIP3    H145460   3.683   5.582   2.227
15173TIP3    H245461   3.637   5.717   2.278
15174TIP3   OH245462   8.018   5.844   3.575
15174TIP3    H145463   8.077   5.814   3.645
15174TIP3    H245464   8.073   5.897   3.518
15175TIP3   OH245465   0.108   3.729   1.758
15175TIP3    H145466   0.192   3.738   1.804
15175TIP3    H245467   0.042   3.748   1.825
15176TIP3   OH245468   4.832   0.232   6.000
15176TIP3    H145469   4.740   0.243   6.023
15176TIP3    H245470   4.842   0.138   5.983
15177TIP3   OH245471   6.336   4.963   4.150
15177TIP3    H145472   6.400   5.034   4.141
15177TIP3    H245473   6.256   5.007   4.180
15178TIP3   OH245474   1.557   6.301   4.744
15178TIP3    H145475   1.506   6.381   4.729
15178TIP3    H245476   1.496   6.230   4.726
15179TIP3   OH245477   7.040   4.538   1.817
15179TIP3    H145478   6.956   4.503   1.847
15179TIP3    H245479   7.103   4.507   1.881
15180TIP3   OH245480   3.693   0.851   5.178
15180TIP3    H145481   3.747   0.839   5.256
15180TIP3    H245482   3.752   0.888   5.113
15181TIP3   OH245483   4.211   3.012   3.800
15181TIP3    H145484   4.233   2.939   3.859
15181TIP3    H245485   4.142   2.977   3.744
15182TIP3   OH245486   8.101   4.508   2.011
15182TIP3    H145487   8.139   4.557   1.938
15182TIP3    H245488   8.170   4.504   2.077
15183TIP3   OH245489   6.511   0.484   3.705
15183TIP3    H145490   6.547   0.411   3.655
15183TIP3    H245491   6.510   0.558   3.644
15184TIP3   OH245492   5.694   0.811   1.711
15184TIP3    H145493   5.760   0.783   1.648
15184TIP3    H245494   5.658   0.891   1.674
15185TIP3   OH245495   1.517   1.099   5.460
15185TIP3    H145496   1.554   1.012   5.470
15185TIP3    H245497   1.461   1.111   5.537
15186TIP3   OH245498   4.956   3.489   1.490
15186TIP3    H145499   5.023   3.554   1.511
15186TIP3    H245500   5.004   3.406   1.485
15187TIP3   OH245501   4.733   3.472   2.526
15187TIP3    H145502   4.735   3.480   2.622
15187TIP3    H245503   4.717   3.379   2.511
15188TIP3   OH245504   5.633   1.201   5.984
15188TIP3    H145505   5.587   1.259   5.923
15188TIP3    H245506   5.600   1.113   5.962
15189TIP3   OH245507   2.109   1.241   3.842
15189TIP3    H145508   2.103   1.335   3.861
15189TIP3    H245509   2.031   1.223   3.790
15190TIP3   OH245510   5.115   1.926   0.498
15190TIP3    H145511   5.131   1.839   0.461
15190TIP3    H245512   5.180   1.982   0.457
15191TIP3   OH245513   7.458   4.754   3.802
15191TIP3    H145514   7.485   4.846   3.803
15191TIP3    H245515   7.379   4.751   3.856
15192TIP3   OH245516   2.837   3.666   6.137
15192TIP3    H145517   2.856   3.630   6.223
15192TIP3    H245518   2.742   3.661   6.129
15193TIP3   OH245519   1.542   0.655   1.122
15193TIP3    H145520   1.501   0.572   1.094
15193TIP3    H245521   1.634   0.633   1.134
15194TIP3   OH245522   3.312   2.706   4.929
15194TIP3    H145523   3.380   2.643   4.908
15194TIP3    H245524   3.266   2.720   4.847
15195TIP3   OH245525   0.803   1.611   1.689
15195TIP3    H145526   0.856   1.595   1.610
15195TIP3    H245527   0.814   1.704   1.706
15196TIP3   OH245528   5.520   2.343   2.646
15196TIP3    H145529   5.534   2.333   2.740
15196TIP3    H245530   5.442   2.399   2.640
15197TIP3   OH245531   6.795   7.245   1.715
15197TIP3    H145532   6.728   7.253   1.783
15197TIP3    H245533   6.869   7.296   1.748
15198TIP3   OH245534   1.573   2.963   5.356
15198TIP3    H145535   1.585   3.038   5.414
15198TIP3    H245536   1.656   2.916   5.361
15199TIP3   OH245537   6.993   6.377   1.452
15199TIP3    H145538   6.977   6.472   1.455
15199TIP3    H245539   7.002   6.358   1.359
15200TIP3   OH245540   7.987   7.767   0.744
15200TIP3    H145541   8.046   7.825   0.793
15200TIP3    H245542   7.922   7.826   0.706
15201TIP3   OH245543   1.318   5.122   2.235
15201TIP3    H145544   1.343   5.038   2.273
15201TIP3    H245545   1.319   5.107   2.140
15202TIP3   OH245546   7.203   5.320   2.366
15202TIP3    H145547   7.253   5.360   2.437
15202TIP3    H245548   7.165   5.241   2.404
15203TIP3   OH245549   5.047   4.350   5.502
15203TIP3    H145550   5.028   4.267   5.459
15203TIP3    H245551   5.122   4.385   5.455
15204TIP3   OH245552   2.700   5.298   0.343
15204TIP3    H145553   2.683   5.382   0.300
15204TIP3    H245554   2.765   5.318   0.410
15205TIP3   OH245555   6.859   1.351   4.301
15205TIP3    H145556   6.895   1.313   4.221
15205TIP3    H245557   6.931   1.343   4.365
15206TIP3   OH245558   7.470   2.349   2.893
15206TIP3    H145559   7.476   2.419   2.828
15206TIP3    H245560   7.421   2.279   2.849
15207TIP3   OH245561   0.484   1.169   5.072
15207TIP3    H145562   0.415   1.231   5.094
15207TIP3    H245563   0.491   1.113   5.150
15208TIP3   OH245564   1.705   1.079   2.000
15208TIP3    H145565   1.640   1.033   1.948
15208TIP3    H245566   1.784   1.026   1.994
15209TIP3   OH245567   1.313   6.120   4.257
15209TIP3    H145568   1.267   6.149   4.178
15209TIP3    H245569   1.369   6.193   4.281
15210TIP3   OH245570   2.649   1.433   4.788
15210TIP3    H145571   2.653   1.527   4.770
15210TIP3    H245572   2.622   1.427   4.880
15211TIP3   OH245573   0.078   1.162   1.692
15211TIP3    H145574   0.042   1.119   1.614
15211TIP3    H245575   0.144   1.101   1.725
15212TIP3   OH245576   0.883   5.006   1.573
15212TIP3    H145577   0.851   4.986   1.485
15212TIP3    H245578   0.906   5.099   1.569
15213TIP3   OH245579   5.825   2.885   0.353
15213TIP3    H145580   5.812   2.903   0.446
15213TIP3    H245581   5.779   2.955   0.308
15214TIP3   OH245582   6.972   4.146   4.926
15214TIP3    H145583   6.885   4.176   4.898
15214TIP3    H245584   6.963   4.051   4.933
15215TIP3   OH245585   2.388   0.392   3.553
15215TIP3    H145586   2.380   0.408   3.647
15215TIP3    H245587   2.357   0.303   3.540
15216TIP3   OH245588   2.492   6.969   0.338
15216TIP3    H145589   2.469   7.058   0.312
15216TIP3    H245590   2.448   6.913   0.275
15217TIP3   OH245591   8.082   2.583   4.659
15217TIP3    H145592   8.071   2.562   4.752
15217TIP3    H245593   8.177   2.582   4.646
15218TIP3   OH245594   5.891   0.808   5.396
15218TIP3    H145595   5.966   0.802   5.337
15218TIP3    H245596   5.871   0.901   5.402
15219TIP3   OH245597   5.714   6.531   2.770
15219TIP3    H145598   5.746   6.592   2.836
15219TIP3    H245599   5.714   6.446   2.814
15220TIP3   OH245600   7.616   2.377   1.756
15220TIP3    H145601   7.689   2.436   1.738
15220TIP3    H245602   7.598   2.390   1.849
15221TIP3   OH245603   7.343   0.473   5.984
15221TIP3    H145604   7.379   0.384   5.978
15221TIP3    H245605   7.418   0.530   5.965
15222TIP3   OH245606   5.643   3.222   4.500
15222TIP3    H145607   5.683   3.177   4.425
15222TIP3    H245608   5.571   3.272   4.463
15223TIP3   OH245609   2.750   4.766   2.396
15223TIP3    H145610   2.706   4.681   2.395
15223TIP3    H245611   2.776   4.779   2.487
15224TIP3   OH245612   1.065   3.506   3.249
15224TIP3    H145613   1.142   3.497   3.305
15224TIP3    H245614   1.003   3.556   3.302
15225TIP3   OH245615   2.559   5.579   0.358
15225TIP3    H145616   2.598   5.622   0.282
15225TIP3    H245617   2.592   5.628   0.434
15226TIP3   OH245618   8.371   0.395   0.852
15226TIP3    H145619   8.466   0.389   0.855
15226TIP3    H245620   8.343   0.390   0.943
15227TIP3   OH245621   5.340   3.789   3.695
15227TIP3    H145622   5.297   3.755   3.616
15227TIP3    H245623   5.401   3.854   3.661
15228TIP3   OH245624   6.682   6.714   2.113
15228TIP3    H145625   6.648   6.775   2.179
15228TIP3    H245626   6.652   6.750   2.030
15229TIP3   OH245627   5.721   3.263   2.703
15229TIP3    H145628   5.771   3.344   2.716
15229TIP3    H245629   5.631   3.292   2.688
15230TIP3   OH245630   0.509   0.754   6.532
15230TIP3    H145631   0.536   0.829   6.478
15230TIP3    H245632   0.590   0.722   6.572
15231TIP3   OH245633   4.381   1.684   3.656
15231TIP3    H145634   4.290   1.656   3.666
15231TIP3    H245635   4.375   1.768   3.611
15232TIP3   OH245636   3.009   1.522   4.241
15232TIP3    H145637   2.939   1.588   4.243
15232TIP3    H245638   3.090   1.574   4.245
15233TIP3   OH245639   0.055   2.589   5.484
15233TIP3    H145640   0.131   2.533   5.497
15233TIP3    H245641   0.020   2.604   5.572
15234TIP3   OH245642   0.816   2.053   0.835
15234TIP3    H145643   0.809   2.117   0.906
15234TIP3    H245644   0.744   1.991   0.851
15235TIP3   OH245645   5.810   3.736   5.141
15235TIP3    H145646   5.823   3.827   5.113
15235TIP3    H245647   5.715   3.726   5.146
15236TIP3   OH245648   2.041   5.278   0.913
15236TIP3    H145649   1.983   5.214   0.954
15236TIP3    H245650   2.064   5.239   0.828
15237TIP3   OH245651   1.330   3.295   4.135
15237TIP3    H145652   1.379   3.276   4.214
15237TIP3    H245653   1.308   3.388   4.142
15238TIP3   OH245654   3.181   7.564   6.056
15238TIP3    H145655   3.214   7.650   6.078
15238TIP3    H245656   3.147   7.573   5.967
15239TIP3   OH245657   1.998   7.357   2.758
15239TIP3    H145658   1.946   7.293   2.807
15239TIP3    H245659   1.952   7.440   2.771
15240TIP3   OH245660   7.553   1.902   0.516
15240TIP3    H145661   7.557   1.996   0.501
15240TIP3    H245662   7.580   1.891   0.607
15241TIP3   OH245663   6.845   1.088   6.487
15241TIP3    H145664   6.773   1.150   6.497
15241TIP3    H245665   6.918   1.128   6.534
15242TIP3   OH245666   4.371   1.079   2.930
15242TIP3    H145667   4.383   1.113   3.019
15242TIP3    H245668   4.281   1.105   2.907
15243TIP3   OH245669   6.969   6.858   2.069
15243TIP3    H145670   7.058   6.826   2.085
15243TIP3    H245671   6.913   6.782   2.082
15244TIP3   OH245672   4.633   1.641   2.171
15244TIP3    H145673   4.622   1.686   2.087
15244TIP3    H245674   4.649   1.711   2.234
15245TIP3   OH245675   4.771   6.297   5.708
15245TIP3    H145676   4.854   6.254   5.727
15245TIP3    H245677   4.766   6.299   5.612
15246TIP3   OH245678   7.524   2.370   2.288
15246TIP3    H145679   7.554   2.280   2.305
15246TIP3    H245680   7.577   2.424   2.346
15247TIP3   OH245681   2.901   1.502   4.572
15247TIP3    H145682   2.985   1.520   4.615
15247TIP3    H245683   2.919   1.427   4.515
15248TIP3   OH245684   2.880   0.913   1.886
15248TIP3    H145685   2.951   0.958   1.840
15248TIP3    H245686   2.863   0.835   1.833
15249TIP3   OH245687   1.891   7.102   2.630
15249TIP3    H145688   1.806   7.128   2.594
15249TIP3    H245689   1.953   7.119   2.560
15250TIP3   OH245690   1.542   2.697   1.039
15250TIP3    H145691   1.606   2.746   1.090
15250TIP3    H245692   1.468   2.686   1.098
15251TIP3   OH245693   6.275   7.206   0.638
15251TIP3    H145694   6.291   7.131   0.696
15251TIP3    H245695   6.350   7.207   0.580
15252TIP3   OH245696   7.554   4.365   2.696
15252TIP3    H145697   7.643   4.387   2.669
15252TIP3    H245698   7.562   4.277   2.734
15253TIP3   OH245699   5.981   7.492   3.048
15253TIP3    H145700   6.015   7.575   3.016
15253TIP3    H245701   6.058   7.437   3.060
15254TIP3   OH245702   2.838   5.227   1.800
15254TIP3    H145703   2.760   5.278   1.823
15254TIP3    H245704   2.911   5.281   1.829
15255TIP3   OH245705   5.742   3.539   2.448
15255TIP3    H145706   5.751   3.507   2.358
15255TIP3    H245707   5.675   3.607   2.442
15256TIP3   OH245708   4.879   3.388   4.731
15256TIP3    H145709   4.833   3.471   4.743
15256TIP3    H245710   4.972   3.412   4.739
15257TIP3   OH245711   1.235   7.008   5.619
15257TIP3    H145712   1.190   7.084   5.583
15257TIP3    H245713   1.165   6.952   5.652
15258TIP3   OH245714   4.983   4.575   6.489
15258TIP3    H145715   4.922   4.516   6.445
15258TIP3    H245716   5.018   4.631   6.419
15259TIP3   OH245717   4.129   6.946   4.648
15259TIP3    H145718   4.211   6.960   4.602
15259TIP3    H245719   4.146   6.871   4.706
15260TIP3   OH245720   4.025   2.488   2.962
15260TIP3    H145721   3.947   2.488   2.906
15260TIP3    H245722   4.071   2.569   2.939
15261TIP3   OH245723   4.052   5.833   3.194
15261TIP3    H145724   4.057   5.850   3.100
15261TIP3    H245725   4.102   5.752   3.206
15262TIP3   OH245726   4.779   0.124   2.367
15262TIP3    H145727   4.721   0.049   2.352
15262TIP3    H245728   4.725   0.200   2.348
15263TIP3   OH245729   6.572   5.498   1.705
15263TIP3    H145730   6.643   5.493   1.769
15263TIP3    H245731   6.531   5.412   1.707
15264TIP3   OH245732   6.677   1.159   2.314
15264TIP3    H145733   6.740   1.104   2.360
15264TIP3    H245734   6.630   1.100   2.256
15265TIP3   OH245735   6.850   1.066   4.798
15265TIP3    H145736   6.797   1.144   4.781
15265TIP3    H245737   6.899   1.052   4.717
15266TIP3   OH245738   6.441   7.222   6.457
15266TIP3    H145739   6.437   7.217   6.362
15266TIP3    H245740   6.376   7.289   6.480
15267TIP3   OH245741   4.291   6.139   3.897
15267TIP3    H145742   4.253   6.185   3.823
15267TIP3    H245743   4.362   6.196   3.926
15268TIP3   OH245744   2.837   2.765   0.531
15268TIP3    H145745   2.775   2.692   0.524
15268TIP3    H245746   2.781   2.842   0.539
15269TIP3   OH245747   4.184   0.088   1.581
15269TIP3    H145748   4.213   0.178   1.595
15269TIP3    H245749   4.219   0.065   1.495
15270TIP3   OH245750   0.740   1.147   0.384
15270TIP3    H145751   0.741   1.087   0.309
15270TIP3    H245752   0.649   1.176   0.390
15271TIP3   OH245753   3.618   1.552   4.250
15271TIP3    H145754   3.573   1.523   4.330
15271TIP3    H245755   3.612   1.477   4.191
15272TIP3   OH245756   6.296   6.184   6.296
15272TIP3    H145757   6.237   6.161   6.224
15272TIP3    H245758   6.241   6.228   6.360
15273TIP3   OH245759   7.241   0.081   5.802
15273TIP3    H145760   7.222  -0.001   5.848
15273TIP3    H245761   7.250   0.056   5.710
15274TIP3   OH245762   7.532   2.646   0.603
15274TIP3    H145763   7.624   2.623   0.591
15274TIP3    H245764   7.485   2.590   0.540
15275TIP3   OH245765   7.612   7.879   6.601
15275TIP3    H145766   7.664   7.960   6.595
15275TIP3    H245767   7.615   7.855   6.694
15276TIP3   OH245768   5.404   3.011   2.069
15276TIP3    H145769   5.482   2.958   2.059
15276TIP3    H245770   5.349   2.963   2.132
15277TIP3   OH245771   6.055   1.607   0.358
15277TIP3    H145772   6.088   1.679   0.304
15277TIP3    H245773   5.987   1.647   0.412
15278TIP3   OH245774   2.838   0.612   2.947
15278TIP3    H145775   2.926   0.586   2.917
15278TIP3    H245776   2.830   0.704   2.921
15279TIP3   OH245777   2.309   1.518   0.345
15279TIP3    H145778   2.397   1.523   0.308
15279TIP3    H245779   2.258   1.471   0.279
15280TIP3   OH245780   5.676   1.314   0.535
15280TIP3    H145781   5.638   1.401   0.520
15280TIP3    H245782   5.722   1.295   0.453
15281TIP3   OH245783   6.804   7.803   0.012
15281TIP3    H145784   6.757   7.814  -0.071
15281TIP3    H245785   6.778   7.717   0.043
15282TIP3   OH245786   3.881   4.066   0.462
15282TIP3    H145787   3.976   4.073   0.456
15282TIP3    H245788   3.857   4.003   0.394
15283TIP3   OH245789   5.403   1.897   1.901
15283TIP3    H145790   5.418   1.941   1.985
15283TIP3    H245791   5.323   1.937   1.867
15284TIP3   OH245792   4.560   7.804   0.084
15284TIP3    H145793   4.575   7.818  -0.010
15284TIP3    H245794   4.488   7.741   0.087
15285TIP3   OH245795   4.269   1.354   5.471
15285TIP3    H145796   4.184   1.374   5.431
15285TIP3    H245797   4.263   1.389   5.560
15286TIP3   OH245798   4.613   6.000   6.298
15286TIP3    H145799   4.553   6.039   6.234
15286TIP3    H245800   4.604   6.055   6.376
15287TIP3   OH245801   4.461   5.654   3.521
15287TIP3    H145802   4.375   5.694   3.513
15287TIP3    H245803   4.478   5.649   3.615
15288TIP3   OH245804   7.498   3.983   6.265
15288TIP3    H145805   7.565   3.953   6.326
15288TIP3    H245806   7.468   4.067   6.301
15289TIP3   OH245807   5.161   6.888   3.679
15289TIP3    H145808   5.138   6.797   3.696
15289TIP3    H245809   5.080   6.937   3.692
15290TIP3   OH245810   4.374   4.582   4.516
15290TIP3    H145811   4.314   4.605   4.587
15290TIP3    H245812   4.436   4.656   4.514
15291TIP3   OH245813   1.035   2.817   3.185
15291TIP3    H145814   1.025   2.909   3.160
15291TIP3    H245815   1.113   2.815   3.241
15292TIP3   OH245816   2.984   5.432   3.491
15292TIP3    H145817   3.050   5.372   3.459
15292TIP3    H245818   2.931   5.380   3.552
15293TIP3   OH245819   4.907   4.218   3.458
15293TIP3    H145820   4.913   4.198   3.365
15293TIP3    H245821   4.864   4.142   3.496
15294TIP3   OH245822   4.238   4.343   2.370
15294TIP3    H145823   4.199   4.266   2.411
15294TIP3    H245824   4.165   4.389   2.330
15295TIP3   OH245825   3.102   6.149   3.294
15295TIP3    H145826   3.066   6.091   3.361
15295TIP3    H245827   3.062   6.234   3.311
15296TIP3   OH245828   1.841   0.735   3.205
15296TIP3    H145829   1.929   0.754   3.238
15296TIP3    H245830   1.829   0.796   3.132
15297TIP3   OH245831   3.703   3.844   2.490
15297TIP3    H145832   3.644   3.774   2.463
15297TIP3    H245833   3.751   3.868   2.411
15298TIP3   OH245834   8.046   4.462   1.442
15298TIP3    H145835   8.097   4.399   1.493
15298TIP3    H245836   7.986   4.409   1.391
15299TIP3   OH245837   4.570   6.346   3.578
15299TIP3    H145838   4.556   6.389   3.494
15299TIP3    H245839   4.523   6.263   3.571
15300TIP3   OH245840   1.577   2.714   4.337
15300TIP3    H145841   1.591   2.720   4.432
15300TIP3    H245842   1.551   2.623   4.322
15301TIP3   OH245843   0.173   5.414   4.708
15301TIP3    H145844   0.168   5.505   4.736
15301TIP3    H245845   0.250   5.379   4.753
15302TIP3   OH245846   1.672   4.323   0.484
15302TIP3    H145847   1.666   4.279   0.569
15302TIP3    H245848   1.677   4.416   0.506
15303TIP3   OH245849   5.075   1.727   0.088
15303TIP3    H145850   5.069   1.750  -0.005
15303TIP3    H245851   5.040   1.803   0.134
15304TIP3   OH245852   3.458   1.890   5.139
15304TIP3    H145853   3.420   1.971   5.171
15304TIP3    H245854   3.386   1.827   5.140
15305TIP3   OH245855   4.842   1.666   4.665
15305TIP3    H145856   4.798   1.590   4.702
15305TIP3    H245857   4.806   1.675   4.577
15306TIP3   OH245858   3.777   0.294   6.051
15306TIP3    H145859   3.685   0.271   6.060
15306TIP3    H245860   3.800   0.263   5.963
15307TIP3   OH245861   7.337   1.118   0.758
15307TIP3    H145862   7.247   1.099   0.734
15307TIP3    H245863   7.332   1.197   0.812
15308TIP3   OH245864   4.116   4.123   2.017
15308TIP3    H145865   4.030   4.133   2.059
15308TIP3    H245866   4.179   4.138   2.087
15309TIP3   OH245867   0.684   2.909   6.429
15309TIP3    H145868   0.764   2.948   6.393
15309TIP3    H245869   0.614   2.942   6.374
15310TIP3   OH245870   8.484   0.433   6.466
15310TIP3    H145871   8.463   0.457   6.557
15310TIP3    H245872   8.467   0.512   6.416
15311TIP3   OH245873   1.573   3.263   3.882
15311TIP3    H145874   1.645   3.271   3.945
15311TIP3    H245875   1.519   3.341   3.896
15312TIP3   OH245876   6.318   6.653   2.824
15312TIP3    H145877   6.388   6.657   2.759
15312TIP3    H245878   6.270   6.573   2.804
15313TIP3   OH245879   7.056   5.290   2.958
15313TIP3    H145880   7.139   5.255   2.991
15313TIP3    H245881   7.048   5.254   2.870
15314TIP3   OH245882   3.417   4.716   1.332
15314TIP3    H145883   3.367   4.703   1.251
15314TIP3    H245884   3.371   4.787   1.377
15315TIP3   OH245885   0.854   4.886   6.084
15315TIP3    H145886   0.857   4.982   6.078
15315TIP3    H245887   0.912   4.865   6.157
15316TIP3   OH245888   7.853   4.825   2.988
15316TIP3    H145889   7.887   4.800   2.902
15316TIP3    H245890   7.911   4.896   3.017
15317TIP3   OH245891   2.330   2.894   6.549
15317TIP3    H145892   2.420   2.882   6.518
15317TIP3    H245893   2.295   2.964   6.494
15318TIP3   OH245894   0.926   1.150   5.562
15318TIP3    H145895   1.001   1.208   5.545
15318TIP3    H245896   0.881   1.191   5.636
15319TIP3   OH245897   0.260   0.410   1.676
15319TIP3    H145898   0.296   0.370   1.755
15319TIP3    H245899   0.289   0.501   1.679
15320TIP3   OH245900   3.991   2.851   4.144
15320TIP3    H145901   4.059   2.918   4.137
15320TIP3    H245902   3.911   2.894   4.113
15321TIP3   OH245903   2.586   6.736   3.555
15321TIP3    H145904   2.637   6.705   3.479
15321TIP3    H245905   2.639   6.807   3.591
15322TIP3   OH245906   4.260   6.914   5.250
15322TIP3    H145907   4.177   6.890   5.209
15322TIP3    H245908   4.238   6.986   5.309
15323TIP3   OH245909   0.302   6.322   6.192
15323TIP3    H145910   0.347   6.297   6.273
15323TIP3    H245911   0.251   6.400   6.215
15324TIP3   OH245912   6.482   4.641   3.015
15324TIP3    H145913   6.474   4.736   3.022
15324TIP3    H245914   6.536   4.616   3.090
15325TIP3   OH245915   1.878   4.067   4.608
15325TIP3    H145916   1.837   4.059   4.694
15325TIP3    H245917   1.956   4.121   4.623
15326TIP3   OH245918   0.881   2.852   3.973
15326TIP3    H145919   0.827   2.868   4.051
15326TIP3    H245920   0.919   2.937   3.953
15327TIP3   OH245921   1.073   1.543   6.642
15327TIP3    H145922   0.989   1.502   6.622
15327TIP3    H245923   1.054   1.637   6.643
15328TIP3   OH245924   6.379   3.295   1.826
15328TIP3    H145925   6.296   3.278   1.781
15328TIP3    H245926   6.383   3.391   1.833
15329TIP3   OH245927   7.023   4.441   4.130
15329TIP3    H145928   7.034   4.398   4.214
15329TIP3    H245929   7.112   4.460   4.100
15330TIP3   OH245930   6.810   4.211   0.574
15330TIP3    H145931   6.869   4.274   0.533
15330TIP3    H245932   6.786   4.251   0.657
15331TIP3   OH245933   0.460   7.343   4.909
15331TIP3    H145934   0.366   7.351   4.928
15331TIP3    H245935   0.481   7.252   4.930
15332TIP3   OH245936   2.259   1.507   5.862
15332TIP3    H145937   2.352   1.500   5.843
15332TIP3    H245938   2.217   1.511   5.775
15333TIP3   OH245939   5.177   7.227   4.603
15333TIP3    H145940   5.171   7.225   4.507
15333TIP3    H245941   5.270   7.216   4.621
15334TIP3   OH245942   5.238   5.544   0.648
15334TIP3    H145943   5.243   5.604   0.574
15334TIP3    H245944   5.214   5.600   0.723
15335TIP3   OH245945   5.844   2.805   6.806
15335TIP3    H145946   5.749   2.809   6.818
15335TIP3    H245947   5.872   2.729   6.857
15336TIP3   OH245948   7.343   6.598   2.987
15336TIP3    H145949   7.378   6.633   3.069
15336TIP3    H245950   7.389   6.647   2.919
15337TIP3   OH245951   6.922   7.235   3.849
15337TIP3    H145952   6.872   7.301   3.802
15337TIP3    H245953   6.985   7.202   3.784
15338TIP3   OH245954   3.231   3.692   5.056
15338TIP3    H145955   3.326   3.696   5.043
15338TIP3    H245956   3.198   3.643   4.981
15339TIP3   OH245957   0.296   2.155   0.132
15339TIP3    H145958   0.330   2.068   0.150
15339TIP3    H245959   0.374   2.210   0.123
15340TIP3   OH245960   7.126   1.940   4.076
15340TIP3    H145961   7.048   1.886   4.092
15340TIP3    H245962   7.094   2.030   4.082
15341TIP3   OH245963   4.636   2.943   4.111
15341TIP3    H145964   4.657   2.889   4.035
15341TIP3    H245965   4.661   2.889   4.186
15342TIP3   OH245966   2.556   4.223   6.198
15342TIP3    H145967   2.565   4.199   6.106
15342TIP3    H245968   2.596   4.309   6.204
15343TIP3   OH245969  -0.020   6.580   4.139
15343TIP3    H145970   0.008   6.671   4.142
15343TIP3    H245971   0.061   6.530   4.128
15344TIP3   OH245972   8.356   3.548   3.768
15344TIP3    H145973   8.374   3.577   3.857
15344TIP3    H245974   8.261   3.541   3.764
15345TIP3   OH245975   1.722   2.153   4.841
15345TIP3    H145976   1.631   2.130   4.857
15345TIP3    H245977   1.747   2.102   4.764
15346TIP3   OH245978   5.810   5.602   0.677
15346TIP3    H145979   5.828   5.538   0.608
15346TIP3    H245980   5.874   5.672   0.661
15347TIP3   OH245981   4.999   2.562   2.099
15347TIP3    H145982   5.030   2.473   2.110
15347TIP3    H245983   5.050   2.614   2.161
15348TIP3   OH245984   8.346   6.123   2.339
15348TIP3    H145985   8.292   6.202   2.341
15348TIP3    H245986   8.295   6.059   2.390
15349TIP3   OH245987   3.761   0.570   1.479
15349TIP3    H145988   3.671   0.554   1.506
15349TIP3    H245989   3.758   0.573   1.383
15350TIP3   OH245990   4.343   4.076   2.200
15350TIP3    H145991   4.407   4.006   2.215
15350TIP3    H245992   4.343   4.126   2.281
15351TIP3   OH245993   1.960   6.681   0.968
15351TIP3    H145994   2.015   6.617   1.013
15351TIP3    H245995   1.880   6.686   1.021
15352TIP3   OH245996   8.304   1.364   0.825
15352TIP3    H145997   8.282   1.361   0.918
15352TIP3    H245998   8.342   1.278   0.807
15353TIP3   OH245999   1.282   6.597   0.299
15353TIP3    H146000   1.326   6.664   0.351
15353TIP3    H246001   1.241   6.539   0.364
15354TIP3   OH246002   5.409   1.699   1.463
15354TIP3    H146003   5.430   1.672   1.553
15354TIP3    H246004   5.449   1.786   1.455
15355TIP3   OH246005   7.059   1.675   3.453
15355TIP3    H146006   7.107   1.720   3.522
15355TIP3    H246007   7.068   1.732   3.376
15356TIP3   OH246008   0.735   5.815   0.373
15356TIP3    H146009   0.654   5.862   0.395
15356TIP3    H246010   0.744   5.827   0.279
15357TIP3   OH246011   5.667   3.442   3.164
15357TIP3    H146012   5.683   3.477   3.076
15357TIP3    H246013   5.731   3.372   3.173
15358TIP3   OH246014   3.908   0.263   2.873
15358TIP3    H146015   3.817   0.259   2.900
15358TIP3    H246016   3.957   0.227   2.948
15359TIP3   OH246017   8.130   5.609   6.050
15359TIP3    H146018   8.182   5.567   6.120
15359TIP3    H246019   8.048   5.633   6.093
15360TIP3   OH246020   3.421   1.171   3.255
15360TIP3    H146021   3.395   1.232   3.186
15360TIP3    H246022   3.348   1.174   3.317
15361TIP3   OH246023   7.252   3.173   2.768
15361TIP3    H146024   7.198   3.201   2.693
15361TIP3    H246025   7.307   3.248   2.788
15362TIP3   OH246026   0.238   6.681   3.893
15362TIP3    H146027   0.332   6.697   3.895
15362TIP3    H246028   0.222   6.622   3.967
15363TIP3   OH246029   4.707   6.206   0.678
15363TIP3    H146030   4.727   6.241   0.591
15363TIP3    H246031   4.612   6.216   0.687
15364TIP3   OH246032   2.943   1.816   2.053
15364TIP3    H146033   2.906   1.888   2.104
15364TIP3    H246034   2.928   1.739   2.106
15365TIP3   OH246035   1.147   6.055   4.018
15365TIP3    H146036   1.186   6.068   3.931
15365TIP3    H246037   1.093   5.976   4.007
15366TIP3   OH246038   5.745   3.187   0.113
15366TIP3    H146039   5.692   3.247   0.165
15366TIP3    H246040   5.825   3.235   0.095
15367TIP3   OH246041   2.574   4.794   0.580
15367TIP3    H146042   2.638   4.864   0.572
15367TIP3    H246043   2.625   4.714   0.575
15368TIP3   OH246044   1.053   2.075   3.590
15368TIP3    H146045   1.088   2.031   3.512
15368TIP3    H246046   0.966   2.036   3.602
15369TIP3   OH246047   2.539   7.426   5.317
15369TIP3    H146048   2.604   7.482   5.275
15369TIP3    H246049   2.591   7.361   5.365
15370TIP3   OH246050   2.910   4.028   4.366
15370TIP3    H146051   2.858   4.109   4.367
15370TIP3    H246052   2.984   4.046   4.424
15371TIP3   OH246053   2.946   4.666   3.423
15371TIP3    H146054   2.941   4.576   3.455
15371TIP3    H246055   2.941   4.720   3.503
   8.39974   7.91935   6.85836   0.00000   0.00000  -2.79991   0.00000  -2.79991  -3.95968
