Title t= 437.00000 step= 218500
44463
    1GLY      N    1   2.377   3.073   4.379
    1GLY    HT1    2   2.345   3.154   4.323
    1GLY    HT2    3   2.466   3.106   4.422
    1GLY    HT3    4   2.296   3.056   4.442
    1GLY     CA    5   2.404   2.946   4.306
    1GLY    HA1    6   2.459   2.971   4.217
    1GLY    HA2    7   2.305   2.905   4.289
    1GLY      C    8   2.486   2.848   4.393
    1GLY      O    9   2.575   2.895   4.461
    2PRO      N   10   2.472   2.715   4.393
    2PRO     CD   11   2.348   2.644   4.345
    2PRO    HD1   12   2.357   2.661   4.235
    2PRO    HD2   13   2.252   2.681   4.386
    2PRO     CA   14   2.573   2.615   4.424
    2PRO     HA   15   2.563   2.606   4.531
    2PRO     CB   16   2.526   2.487   4.351
    2PRO    HB1   17   2.567   2.393   4.392
    2PRO    HB2   18   2.560   2.490   4.245
    2PRO     CG   19   2.374   2.494   4.365
    2PRO    HG1   20   2.319   2.431   4.292
    2PRO    HG2   21   2.343   2.473   4.470
    2PRO      C   22   2.717   2.647   4.395
    2PRO      O   23   2.747   2.685   4.284
    3GLY      N   24   2.802   2.626   4.491
    3GLY     HN   25   2.773   2.576   4.573
    3GLY     CA   26   2.945   2.645   4.486
    3GLY    HA1   27   2.976   2.659   4.589
    3GLY    HA2   28   2.963   2.732   4.425
    3GLY      C   29   3.007   2.514   4.438
    3GLY      O   30   2.946   2.423   4.392
    4ASP      N   31   3.147   2.512   4.444
    4ASP     HN   32   3.178   2.596   4.489
    4ASP     CA   33   3.248   2.405   4.415
    4ASP     HA   34   3.284   2.440   4.320
    4ASP     CB   35   3.366   2.410   4.509
    4ASP    HB1   36   3.448   2.346   4.471
    4ASP    HB2   37   3.338   2.374   4.611
    4ASP     CG   38   3.429   2.550   4.542
    4ASP    OD1   39   3.370   2.657   4.514
    4ASP    OD2   40   3.546   2.550   4.598
    4ASP      C   41   3.185   2.259   4.416
    4ASP      O   42   3.124   2.221   4.516
    5PRO      N   43   3.204   2.173   4.310
    5PRO     CD   44   3.290   2.213   4.197
    5PRO    HD1   45   3.397   2.215   4.226
    5PRO    HD2   46   3.248   2.307   4.153
    5PRO     CA   47   3.168   2.030   4.312
    5PRO     HA   48   3.060   2.022   4.310
    5PRO     CB   49   3.218   1.974   4.179
    5PRO    HB1   50   3.153   1.910   4.114
    5PRO    HB2   51   3.309   1.910   4.188
    5PRO     CG   52   3.251   2.101   4.101
    5PRO    HG1   53   3.321   2.081   4.017
    5PRO    HG2   54   3.153   2.131   4.057
    5PRO      C   55   3.208   1.942   4.437
    5PRO      O   56   3.323   1.934   4.472
    6GLY      N   57   3.103   1.872   4.492
    6GLY     HN   58   3.010   1.880   4.458
    6GLY     CA   59   3.124   1.778   4.603
    6GLY    HA1   60   3.030   1.734   4.634
    6GLY    HA2   61   3.193   1.822   4.674
    6GLY      C   62   3.203   1.652   4.564
    6GLY      O   63   3.222   1.644   4.442
    7PRO      N   64   3.245   1.562   4.651
    7PRO     CD   65   3.225   1.582   4.803
    7PRO    HD1   66   3.116   1.575   4.827
    7PRO    HD2   67   3.269   1.677   4.839
    7PRO     CA   68   3.296   1.427   4.619
    7PRO     HA   69   3.398   1.454   4.593
    7PRO     CB   70   3.288   1.345   4.750
    7PRO    HB1   71   3.367   1.267   4.747
    7PRO    HB2   72   3.188   1.298   4.766
    7PRO     CG   73   3.305   1.461   4.855
    7PRO    HG1   74   3.271   1.435   4.958
    7PRO    HG2   75   3.414   1.481   4.866
    7PRO      C   76   3.229   1.357   4.503
    7PRO      O   77   3.109   1.365   4.490
    8GLY      N   78   3.301   1.285   4.413
    8GLY     HN   79   3.400   1.281   4.424
    8GLY     CA   80   3.262   1.233   4.282
    8GLY    HA1   81   3.197   1.148   4.299
    8GLY    HA2   82   3.353   1.206   4.231
    8GLY      C   83   3.179   1.316   4.191
    8GLY      O   84   3.183   1.443   4.191
    9ASP      N   85   3.118   1.247   4.096
    9ASP     HN   86   3.119   1.148   4.099
    9ASP     CA   87   3.036   1.303   3.991
    9ASP     HA   88   3.102   1.372   3.941
    9ASP     CB   89   2.983   1.191   3.906
    9ASP    HB1   90   2.923   1.230   3.821
    9ASP    HB2   91   2.929   1.125   3.977
    9ASP     CG   92   3.091   1.100   3.844
    9ASP    OD1   93   3.063   0.980   3.822
    9ASP    OD2   94   3.196   1.158   3.816
    9ASP      C   95   2.917   1.392   4.037
    9ASP      O   96   2.854   1.366   4.142
   10PRO      N   97   2.880   1.499   3.969
   10PRO     CD   98   2.970   1.564   3.874
   10PRO    HD1   99   2.988   1.489   3.794
   10PRO    HD2  100   3.066   1.602   3.916
   10PRO     CA  101   2.770   1.591   4.001
   10PRO     HA  102   2.798   1.634   4.096
   10PRO     CB  103   2.762   1.687   3.887
   10PRO    HB1  104   2.721   1.783   3.924
   10PRO    HB2  105   2.698   1.646   3.806
   10PRO     CG  106   2.904   1.690   3.830
   10PRO    HG1  107   2.914   1.708   3.720
   10PRO    HG2  108   2.963   1.772   3.874
   10PRO      C  109   2.633   1.523   4.025
   10PRO      O  110   2.597   1.422   3.969
   11GLY      N  111   2.548   1.594   4.104
   11GLY     HN  112   2.578   1.682   4.140
   11GLY     CA  113   2.414   1.561   4.147
   11GLY    HA1  114   2.358   1.562   4.055
   11GLY    HA2  115   2.386   1.643   4.212
   11GLY      C  116   2.391   1.431   4.228
   11GLY      O  117   2.489   1.363   4.267
   12PRO      N  118   2.260   1.397   4.255
   12PRO     CD  119   2.149   1.482   4.217
   12PRO    HD1  120   2.124   1.472   4.109
   12PRO    HD2  121   2.170   1.587   4.248
   12PRO     CA  122   2.229   1.298   4.353
   12PRO     HA  123   2.288   1.323   4.440
   12PRO     CB  124   2.082   1.319   4.385
   12PRO    HB1  125   2.063   1.343   4.492
   12PRO    HB2  126   2.027   1.224   4.367
   12PRO     CG  127   2.031   1.431   4.294
   12PRO    HG1  128   1.954   1.389   4.226
   12PRO    HG2  129   1.986   1.515   4.351
   12PRO      C  130   2.271   1.152   4.318
   12PRO      O  131   2.245   1.108   4.204
   13GLY      N  132   2.334   1.085   4.412
   13GLY     HN  133   2.377   1.139   4.485
   13GLY     CA  134   2.346   0.939   4.421
   13GLY    HA1  135   2.426   0.924   4.491
   13GLY    HA2  136   2.370   0.905   4.321
   13GLY      C  137   2.220   0.874   4.458
   13GLY      O  138   2.106   0.908   4.413
   14ASP      N  139   2.232   0.764   4.535
   14ASP     HN  140   2.315   0.728   4.577
   14ASP     CA  141   2.113   0.688   4.583
   14ASP     HA  142   2.049   0.686   4.496
   14ASP     CB  143   2.145   0.541   4.613
   14ASP    HB1  144   2.055   0.491   4.654
   14ASP    HB2  145   2.221   0.521   4.691
   14ASP     CG  146   2.203   0.473   4.493
   14ASP    OD1  147   2.171   0.507   4.377
   14ASP    OD2  148   2.274   0.373   4.508
   14ASP      C  149   2.044   0.765   4.697
   14ASP      O  150   2.104   0.832   4.780
   15PRO      N  151   1.910   0.761   4.701
   15PRO     CD  152   1.826   0.683   4.606
   15PRO    HD1  153   1.853   0.576   4.617
   15PRO    HD2  154   1.829   0.735   4.508
   15PRO     CA  155   1.835   0.826   4.814
   15PRO     HA  156   1.874   0.925   4.828
   15PRO     CB  157   1.688   0.816   4.755
   15PRO    HB1  158   1.668   0.913   4.704
   15PRO    HB2  159   1.610   0.802   4.833
   15PRO     CG  160   1.687   0.693   4.662
   15PRO    HG1  161   1.660   0.597   4.712
   15PRO    HG2  162   1.602   0.715   4.594
   15PRO      C  163   1.858   0.754   4.951
   15PRO    OT1  164   1.865   0.631   4.945
   15PRO    OT2  165   1.875   0.821   5.055
   16LIT    LIT  166   1.829   0.653   5.153
   17LIT    LIT  167   2.292   1.805   4.490
   18LIT    LIT  168   3.013   7.082   1.326
   19LIT    LIT  169   5.910   4.682   2.934
   20LIT    LIT  170   2.836   4.911   2.333
   21LIT    LIT  171   1.137   2.742   3.401
   22LIT    LIT  172   1.190   1.632   4.761
   23LIT    LIT  173   1.971   2.775   2.576
   24LIT    LIT  174   2.258   5.788   0.118
   25LIT    LIT  175   5.269   0.097   3.303
   26LIT    LIT  176   7.116   3.036   4.071
   27LIT    LIT  177   1.770   3.416   6.235
   28LIT    LIT  178   4.954   2.513   4.576
   29LIT    LIT  179   3.066   6.332   1.686
   30LIT    LIT  180   4.601   3.129   0.325
   31LIT    LIT  181   7.123   6.373   6.615
   32LIT    LIT  182   1.975   0.495   6.585
   33LIT    LIT  183   7.483   3.073   1.627
   34LIT    LIT  184   4.051   6.617   2.264
   35LIT    LIT  185   4.297   7.688   6.040
   36LIT    LIT  186   1.102   7.089   4.448
   37LIT    LIT  187   1.358   5.848   0.700
   38LIT    LIT  188   3.966   6.921   3.922
   39LIT    LIT  189   3.080   0.378   3.365
   40LIT    LIT  190   1.351   1.069   3.495
   41LIT    LIT  191   4.951   0.015   3.932
   42LIT    LIT  192   2.768   5.838   6.343
   43LIT    LIT  193   3.866   3.378   1.257
   44LIT    LIT  194   7.356   0.399   6.272
   45LIT    LIT  195   6.510   6.864   2.685
   46LIT    LIT  196   4.981   1.373   6.563
   47LIT    LIT  197   1.461   5.263   2.515
   48LIT    LIT  198   7.101   1.857   4.332
   49LIT    LIT  199   1.451   0.293   6.195
   50LIT    LIT  200   0.361   0.733   4.091
   51LIT    LIT  201   2.093   0.892   2.187
   52LIT    LIT  202   6.470   6.257   0.135
   53LIT    LIT  203   0.767   3.622   0.670
   54LIT    LIT  204   0.269   2.721   2.520
   55LIT    LIT  205   5.068   7.523   2.907
   56LIT    LIT  206   7.836   1.944   2.216
   57LIT    LIT  207   7.157   5.950   1.063
   58LIT    LIT  208   2.226   0.317   4.318
   59LIT    LIT  209   0.729   5.851   3.879
   60LIT    LIT  210   2.728   3.878   4.533
   61CLA    CLA  211   0.008   5.810   3.186
   62CLA    CLA  212   0.836   5.325   4.724
   63CLA    CLA  213   0.594   1.539   4.812
   64CLA    CLA  214   6.443   3.100   0.602
   65CLA    CLA  215   0.646   0.908   1.443
   66CLA    CLA  216   0.839   1.864   4.531
   67CLA    CLA  217   6.869   6.939   5.650
   68CLA    CLA  218   3.606   7.728   3.547
   69CLA    CLA  219   3.202   3.036   5.444
   70CLA    CLA  220   5.254   4.701   6.094
   71CLA    CLA  221   7.373   5.047   6.330
   72CLA    CLA  222   3.184   5.161   1.858
   73CLA    CLA  223   0.958   3.049   2.647
   74CLA    CLA  224   0.471   4.764   3.468
   75CLA    CLA  225   2.431   7.331   4.583
   76CLA    CLA  226   4.109   0.874   1.382
   77CLA    CLA  227   2.642   6.959   4.161
   78CLA    CLA  228   4.709   6.296   2.235
   79CLA    CLA  229   5.015   2.042   4.966
   80CLA    CLA  230   0.714   5.877   1.406
   81CLA    CLA  231   4.440   6.474   5.558
   82CLA    CLA  232   0.374   0.306   5.953
   83CLA    CLA  233   3.110   3.680   0.673
   84CLA    CLA  234   8.258   0.914   0.985
   85CLA    CLA  235   2.051   5.694   4.463
   86CLA    CLA  236   7.640   4.462   3.050
   87CLA    CLA  237   3.650   6.546   1.942
   88CLA    CLA  238   4.815   3.719   1.085
   89CLA    CLA  239   5.898   3.157   5.501
   90CLA    CLA  240   6.522   1.687   0.812
   91CLA    CLA  241   4.850   4.511   3.929
   92CLA    CLA  242   5.106   7.260   6.381
   93CLA    CLA  243   5.586   1.467   4.128
   94CLA    CLA  244   2.056   2.610   6.509
   95CLA    CLA  245   3.258   5.897   2.628
   96CLA    CLA  246   8.103   1.594   3.155
   97CLA    CLA  247   0.355   1.514   4.177
   98CLA    CLA  248   1.298   7.110   6.303
   99CLA    CLA  249   7.383   2.978   1.813
  100CLA    CLA  250   2.143   3.083   4.835
  101CLA    CLA  251   1.049   2.529   3.397
  102CLA    CLA  252   7.259   7.708   5.404
  103TIP3   OH2  253   3.511   6.233   1.679
  103TIP3    H1  254   3.470   6.152   1.709
  103TIP3    H2  255   3.597   6.206   1.648
  104TIP3   OH2  256   0.695   2.668   1.868
  104TIP3    H1  257   0.759   2.597   1.875
  104TIP3    H2  258   0.611   2.625   1.883
  105TIP3   OH2  259   0.027   1.713   3.313
  105TIP3    H1  260  -0.053   1.670   3.282
  105TIP3    H2  261   0.085   1.641   3.337
  106TIP3   OH2  262   5.806   6.252   0.416
  106TIP3    H1  263   5.762   6.317   0.361
  106TIP3    H2  264   5.773   6.168   0.385
  107TIP3   OH2  265   1.268   2.564   1.490
  107TIP3    H1  266   1.306   2.536   1.407
  107TIP3    H2  267   1.261   2.659   1.482
  108TIP3   OH2  268   3.147   7.648   6.369
  108TIP3    H1  269   3.136   7.599   6.451
  108TIP3    H2  270   3.168   7.581   6.305
  109TIP3   OH2  271   2.138   1.173   3.240
  109TIP3    H1  272   2.211   1.114   3.256
  109TIP3    H2  273   2.064   1.116   3.219
  110TIP3   OH2  274   4.230   5.561   4.867
  110TIP3    H1  275   4.287   5.638   4.870
  110TIP3    H2  276   4.259   5.512   4.790
  111TIP3   OH2  277   7.054   5.445   5.482
  111TIP3    H1  278   7.028   5.473   5.394
  111TIP3    H2  279   7.050   5.350   5.480
  112TIP3   OH2  280   2.522   4.617   6.471
  112TIP3    H1  281   2.597   4.639   6.527
  112TIP3    H2  282   2.446   4.651   6.518
  113TIP3   OH2  283   1.561   7.436   1.705
  113TIP3    H1  284   1.650   7.430   1.670
  113TIP3    H2  285   1.570   7.415   1.798
  114TIP3   OH2  286   6.218   6.424   0.439
  114TIP3    H1  287   6.158   6.350   0.444
  114TIP3    H2  288   6.174   6.487   0.381
  115TIP3   OH2  289   7.508  -0.016   3.907
  115TIP3    H1  290   7.458   0.022   3.980
  115TIP3    H2  291   7.441  -0.050   3.848
  116TIP3   OH2  292   2.515   3.229   5.021
  116TIP3    H1  293   2.494   3.137   5.035
  116TIP3    H2  294   2.476   3.250   4.936
  117TIP3   OH2  295   7.415   2.512   3.056
  117TIP3    H1  296   7.459   2.558   3.128
  117TIP3    H2  297   7.388   2.582   2.996
  118TIP3   OH2  298   8.017   3.250   0.328
  118TIP3    H1  299   8.046   3.168   0.289
  118TIP3    H2  300   8.092   3.282   0.378
  119TIP3   OH2  301   4.403   0.261   3.922
  119TIP3    H1  302   4.347   0.291   3.994
  119TIP3    H2  303   4.449   0.340   3.893
  120TIP3   OH2  304   3.110   2.607   4.866
  120TIP3    H1  305   3.025   2.630   4.903
  120TIP3    H2  306   3.096   2.522   4.824
  121TIP3   OH2  307   3.843   4.331   1.119
  121TIP3    H1  308   3.918   4.293   1.074
  121TIP3    H2  309   3.801   4.257   1.162
  122TIP3   OH2  310   5.742   6.762   4.318
  122TIP3    H1  311   5.764   6.668   4.318
  122TIP3    H2  312   5.735   6.784   4.411
  123TIP3   OH2  313   5.196   4.185   0.852
  123TIP3    H1  314   5.262   4.126   0.890
  123TIP3    H2  315   5.123   4.127   0.831
  124TIP3   OH2  316   0.146   5.899   3.434
  124TIP3    H1  317   0.086   5.974   3.431
  124TIP3    H2  318   0.119   5.843   3.361
  125TIP3   OH2  319   7.004   6.384   4.731
  125TIP3    H1  320   7.062   6.322   4.775
  125TIP3    H2  321   6.929   6.331   4.703
  126TIP3   OH2  322   0.304   3.002   0.997
  126TIP3    H1  323   0.284   2.960   0.914
  126TIP3    H2  324   0.253   2.954   1.062
  127TIP3   OH2  325   6.618   0.044   1.152
  127TIP3    H1  326   6.550   0.109   1.135
  127TIP3    H2  327   6.588  -0.035   1.108
  128TIP3   OH2  328   2.534   2.374   2.086
  128TIP3    H1  329   2.545   2.342   2.175
  128TIP3    H2  330   2.622   2.399   2.057
  129TIP3   OH2  331   3.677   5.963   6.535
  129TIP3    H1  332   3.626   5.967   6.616
  129TIP3    H2  333   3.729   5.883   6.543
  130TIP3   OH2  334   6.788   2.695   1.233
  130TIP3    H1  335   6.864   2.690   1.291
  130TIP3    H2  336   6.719   2.735   1.285
  131TIP3   OH2  337   5.614   6.861   5.507
  131TIP3    H1  338   5.625   6.956   5.500
  131TIP3    H2  339   5.575   6.835   5.424
  132TIP3   OH2  340   4.463   3.516   2.716
  132TIP3    H1  341   4.496   3.533   2.628
  132TIP3    H2  342   4.538   3.531   2.774
  133TIP3   OH2  343   3.911   5.742   5.815
  133TIP3    H1  344   3.948   5.800   5.749
  133TIP3    H2  345   3.846   5.689   5.768
  134TIP3   OH2  346   7.523   7.102   2.905
  134TIP3    H1  347   7.453   7.131   2.847
  134TIP3    H2  348   7.487   7.113   2.993
  135TIP3   OH2  349   5.269   5.565   5.176
  135TIP3    H1  350   5.357   5.543   5.145
  135TIP3    H2  351   5.229   5.613   5.104
  136TIP3   OH2  352   0.369   2.910   2.038
  136TIP3    H1  353   0.285   2.863   2.037
  136TIP3    H2  354   0.345   3.001   2.053
  137TIP3   OH2  355   3.094   5.049   1.326
  137TIP3    H1  356   3.091   5.049   1.422
  137TIP3    H2  357   3.183   5.075   1.304
  138TIP3   OH2  358   4.115   5.273   5.023
  138TIP3    H1  359   4.176   5.291   5.095
  138TIP3    H2  360   4.141   5.333   4.954
  139TIP3   OH2  361   5.275   1.247   5.702
  139TIP3    H1  362   5.335   1.186   5.745
  139TIP3    H2  363   5.319   1.271   5.621
  140TIP3   OH2  364   1.301   7.363   1.662
  140TIP3    H1  365   1.265   7.372   1.751
  140TIP3    H2  366   1.393   7.387   1.671
  141TIP3   OH2  367   3.907   6.236   2.108
  141TIP3    H1  368   3.815   6.219   2.089
  141TIP3    H2  369   3.905   6.292   2.186
  142TIP3   OH2  370   4.652   7.423   3.433
  142TIP3    H1  371   4.630   7.483   3.361
  142TIP3    H2  372   4.608   7.341   3.409
  143TIP3   OH2  373   0.509   5.972   0.801
  143TIP3    H1  374   0.517   5.967   0.896
  143TIP3    H2  375   0.577   6.034   0.775
  144TIP3   OH2  376   8.091   4.976   2.639
  144TIP3    H1  377   8.032   4.955   2.567
  144TIP3    H2  378   8.058   5.059   2.674
  145TIP3   OH2  379   4.922   4.176   6.240
  145TIP3    H1  380   4.922   4.125   6.321
  145TIP3    H2  381   5.010   4.215   6.238
  146TIP3   OH2  382   7.999   0.129   2.518
  146TIP3    H1  383   7.910   0.146   2.547
  146TIP3    H2  384   7.989   0.077   2.438
  147TIP3   OH2  385   1.157   3.581   4.555
  147TIP3    H1  386   1.098   3.645   4.516
  147TIP3    H2  387   1.113   3.497   4.543
  148TIP3   OH2  388   7.591   3.981   0.418
  148TIP3    H1  389   7.658   3.937   0.366
  148TIP3    H2  390   7.570   3.918   0.488
  149TIP3   OH2  391   0.412   0.632   6.734
  149TIP3    H1  392   0.441   0.721   6.718
  149TIP3    H2  393   0.320   0.640   6.757
  150TIP3   OH2  394   5.546   6.235   4.459
  150TIP3    H1  395   5.465   6.201   4.498
  150TIP3    H2  396   5.534   6.330   4.459
  151TIP3   OH2  397   2.903   4.476   3.805
  151TIP3    H1  398   2.895   4.425   3.724
  151TIP3    H2  399   2.939   4.414   3.869
  152TIP3   OH2  400   4.976   3.385   5.718
  152TIP3    H1  401   5.054   3.430   5.751
  152TIP3    H2  402   5.006   3.339   5.640
  153TIP3   OH2  403   8.040   5.554   2.394
  153TIP3    H1  404   8.021   5.534   2.486
  153TIP3    H2  405   8.129   5.588   2.395
  154TIP3   OH2  406   1.103   0.609   4.733
  154TIP3    H1  407   1.155   0.615   4.813
  154TIP3    H2  408   1.013   0.624   4.761
  155TIP3   OH2  409   5.267   2.676   1.083
  155TIP3    H1  410   5.308   2.679   1.169
  155TIP3    H2  411   5.194   2.738   1.088
  156TIP3   OH2  412   7.958   4.639   5.610
  156TIP3    H1  413   7.956   4.553   5.652
  156TIP3    H2  414   7.968   4.701   5.682
  157TIP3   OH2  415   0.066   2.747   1.517
  157TIP3    H1  416   0.115   2.823   1.551
  157TIP3    H2  417  -0.024   2.779   1.508
  158TIP3   OH2  418   1.285   3.091   1.627
  158TIP3    H1  419   1.252   3.134   1.548
  158TIP3    H2  420   1.206   3.063   1.674
  159TIP3   OH2  421   6.733   7.415   2.144
  159TIP3    H1  422   6.731   7.401   2.049
  159TIP3    H2  423   6.660   7.364   2.177
  160TIP3   OH2  424   2.632   4.621   0.687
  160TIP3    H1  425   2.712   4.597   0.641
  160TIP3    H2  426   2.648   4.596   0.778
  161TIP3   OH2  427   2.316   0.222   5.498
  161TIP3    H1  428   2.303   0.261   5.585
  161TIP3    H2  429   2.237   0.246   5.449
  162TIP3   OH2  430   2.063   6.825   6.524
  162TIP3    H1  431   2.025   6.903   6.565
  162TIP3    H2  432   2.045   6.754   6.585
  163TIP3   OH2  433   6.372   1.718   3.182
  163TIP3    H1  434   6.347   1.770   3.106
  163TIP3    H2  435   6.463   1.742   3.199
  164TIP3   OH2  436   5.340   2.602   4.437
  164TIP3    H1  437   5.366   2.693   4.423
  164TIP3    H2  438   5.377   2.555   4.363
  165TIP3   OH2  439   4.382   2.979   4.120
  165TIP3    H1  440   4.380   3.071   4.094
  165TIP3    H2  441   4.370   2.931   4.038
  166TIP3   OH2  442   1.296   5.499   6.256
  166TIP3    H1  443   1.226   5.545   6.302
  166TIP3    H2  444   1.370   5.504   6.316
  167TIP3   OH2  445   8.046   1.574   5.593
  167TIP3    H1  446   8.068   1.666   5.607
  167TIP3    H2  447   8.007   1.572   5.505
  168TIP3   OH2  448   1.847   7.457   1.638
  168TIP3    H1  449   1.902   7.486   1.565
  168TIP3    H2  450   1.872   7.365   1.652
  169TIP3   OH2  451   6.694   1.254   5.384
  169TIP3    H1  452   6.712   1.213   5.300
  169TIP3    H2  453   6.770   1.310   5.400
  170TIP3   OH2  454   3.558   1.971   0.859
  170TIP3    H1  455   3.606   2.025   0.922
  170TIP3    H2  456   3.577   1.881   0.886
  171TIP3   OH2  457   4.574   4.572   6.571
  171TIP3    H1  458   4.494   4.520   6.577
  171TIP3    H2  459   4.637   4.525   6.626
  172TIP3   OH2  460   0.126   7.171   2.152
  172TIP3    H1  461   0.069   7.146   2.079
  172TIP3    H2  462   0.214   7.167   2.116
  173TIP3   OH2  463   0.085   1.363   0.611
  173TIP3    H1  464   0.067   1.283   0.658
  173TIP3    H2  465   0.021   1.365   0.540
  174TIP3   OH2  466   0.517   4.629   4.192
  174TIP3    H1  467   0.556   4.662   4.112
  174TIP3    H2  468   0.430   4.599   4.166
  175TIP3   OH2  469   3.112   7.006   2.150
  175TIP3    H1  470   3.091   7.001   2.057
  175TIP3    H2  471   3.173   7.079   2.157
  176TIP3   OH2  472   5.088   3.255   5.514
  176TIP3    H1  473   5.137   3.203   5.578
  176TIP3    H2  474   5.009   3.204   5.496
  177TIP3   OH2  475   0.525   6.283   5.492
  177TIP3    H1  476   0.472   6.339   5.436
  177TIP3    H2  477   0.522   6.324   5.578
  178TIP3   OH2  478   5.065   5.718   2.218
  178TIP3    H1  479   5.062   5.623   2.208
  178TIP3    H2  480   5.070   5.733   2.312
  179TIP3   OH2  481   7.868   3.623   4.320
  179TIP3    H1  482   7.960   3.604   4.339
  179TIP3    H2  483   7.868   3.649   4.228
  180TIP3   OH2  484   3.170   0.857   5.284
  180TIP3    H1  485   3.112   0.927   5.253
  180TIP3    H2  486   3.180   0.799   5.209
  181TIP3   OH2  487   2.347   2.873   1.543
  181TIP3    H1  488   2.256   2.901   1.549
  181TIP3    H2  489   2.356   2.807   1.612
  182TIP3   OH2  490   2.443   6.162   2.506
  182TIP3    H1  491   2.423   6.092   2.444
  182TIP3    H2  492   2.404   6.133   2.588
  183TIP3   OH2  493   1.996   6.346   5.998
  183TIP3    H1  494   2.074   6.325   5.948
  183TIP3    H2  495   2.025   6.344   6.089
  184TIP3   OH2  496   1.035   7.197   2.862
  184TIP3    H1  497   1.020   7.291   2.869
  184TIP3    H2  498   0.947   7.158   2.866
  185TIP3   OH2  499   5.844   1.985   1.704
  185TIP3    H1  500   5.814   1.915   1.645
  185TIP3    H2  501   5.915   2.027   1.656
  186TIP3   OH2  502   3.966   7.724   4.613
  186TIP3    H1  503   4.000   7.792   4.671
  186TIP3    H2  504   4.026   7.650   4.626
  187TIP3   OH2  505   4.465   7.253   0.215
  187TIP3    H1  506   4.416   7.174   0.191
  187TIP3    H2  507   4.547   7.220   0.253
  188TIP3   OH2  508   3.359   1.992   5.999
  188TIP3    H1  509   3.394   2.055   6.061
  188TIP3    H2  510   3.274   2.028   5.972
  189TIP3   OH2  511   5.546   0.279   0.607
  189TIP3    H1  512   5.513   0.243   0.525
  189TIP3    H2  513   5.511   0.220   0.675
  190TIP3   OH2  514   5.591   6.804   0.294
  190TIP3    H1  515   5.563   6.863   0.364
  190TIP3    H2  516   5.555   6.841   0.214
  191TIP3   OH2  517   4.614   4.638   6.304
  191TIP3    H1  518   4.576   4.656   6.390
  191TIP3    H2  519   4.655   4.552   6.314
  192TIP3   OH2  520   5.558   4.873   5.838
  192TIP3    H1  521   5.500   4.944   5.865
  192TIP3    H2  522   5.619   4.863   5.912
  193TIP3   OH2  523   6.642   7.381   1.161
  193TIP3    H1  524   6.736   7.389   1.178
  193TIP3    H2  525   6.637   7.371   1.066
  194TIP3   OH2  526   7.242   4.217   3.436
  194TIP3    H1  527   7.313   4.185   3.491
  194TIP3    H2  528   7.165   4.218   3.493
  195TIP3   OH2  529   8.183   2.074   0.717
  195TIP3    H1  530   8.131   2.138   0.764
  195TIP3    H2  531   8.224   2.123   0.646
  196TIP3   OH2  532   7.421   1.519   2.802
  196TIP3    H1  533   7.421   1.457   2.875
  196TIP3    H2  534   7.340   1.501   2.755
  197TIP3   OH2  535   6.580   1.235   2.417
  197TIP3    H1  536   6.584   1.223   2.322
  197TIP3    H2  537   6.597   1.148   2.453
  198TIP3   OH2  538   5.076   5.730   1.115
  198TIP3    H1  539   5.006   5.774   1.164
  198TIP3    H2  540   5.049   5.639   1.111
  199TIP3   OH2  541   6.405   4.455   5.542
  199TIP3    H1  542   6.379   4.421   5.627
  199TIP3    H2  543   6.500   4.459   5.545
  200TIP3   OH2  544   1.183   3.870   3.858
  200TIP3    H1  545   1.098   3.844   3.893
  200TIP3    H2  546   1.169   3.958   3.823
  201TIP3   OH2  547   6.150   4.928   4.807
  201TIP3    H1  548   6.087   4.918   4.736
  201TIP3    H2  549   6.107   4.891   4.884
  202TIP3   OH2  550   4.411   0.775   0.343
  202TIP3    H1  551   4.329   0.820   0.327
  202TIP3    H2  552   4.422   0.717   0.268
  203TIP3   OH2  553   5.726   5.217   5.654
  203TIP3    H1  554   5.709   5.310   5.670
  203TIP3    H2  555   5.807   5.215   5.603
  204TIP3   OH2  556   5.296   2.346   2.445
  204TIP3    H1  557   5.275   2.334   2.538
  204TIP3    H2  558   5.336   2.433   2.441
  205TIP3   OH2  559   0.785   5.968   3.457
  205TIP3    H1  560   0.841   5.966   3.535
  205TIP3    H2  561   0.714   6.028   3.481
  206TIP3   OH2  562   3.543   4.141   5.507
  206TIP3    H1  563   3.481   4.172   5.573
  206TIP3    H2  564   3.528   4.047   5.502
  207TIP3   OH2  565   2.933   7.671   3.920
  207TIP3    H1  566   2.900   7.744   3.972
  207TIP3    H2  567   2.964   7.608   3.985
  208TIP3   OH2  568   6.343   0.531   1.436
  208TIP3    H1  569   6.429   0.488   1.433
  208TIP3    H2  570   6.360   0.615   1.477
  209TIP3   OH2  571   4.139   3.733   1.294
  209TIP3    H1  572   4.090   3.812   1.273
  209TIP3    H2  573   4.190   3.755   1.372
  210TIP3   OH2  574   7.209   1.858   4.782
  210TIP3    H1  575   7.224   1.875   4.876
  210TIP3    H2  576   7.295   1.836   4.747
  211TIP3   OH2  577   2.007   7.671   5.352
  211TIP3    H1  578   2.056   7.600   5.394
  211TIP3    H2  579   2.019   7.746   5.411
  212TIP3   OH2  580   6.591   1.396   6.726
  212TIP3    H1  581   6.544   1.427   6.648
  212TIP3    H2  582   6.533   1.417   6.799
  213TIP3   OH2  583   3.488   7.841   0.488
  213TIP3    H1  584   3.455   7.774   0.549
  213TIP3    H2  585   3.506   7.793   0.407
  214TIP3   OH2  586   7.821   5.991   1.540
  214TIP3    H1  587   7.780   5.940   1.610
  214TIP3    H2  588   7.766   5.975   1.463
  215TIP3   OH2  589   8.038   3.297   1.555
  215TIP3    H1  590   8.040   3.350   1.635
  215TIP3    H2  591   8.122   3.250   1.556
  216TIP3   OH2  592   1.522   4.409   4.535
  216TIP3    H1  593   1.492   4.318   4.529
  216TIP3    H2  594   1.441   4.460   4.543
  217TIP3   OH2  595   3.151   6.960   4.981
  217TIP3    H1  596   3.132   6.937   4.890
  217TIP3    H2  597   3.195   7.044   4.976
  218TIP3   OH2  598   7.575   5.932   2.488
  218TIP3    H1  599   7.578   6.007   2.546
  218TIP3    H2  600   7.620   5.862   2.536
  219TIP3   OH2  601   7.524   0.086   1.374
  219TIP3    H1  602   7.466   0.028   1.423
  219TIP3    H2  603   7.574   0.132   1.441
  220TIP3   OH2  604   3.418   1.698   2.008
  220TIP3    H1  605   3.325   1.706   2.026
  220TIP3    H2  606   3.448   1.788   1.994
  221TIP3   OH2  607   3.760   0.213   2.926
  221TIP3    H1  608   3.715   0.130   2.941
  221TIP3    H2  609   3.852   0.194   2.945
  222TIP3   OH2  610   7.358   4.844   3.460
  222TIP3    H1  611   7.396   4.883   3.380
  222TIP3    H2  612   7.271   4.883   3.466
  223TIP3   OH2  613   1.876   2.232   5.923
  223TIP3    H1  614   1.836   2.249   6.008
  223TIP3    H2  615   1.954   2.287   5.922
  224TIP3   OH2  616   2.971   4.350   6.432
  224TIP3    H1  617   2.878   4.356   6.453
  224TIP3    H2  618   2.974   4.288   6.358
  225TIP3   OH2  619   4.880   6.399   1.738
  225TIP3    H1  620   4.893   6.360   1.825
  225TIP3    H2  621   4.808   6.350   1.699
  226TIP3   OH2  622   0.599   5.804   4.031
  226TIP3    H1  623   0.656   5.745   4.080
  226TIP3    H2  624   0.569   5.868   4.095
  227TIP3   OH2  625   2.064   5.444   0.435
  227TIP3    H1  626   1.992   5.505   0.454
  227TIP3    H2  627   2.133   5.469   0.497
  228TIP3   OH2  628   3.205   0.128   2.592
  228TIP3    H1  629   3.184   0.050   2.541
  228TIP3    H2  630   3.250   0.186   2.530
  229TIP3   OH2  631   1.085   2.176   6.074
  229TIP3    H1  632   0.993   2.202   6.080
  229TIP3    H2  633   1.083   2.081   6.079
  230TIP3   OH2  634   6.531   2.259   3.506
  230TIP3    H1  635   6.560   2.172   3.479
  230TIP3    H2  636   6.497   2.247   3.595
  231TIP3   OH2  637   4.263   4.551   2.110
  231TIP3    H1  638   4.235   4.626   2.057
  231TIP3    H2  639   4.198   4.483   2.093
  232TIP3   OH2  640   2.847   3.593   4.784
  232TIP3    H1  641   2.847   3.508   4.740
  232TIP3    H2  642   2.875   3.574   4.873
  233TIP3   OH2  643   1.946   3.902   6.747
  233TIP3    H1  644   1.884   3.919   6.676
  233TIP3    H2  645   1.948   3.984   6.797
  234TIP3   OH2  646   0.698   7.388   5.398
  234TIP3    H1  647   0.737   7.449   5.461
  234TIP3    H2  648   0.607   7.380   5.425
  235TIP3   OH2  649   2.715   2.447   0.390
  235TIP3    H1  650   2.798   2.403   0.407
  235TIP3    H2  651   2.656   2.378   0.360
  236TIP3   OH2  652   4.265   2.652   4.213
  236TIP3    H1  653   4.248   2.594   4.139
  236TIP3    H2  654   4.179   2.667   4.252
  237TIP3   OH2  655   4.830   5.700   4.684
  237TIP3    H1  656   4.803   5.772   4.627
  237TIP3    H2  657   4.924   5.693   4.671
  238TIP3   OH2  658   2.832   6.588   2.554
  238TIP3    H1  659   2.858   6.600   2.462
  238TIP3    H2  660   2.876   6.507   2.580
  239TIP3   OH2  661   4.824   4.535   4.979
  239TIP3    H1  662   4.885   4.531   5.053
  239TIP3    H2  663   4.877   4.561   4.905
  240TIP3   OH2  664   2.267   2.861   6.573
  240TIP3    H1  665   2.306   2.889   6.490
  240TIP3    H2  666   2.249   2.768   6.561
  241TIP3   OH2  667   7.183   1.009   5.501
  241TIP3    H1  668   7.119   0.948   5.464
  241TIP3    H2  669   7.130   1.082   5.534
  242TIP3   OH2  670   3.628   4.596   4.651
  242TIP3    H1  671   3.706   4.640   4.618
  242TIP3    H2  672   3.643   4.590   4.746
  243TIP3   OH2  673   5.315   7.652   1.633
  243TIP3    H1  674   5.360   7.650   1.717
  243TIP3    H2  675   5.319   7.562   1.602
  244TIP3   OH2  676   1.423   3.398   4.061
  244TIP3    H1  677   1.502   3.416   4.010
  244TIP3    H2  678   1.390   3.485   4.085
  245TIP3   OH2  679   5.572   2.360   0.733
  245TIP3    H1  680   5.530   2.402   0.808
  245TIP3    H2  681   5.516   2.382   0.658
  246TIP3   OH2  682   6.539   5.309   4.200
  246TIP3    H1  683   6.530   5.404   4.196
  246TIP3    H2  684   6.578   5.292   4.286
  247TIP3   OH2  685   7.559   1.755   0.153
  247TIP3    H1  686   7.532   1.846   0.170
  247TIP3    H2  687   7.543   1.744   0.059
  248TIP3   OH2  688   4.325   1.975   4.111
  248TIP3    H1  689   4.280   2.018   4.038
  248TIP3    H2  690   4.311   2.033   4.186
  249TIP3   OH2  691   3.704   1.716   5.684
  249TIP3    H1  692   3.639   1.658   5.644
  249TIP3    H2  693   3.663   1.749   5.763
  250TIP3   OH2  694   3.819   0.100   6.108
  250TIP3    H1  695   3.825   0.075   6.200
  250TIP3    H2  696   3.810   0.018   6.061
  251TIP3   OH2  697   2.655   6.774   3.711
  251TIP3    H1  698   2.656   6.731   3.796
  251TIP3    H2  699   2.656   6.867   3.731
  252TIP3   OH2  700   2.006   3.405   3.744
  252TIP3    H1  701   2.035   3.492   3.771
  252TIP3    H2  702   1.926   3.390   3.794
  253TIP3   OH2  703   1.261   2.289   1.705
  253TIP3    H1  704   1.207   2.351   1.754
  253TIP3    H2  705   1.235   2.203   1.739
  254TIP3   OH2  706   2.162   7.428   5.445
  254TIP3    H1  707   2.246   7.416   5.489
  254TIP3    H2  708   2.155   7.352   5.387
  255TIP3   OH2  709   5.274   2.682   2.085
  255TIP3    H1  710   5.253   2.589   2.093
  255TIP3    H2  711   5.340   2.698   2.153
  256TIP3   OH2  712   6.704   2.740   1.677
  256TIP3    H1  713   6.777   2.727   1.617
  256TIP3    H2  714   6.730   2.695   1.757
  257TIP3   OH2  715   7.355   3.259   0.120
  257TIP3    H1  716   7.324   3.174   0.088
  257TIP3    H2  717   7.292   3.283   0.188
  258TIP3   OH2  718   3.878   5.067   0.112
  258TIP3    H1  719   3.839   4.982   0.090
  258TIP3    H2  720   3.816   5.131   0.077
  259TIP3   OH2  721   0.598   2.330   4.415
  259TIP3    H1  722   0.670   2.285   4.458
  259TIP3    H2  723   0.589   2.412   4.463
  260TIP3   OH2  724   2.435   0.511   6.455
  260TIP3    H1  725   2.456   0.505   6.362
  260TIP3    H2  726   2.495   0.577   6.489
  261TIP3   OH2  727   8.186   6.334   1.922
  261TIP3    H1  728   8.125   6.281   1.973
  261TIP3    H2  729   8.162   6.424   1.942
  262TIP3   OH2  730   7.434   6.101   0.398
  262TIP3    H1  731   7.361   6.124   0.342
  262TIP3    H2  732   7.487   6.040   0.346
  263TIP3   OH2  733   3.852   7.559   3.103
  263TIP3    H1  734   3.769   7.522   3.133
  263TIP3    H2  735   3.910   7.552   3.178
  264TIP3   OH2  736   6.212   4.405   3.189
  264TIP3    H1  737   6.242   4.455   3.265
  264TIP3    H2  738   6.251   4.449   3.114
  265TIP3   OH2  739   7.474   5.394   2.655
  265TIP3    H1  740   7.520   5.477   2.666
  265TIP3    H2  741   7.448   5.393   2.563
  266TIP3   OH2  742   5.622   5.892   3.526
  266TIP3    H1  743   5.714   5.915   3.540
  266TIP3    H2  744   5.622   5.796   3.526
  267TIP3   OH2  745   5.302   7.409   3.803
  267TIP3    H1  746   5.260   7.343   3.749
  267TIP3    H2  747   5.325   7.479   3.742
  268TIP3   OH2  748   5.206   3.461   5.824
  268TIP3    H1  749   5.290   3.418   5.842
  268TIP3    H2  750   5.215   3.548   5.864
  269TIP3   OH2  751   2.738   6.730   1.245
  269TIP3    H1  752   2.755   6.648   1.291
  269TIP3    H2  753   2.763   6.711   1.154
  270TIP3   OH2  754   8.146   1.646   6.009
  270TIP3    H1  755   8.066   1.680   6.049
  270TIP3    H2  756   8.178   1.717   5.954
  271TIP3   OH2  757   4.465   1.386   4.189
  271TIP3    H1  758   4.452   1.342   4.105
  271TIP3    H2  759   4.509   1.468   4.167
  272TIP3   OH2  760   3.217   0.231   5.849
  272TIP3    H1  761   3.181   0.185   5.924
  272TIP3    H2  762   3.175   0.317   5.851
  273TIP3   OH2  763   3.245   6.513   2.716
  273TIP3    H1  764   3.152   6.495   2.710
  273TIP3    H2  765   3.261   6.580   2.650
  274TIP3   OH2  766   0.602   1.145   5.926
  274TIP3    H1  767   0.595   1.219   5.987
  274TIP3    H2  768   0.538   1.164   5.858
  275TIP3   OH2  769   5.433   6.449   4.079
  275TIP3    H1  770   5.374   6.449   4.004
  275TIP3    H2  771   5.495   6.520   4.060
  276TIP3   OH2  772   6.892   0.825   3.247
  276TIP3    H1  773   6.935   0.863   3.171
  276TIP3    H2  774   6.803   0.805   3.217
  277TIP3   OH2  775   4.860   1.403   4.925
  277TIP3    H1  776   4.911   1.356   4.858
  277TIP3    H2  777   4.921   1.467   4.961
  278TIP3   OH2  778   4.203   1.069   2.779
  278TIP3    H1  779   4.245   1.033   2.857
  278TIP3    H2  780   4.271   1.121   2.736
  279TIP3   OH2  781   7.310   5.010   5.930
  279TIP3    H1  782   7.241   4.964   5.977
  279TIP3    H2  783   7.280   5.100   5.924
  280TIP3   OH2  784   2.056   5.810   4.917
  280TIP3    H1  785   2.116   5.785   4.987
  280TIP3    H2  786   1.976   5.760   4.936
  281TIP3   OH2  787   4.920   1.679   2.315
  281TIP3    H1  788   4.850   1.636   2.265
  281TIP3    H2  789   5.000   1.637   2.286
  282TIP3   OH2  790   2.529   1.550   2.722
  282TIP3    H1  791   2.494   1.502   2.647
  282TIP3    H2  792   2.455   1.557   2.782
  283TIP3   OH2  793   5.117   4.183   4.798
  283TIP3    H1  794   5.068   4.203   4.877
  283TIP3    H2  795   5.200   4.231   4.809
  284TIP3   OH2  796   5.942   5.866   1.666
  284TIP3    H1  797   5.893   5.895   1.589
  284TIP3    H2  798   6.024   5.832   1.631
  285TIP3   OH2  799   6.198   1.241   2.315
  285TIP3    H1  800   6.164   1.154   2.334
  285TIP3    H2  801   6.214   1.279   2.402
  286TIP3   OH2  802   2.787   2.085   4.096
  286TIP3    H1  803   2.839   2.080   4.016
  286TIP3    H2  804   2.792   2.177   4.122
  287TIP3   OH2  805   0.311   6.140   3.737
  287TIP3    H1  806   0.388   6.194   3.752
  287TIP3    H2  807   0.248   6.170   3.803
  288TIP3   OH2  808   5.515   3.644   1.308
  288TIP3    H1  809   5.535   3.713   1.372
  288TIP3    H2  810   5.440   3.598   1.345
  289TIP3   OH2  811   2.601   7.252   5.014
  289TIP3    H1  812   2.692   7.234   5.038
  289TIP3    H2  813   2.607   7.317   4.945
  290TIP3   OH2  814   7.031   4.227   2.733
  290TIP3    H1  815   7.027   4.132   2.729
  290TIP3    H2  816   7.016   4.255   2.642
  291TIP3   OH2  817   0.742   1.933   0.184
  291TIP3    H1  818   0.778   2.018   0.210
  291TIP3    H2  819   0.790   1.869   0.238
  292TIP3   OH2  820   4.836   7.796   0.939
  292TIP3    H1  821   4.827   7.740   1.016
  292TIP3    H2  822   4.907   7.856   0.961
  293TIP3   OH2  823   3.309   6.067   0.231
  293TIP3    H1  824   3.385   6.017   0.262
  293TIP3    H2  825   3.316   6.067   0.136
  294TIP3   OH2  826   2.984   7.738   4.294
  294TIP3    H1  827   3.050   7.746   4.363
  294TIP3    H2  828   3.013   7.664   4.241
  295TIP3   OH2  829   3.964   4.393   2.251
  295TIP3    H1  830   3.936   4.452   2.181
  295TIP3    H2  831   3.905   4.412   2.324
  296TIP3   OH2  832   4.092   0.619   1.977
  296TIP3    H1  833   4.183   0.646   1.992
  296TIP3    H2  834   4.091   0.526   2.000
  297TIP3   OH2  835   3.785   0.122   1.587
  297TIP3    H1  836   3.834   0.158   1.662
  297TIP3    H2  837   3.848   0.124   1.515
  298TIP3   OH2  838   0.476   3.393   1.552
  298TIP3    H1  839   0.525   3.354   1.480
  298TIP3    H2  840   0.531   3.378   1.629
  299TIP3   OH2  841   5.491   5.429   6.040
  299TIP3    H1  842   5.460   5.373   5.970
  299TIP3    H2  843   5.418   5.490   6.055
  300TIP3   OH2  844   6.745   6.958   5.975
  300TIP3    H1  845   6.724   6.925   5.888
  300TIP3    H2  846   6.840   6.970   5.975
  301TIP3   OH2  847   4.838   6.540   2.131
  301TIP3    H1  848   4.789   6.550   2.049
  301TIP3    H2  849   4.811   6.455   2.165
  302TIP3   OH2  850   8.099   5.218   1.969
  302TIP3    H1  851   8.190   5.225   1.999
  302TIP3    H2  852   8.056   5.296   2.003
  303TIP3   OH2  853   5.492   3.036   3.581
  303TIP3    H1  854   5.556   2.966   3.596
  303TIP3    H2  855   5.409   2.990   3.572
  304TIP3   OH2  856   5.289   7.622   3.547
  304TIP3    H1  857   5.358   7.682   3.577
  304TIP3    H2  858   5.299   7.621   3.452
  305TIP3   OH2  859   8.199   2.381   5.401
  305TIP3    H1  860   8.135   2.370   5.330
  305TIP3    H2  861   8.192   2.300   5.451
  306TIP3   OH2  862   4.224   3.760   6.093
  306TIP3    H1  863   4.278   3.793   6.021
  306TIP3    H2  864   4.250   3.669   6.103
  307TIP3   OH2  865   7.804   1.536   3.140
  307TIP3    H1  866   7.778   1.627   3.126
  307TIP3    H2  867   7.899   1.536   3.128
  308TIP3   OH2  868   1.522   0.481   6.234
  308TIP3    H1  869   1.595   0.511   6.180
  308TIP3    H2  870   1.526   0.536   6.312
  309TIP3   OH2  871   1.992   2.869   5.429
  309TIP3    H1  872   1.969   2.864   5.522
  309TIP3    H2  873   1.936   2.939   5.395
  310TIP3   OH2  874   1.036   5.921   1.383
  310TIP3    H1  875   0.949   5.894   1.415
  310TIP3    H2  876   1.095   5.897   1.454
  311TIP3   OH2  877   1.358   3.237   3.530
  311TIP3    H1  878   1.350   3.294   3.453
  311TIP3    H2  879   1.422   3.282   3.585
  312TIP3   OH2  880   6.783   4.222   2.136
  312TIP3    H1  881   6.714   4.194   2.195
  312TIP3    H2  882   6.863   4.184   2.173
  313TIP3   OH2  883   0.258   7.204   5.274
  313TIP3    H1  884   0.202   7.135   5.308
  313TIP3    H2  885   0.197   7.272   5.244
  314TIP3   OH2  886   0.634   5.239   0.770
  314TIP3    H1  887   0.621   5.243   0.675
  314TIP3    H2  888   0.641   5.331   0.797
  315TIP3   OH2  889   7.205   6.437   6.442
  315TIP3    H1  890   7.289   6.401   6.471
  315TIP3    H2  891   7.191   6.398   6.355
  316TIP3   OH2  892   5.998   4.822   5.057
  316TIP3    H1  893   5.915   4.867   5.076
  316TIP3    H2  894   5.983   4.732   5.086
  317TIP3   OH2  895   0.467   4.583   5.653
  317TIP3    H1  896   0.434   4.603   5.566
  317TIP3    H2  897   0.428   4.649   5.710
  318TIP3   OH2  898   2.389   4.047   5.008
  318TIP3    H1  899   2.357   3.957   4.997
  318TIP3    H2  900   2.340   4.098   4.944
  319TIP3   OH2  901   5.725   0.446   3.629
  319TIP3    H1  902   5.791   0.394   3.583
  319TIP3    H2  903   5.700   0.514   3.566
  320TIP3   OH2  904   0.789   7.663   0.596
  320TIP3    H1  905   0.741   7.746   0.585
  320TIP3    H2  906   0.761   7.630   0.681
  321TIP3   OH2  907   3.322   0.279   2.364
  321TIP3    H1  908   3.391   0.227   2.405
  321TIP3    H2  909   3.294   0.226   2.289
  322TIP3   OH2  910   5.784   1.121   2.924
  322TIP3    H1  911   5.802   1.029   2.940
  322TIP3    H2  912   5.770   1.158   3.011
  323TIP3   OH2  913   3.898   4.591   2.054
  323TIP3    H1  914   3.910   4.555   1.966
  323TIP3    H2  915   3.843   4.668   2.040
  324TIP3   OH2  916   8.176   5.421   6.625
  324TIP3    H1  917   8.125   5.358   6.676
  324TIP3    H2  918   8.130   5.504   6.638
  325TIP3   OH2  919   8.135   4.382   0.225
  325TIP3    H1  920   8.138   4.375   0.130
  325TIP3    H2  921   8.165   4.296   0.256
  326TIP3   OH2  922   6.481   1.580   2.844
  326TIP3    H1  923   6.494   1.503   2.789
  326TIP3    H2  924   6.542   1.568   2.917
  327TIP3   OH2  925   4.810   6.554   0.219
  327TIP3    H1  926   4.772   6.471   0.245
  327TIP3    H2  927   4.787   6.615   0.289
  328TIP3   OH2  928   2.019   2.077   2.441
  328TIP3    H1  929   2.103   2.044   2.407
  328TIP3    H2  930   1.967   2.095   2.363
  329TIP3   OH2  931   6.803   7.641   4.647
  329TIP3    H1  932   6.763   7.579   4.585
  329TIP3    H2  933   6.816   7.721   4.595
  330TIP3   OH2  934   2.472   3.188   3.027
  330TIP3    H1  935   2.435   3.177   3.115
  330TIP3    H2  936   2.473   3.283   3.014
  331TIP3   OH2  937   0.741   4.464   3.033
  331TIP3    H1  938   0.665   4.427   3.078
  331TIP3    H2  939   0.814   4.448   3.093
  332TIP3   OH2  940   3.860   2.316   1.748
  332TIP3    H1  941   3.846   2.388   1.686
  332TIP3    H2  942   3.771   2.282   1.765
  333TIP3   OH2  943   3.954   0.421   4.777
  333TIP3    H1  944   3.989   0.488   4.718
  333TIP3    H2  945   4.027   0.361   4.791
  334TIP3   OH2  946   4.394   4.253   0.065
  334TIP3    H1  947   4.437   4.169   0.082
  334TIP3    H2  948   4.324   4.258   0.131
  335TIP3   OH2  949   2.474   4.811   5.510
  335TIP3    H1  950   2.453   4.869   5.436
  335TIP3    H2  951   2.534   4.747   5.474
  336TIP3   OH2  952   1.845   6.517   1.470
  336TIP3    H1  953   1.836   6.428   1.437
  336TIP3    H2  954   1.938   6.537   1.459
  337TIP3   OH2  955   2.008   5.295   2.983
  337TIP3    H1  956   1.913   5.297   2.987
  337TIP3    H2  957   2.033   5.378   2.943
  338TIP3   OH2  958   6.489   6.587   5.464
  338TIP3    H1  959   6.468   6.499   5.495
  338TIP3    H2  960   6.582   6.598   5.483
  339TIP3   OH2  961   7.817   2.449   5.422
  339TIP3    H1  962   7.869   2.419   5.348
  339TIP3    H2  963   7.770   2.526   5.390
  340TIP3   OH2  964   5.014   2.346   4.002
  340TIP3    H1  965   5.063   2.314   4.078
  340TIP3    H2  966   4.980   2.268   3.961
  341TIP3   OH2  967   5.659   5.594   1.831
  341TIP3    H1  968   5.680   5.564   1.920
  341TIP3    H2  969   5.565   5.581   1.824
  342TIP3   OH2  970   3.440   5.208   6.524
  342TIP3    H1  971   3.510   5.179   6.465
  342TIP3    H2  972   3.407   5.128   6.563
  343TIP3   OH2  973   7.050   3.744   6.682
  343TIP3    H1  974   6.978   3.683   6.664
  343TIP3    H2  975   7.059   3.742   6.777
  344TIP3   OH2  976   0.253   4.007   1.404
  344TIP3    H1  977   0.295   3.954   1.471
  344TIP3    H2  978   0.166   4.027   1.440
  345TIP3   OH2  979   5.906   0.883   0.279
  345TIP3    H1  980   5.978   0.866   0.219
  345TIP3    H2  981   5.902   0.805   0.335
  346TIP3   OH2  982   6.512   5.584   4.198
  346TIP3    H1  983   6.531   5.625   4.114
  346TIP3    H2  984   6.426   5.617   4.222
  347TIP3   OH2  985   4.302   4.171   4.161
  347TIP3    H1  986   4.337   4.132   4.081
  347TIP3    H2  987   4.360   4.139   4.231
  348TIP3   OH2  988   4.167   6.880   3.861
  348TIP3    H1  989   4.228   6.942   3.900
  348TIP3    H2  990   4.210   6.851   3.781
  349TIP3   OH2  991   6.356   0.984   3.635
  349TIP3    H1  992   6.275   1.032   3.614
  349TIP3    H2  993   6.345   0.899   3.592
  350TIP3   OH2  994   7.197   0.852   2.895
  350TIP3    H1  995   7.192   0.757   2.885
  350TIP3    H2  996   7.166   0.868   2.984
  351TIP3   OH2  997   4.633   7.200   2.620
  351TIP3    H1  998   4.538   7.211   2.624
  351TIP3    H2  999   4.667   7.254   2.691
  352TIP3   OH2 1000   0.518   3.851   2.963
  352TIP3    H1 1001   0.606   3.822   2.940
  352TIP3    H2 1002   0.496   3.801   3.041
  353TIP3   OH2 1003   3.917   6.449   0.986
  353TIP3    H1 1004   3.946   6.360   0.965
  353TIP3    H2 1005   3.822   6.443   0.994
  354TIP3   OH2 1006   0.998   1.213   4.807
  354TIP3    H1 1007   0.981   1.120   4.792
  354TIP3    H2 1008   0.916   1.247   4.842
  355TIP3   OH2 1009   2.709   0.520   2.279
  355TIP3    H1 1010   2.737   0.464   2.352
  355TIP3    H2 1011   2.618   0.542   2.300
  356TIP3   OH2 1012   8.105   2.536   1.121
  356TIP3    H1 1013   8.032   2.474   1.123
  356TIP3    H2 1014   8.069   2.614   1.079
  357TIP3   OH2 1015   3.433   6.988   0.586
  357TIP3    H1 1016   3.524   6.981   0.556
  357TIP3    H2 1017   3.408   6.898   0.607
  358TIP3   OH2 1018   5.932   1.789   0.251
  358TIP3    H1 1019   6.012   1.756   0.292
  358TIP3    H2 1020   5.961   1.854   0.188
  359TIP3   OH2 1021   7.232   1.672   0.374
  359TIP3    H1 1022   7.239   1.630   0.289
  359TIP3    H2 1023   7.139   1.687   0.387
  360TIP3   OH2 1024   0.709   7.713   3.899
  360TIP3    H1 1025   0.644   7.714   3.828
  360TIP3    H2 1026   0.745   7.802   3.899
  361TIP3   OH2 1027   4.086   3.110   4.259
  361TIP3    H1 1028   4.119   3.184   4.207
  361TIP3    H2 1029   4.142   3.109   4.336
  362TIP3   OH2 1030   0.789   5.095   0.988
  362TIP3    H1 1031   0.770   5.169   0.930
  362TIP3    H2 1032   0.764   5.018   0.937
  363TIP3   OH2 1033   0.216   6.970   1.333
  363TIP3    H1 1034   0.159   6.987   1.258
  363TIP3    H2 1035   0.203   7.045   1.391
  364TIP3   OH2 1036   4.053   5.063   5.254
  364TIP3    H1 1037   4.106   5.143   5.257
  364TIP3    H2 1038   3.994   5.070   5.329
  365TIP3   OH2 1039   6.395   4.329   6.083
  365TIP3    H1 1040   6.425   4.252   6.130
  365TIP3    H2 1041   6.424   4.403   6.137
  366TIP3   OH2 1042   8.177   6.893   3.185
  366TIP3    H1 1043   8.119   6.964   3.156
  366TIP3    H2 1044   8.139   6.864   3.268
  367TIP3   OH2 1045   5.768   4.981   4.268
  367TIP3    H1 1046   5.811   5.012   4.189
  367TIP3    H2 1047   5.838   4.982   4.335
  368TIP3   OH2 1048   3.721   0.170   5.135
  368TIP3    H1 1049   3.788   0.187   5.068
  368TIP3    H2 1050   3.712   0.075   5.138
  369TIP3   OH2 1051   7.267   6.984   0.089
  369TIP3    H1 1052   7.332   7.054   0.082
  369TIP3    H2 1053   7.295   6.933   0.165
  370TIP3   OH2 1054   1.317   4.755   3.992
  370TIP3    H1 1055   1.322   4.719   4.081
  370TIP3    H2 1056   1.359   4.688   3.937
  371TIP3   OH2 1057   5.707   2.681   6.015
  371TIP3    H1 1058   5.738   2.608   5.962
  371TIP3    H2 1059   5.787   2.724   6.046
  372TIP3   OH2 1060   2.081   4.517   2.615
  372TIP3    H1 1061   2.060   4.522   2.522
  372TIP3    H2 1062   2.163   4.466   2.618
  373TIP3   OH2 1063   6.519   1.670   4.238
  373TIP3    H1 1064   6.505   1.600   4.174
  373TIP3    H2 1065   6.456   1.652   4.307
  374TIP3   OH2 1066   4.474   4.834   4.983
  374TIP3    H1 1067   4.411   4.841   4.912
  374TIP3    H2 1068   4.554   4.803   4.941
  375TIP3   OH2 1069  -0.004   0.742   0.228
  375TIP3    H1 1070   0.071   0.687   0.202
  375TIP3    H2 1071  -0.020   0.718   0.319
  376TIP3   OH2 1072   6.810   3.516   3.484
  376TIP3    H1 1073   6.890   3.569   3.481
  376TIP3    H2 1074   6.828   3.442   3.427
  377TIP3   OH2 1075   4.390   0.365   1.964
  377TIP3    H1 1076   4.446   0.369   2.042
  377TIP3    H2 1077   4.433   0.301   1.907
  378TIP3   OH2 1078   8.228   6.498   0.389
  378TIP3    H1 1079   8.266   6.580   0.358
  378TIP3    H2 1080   8.298   6.457   0.441
  379TIP3   OH2 1081   6.777   5.385   1.492
  379TIP3    H1 1082   6.692   5.422   1.513
  379TIP3    H2 1083   6.772   5.366   1.398
  380TIP3   OH2 1084   4.339   0.373   5.045
  380TIP3    H1 1085   4.423   0.385   5.000
  380TIP3    H2 1086   4.346   0.428   5.123
  381TIP3   OH2 1087   2.366   5.807   4.818
  381TIP3    H1 1088   2.371   5.751   4.895
  381TIP3    H2 1089   2.321   5.886   4.849
  382TIP3   OH2 1090   6.563   3.498   4.801
  382TIP3    H1 1091   6.576   3.586   4.837
  382TIP3    H2 1092   6.588   3.507   4.708
  383TIP3   OH2 1093   1.839   0.328   5.960
  383TIP3    H1 1094   1.847   0.236   5.935
  383TIP3    H2 1095   1.928   0.363   5.954
  384TIP3   OH2 1096   5.055   3.919   6.377
  384TIP3    H1 1097   5.113   3.994   6.393
  384TIP3    H2 1098   4.994   3.919   6.450
  385TIP3   OH2 1099   0.797   7.717   2.675
  385TIP3    H1 1100   0.744   7.797   2.683
  385TIP3    H2 1101   0.734   7.646   2.675
  386TIP3   OH2 1102   5.047   4.783   1.116
  386TIP3    H1 1103   4.959   4.755   1.142
  386TIP3    H2 1104   5.063   4.861   1.170
  387TIP3   OH2 1105   6.999   2.411   0.810
  387TIP3    H1 1106   6.921   2.464   0.797
  387TIP3    H2 1107   7.065   2.472   0.842
  388TIP3   OH2 1108   4.336   2.236   4.590
  388TIP3    H1 1109   4.279   2.312   4.593
  388TIP3    H2 1110   4.378   2.233   4.676
  389TIP3   OH2 1111   5.108   6.920   1.104
  389TIP3    H1 1112   5.178   6.981   1.128
  389TIP3    H2 1113   5.153   6.844   1.068
  390TIP3   OH2 1114   4.096   0.060   0.896
  390TIP3    H1 1115   4.026   0.087   0.956
  390TIP3    H2 1116   4.176   0.071   0.947
  391TIP3   OH2 1117   0.736   1.469   0.521
  391TIP3    H1 1118   0.672   1.476   0.451
  391TIP3    H2 1119   0.685   1.471   0.601
  392TIP3   OH2 1120   2.478   3.489   0.751
  392TIP3    H1 1121   2.435   3.419   0.800
  392TIP3    H2 1122   2.562   3.453   0.725
  393TIP3   OH2 1123   2.088   2.198   4.948
  393TIP3    H1 1124   2.049   2.124   4.903
  393TIP3    H2 1125   2.147   2.159   5.013
  394TIP3   OH2 1126   7.287   3.314   5.770
  394TIP3    H1 1127   7.194   3.290   5.769
  394TIP3    H2 1128   7.288   3.407   5.748
  395TIP3   OH2 1129   3.859   3.073   4.125
  395TIP3    H1 1130   3.890   3.015   4.055
  395TIP3    H2 1131   3.938   3.093   4.175
  396TIP3   OH2 1132   0.378   0.815   2.759
  396TIP3    H1 1133   0.318   0.776   2.695
  396TIP3    H2 1134   0.436   0.744   2.784
  397TIP3   OH2 1135   2.106   6.063   3.834
  397TIP3    H1 1136   2.052   6.095   3.906
  397TIP3    H2 1137   2.072   5.976   3.815
  398TIP3   OH2 1138   3.837   1.720   3.917
  398TIP3    H1 1139   3.897   1.780   3.962
  398TIP3    H2 1140   3.775   1.693   3.984
  399TIP3   OH2 1141   3.957   6.588   2.835
  399TIP3    H1 1142   3.911   6.578   2.918
  399TIP3    H2 1143   3.909   6.532   2.774
  400TIP3   OH2 1144   0.050   6.844   4.724
  400TIP3    H1 1145   0.071   6.775   4.787
  400TIP3    H2 1146   0.127   6.902   4.727
  401TIP3   OH2 1147   6.415   4.552   3.700
  401TIP3    H1 1148   6.488   4.593   3.654
  401TIP3    H2 1149   6.440   4.460   3.709
  402TIP3   OH2 1150   4.376   2.455   3.766
  402TIP3    H1 1151   4.330   2.512   3.704
  402TIP3    H2 1152   4.432   2.400   3.711
  403TIP3   OH2 1153   6.898   6.677   3.934
  403TIP3    H1 1154   6.948   6.673   3.853
  403TIP3    H2 1155   6.853   6.762   3.930
  404TIP3   OH2 1156   5.949   3.265   0.402
  404TIP3    H1 1157   6.032   3.312   0.411
  404TIP3    H2 1158   5.933   3.265   0.307
  405TIP3   OH2 1159   2.969   5.277   0.921
  405TIP3    H1 1160   3.051   5.236   0.949
  405TIP3    H2 1161   2.900   5.228   0.967
  406TIP3   OH2 1162   7.829   4.331   2.475
  406TIP3    H1 1163   7.871   4.353   2.558
  406TIP3    H2 1164   7.738   4.358   2.485
  407TIP3   OH2 1165   6.701   4.835   4.167
  407TIP3    H1 1166   6.753   4.849   4.088
  407TIP3    H2 1167   6.732   4.901   4.228
  408TIP3   OH2 1168   5.368   0.951   2.700
  408TIP3    H1 1169   5.296   0.939   2.637
  408TIP3    H2 1170   5.334   1.015   2.763
  409TIP3   OH2 1171   4.534   6.426   3.781
  409TIP3    H1 1172   4.554   6.333   3.764
  409TIP3    H2 1173   4.538   6.434   3.876
  410TIP3   OH2 1174   3.225   1.101   2.567
  410TIP3    H1 1175   3.276   1.020   2.571
  410TIP3    H2 1176   3.159   1.084   2.500
  411TIP3   OH2 1177   6.830   1.906   2.796
  411TIP3    H1 1178   6.885   1.942   2.726
  411TIP3    H2 1179   6.838   1.969   2.867
  412TIP3   OH2 1180   7.221   2.536   0.958
  412TIP3    H1 1181   7.255   2.611   0.908
  412TIP3    H2 1182   7.296   2.478   0.968
  413TIP3   OH2 1183   0.046   7.282   2.851
  413TIP3    H1 1184   0.038   7.257   2.759
  413TIP3    H2 1185  -0.031   7.243   2.894
  414TIP3   OH2 1186   3.916   4.335   1.570
  414TIP3    H1 1187   3.888   4.394   1.500
  414TIP3    H2 1188   3.994   4.292   1.535
  415TIP3   OH2 1189   6.140   5.346   0.026
  415TIP3    H1 1190   6.102   5.406  -0.038
  415TIP3    H2 1191   6.206   5.398   0.071
  416TIP3   OH2 1192   2.285   1.415   3.294
  416TIP3    H1 1193   2.305   1.351   3.362
  416TIP3    H2 1194   2.194   1.397   3.271
  417TIP3   OH2 1195   4.592   4.116   2.845
  417TIP3    H1 1196   4.646   4.091   2.920
  417TIP3    H2 1197   4.536   4.039   2.830
  418TIP3   OH2 1198   7.499   6.409   0.208
  418TIP3    H1 1199   7.530   6.495   0.178
  418TIP3    H2 1200   7.575   6.352   0.200
  419TIP3   OH2 1201   2.300   2.055   3.523
  419TIP3    H1 1202   2.342   2.133   3.486
  419TIP3    H2 1203   2.286   1.997   3.449
  420TIP3   OH2 1204   8.191   3.867   1.384
  420TIP3    H1 1205   8.220   3.952   1.417
  420TIP3    H2 1206   8.128   3.836   1.449
  421TIP3   OH2 1207   1.983   6.908   6.259
  421TIP3    H1 1208   2.074   6.939   6.261
  421TIP3    H2 1209   1.970   6.869   6.346
  422TIP3   OH2 1210   7.228   7.152   1.242
  422TIP3    H1 1211   7.179   7.162   1.324
  422TIP3    H2 1212   7.269   7.237   1.228
  423TIP3   OH2 1213   6.694   0.058   5.312
  423TIP3    H1 1214   6.739   0.069   5.396
  423TIP3    H2 1215   6.620   0.000   5.331
  424TIP3   OH2 1216   5.575   5.437   4.221
  424TIP3    H1 1217   5.642   5.405   4.281
  424TIP3    H2 1218   5.607   5.523   4.192
  425TIP3   OH2 1219   0.832   4.437   6.118
  425TIP3    H1 1220   0.751   4.485   6.100
  425TIP3    H2 1221   0.818   4.398   6.204
  426TIP3   OH2 1222   4.078   3.080   3.601
  426TIP3    H1 1223   4.058   3.124   3.518
  426TIP3    H2 1224   4.148   3.019   3.580
  427TIP3   OH2 1225   6.897   5.382   5.901
  427TIP3    H1 1226   6.846   5.454   5.938
  427TIP3    H2 1227   6.947   5.422   5.830
  428TIP3   OH2 1228   6.361   0.770   1.568
  428TIP3    H1 1229   6.390   0.752   1.657
  428TIP3    H2 1230   6.278   0.816   1.579
  429TIP3   OH2 1231   5.326   6.614   2.286
  429TIP3    H1 1232   5.250   6.618   2.343
  429TIP3    H2 1233   5.362   6.527   2.300
  430TIP3   OH2 1234   3.305   5.914   4.381
  430TIP3    H1 1235   3.282   5.998   4.421
  430TIP3    H2 1236   3.238   5.854   4.414
  431TIP3   OH2 1237   1.136   0.219   0.714
  431TIP3    H1 1238   1.159   0.236   0.805
  431TIP3    H2 1239   1.220   0.219   0.668
  432TIP3   OH2 1240   1.702   1.758   1.591
  432TIP3    H1 1241   1.785   1.761   1.543
  432TIP3    H2 1242   1.642   1.711   1.534
  433TIP3   OH2 1243   0.702   4.729   5.760
  433TIP3    H1 1244   0.637   4.673   5.719
  433TIP3    H2 1245   0.700   4.703   5.853
  434TIP3   OH2 1246   3.115   1.807   6.576
  434TIP3    H1 1247   3.069   1.860   6.642
  434TIP3    H2 1248   3.108   1.858   6.495
  435TIP3   OH2 1249   6.130   7.157   5.471
  435TIP3    H1 1250   6.050   7.185   5.428
  435TIP3    H2 1251   6.101   7.120   5.555
  436TIP3   OH2 1252   4.254   7.361   0.416
  436TIP3    H1 1253   4.211   7.334   0.498
  436TIP3    H2 1254   4.338   7.315   0.417
  437TIP3   OH2 1255   3.673   0.791   0.007
  437TIP3    H1 1256   3.712   0.848   0.073
  437TIP3    H2 1257   3.691   0.703   0.039
  438TIP3   OH2 1258   5.897   4.214   2.473
  438TIP3    H1 1259   5.956   4.281   2.438
  438TIP3    H2 1260   5.894   4.147   2.406
  439TIP3   OH2 1261   6.208   1.501   5.269
  439TIP3    H1 1262   6.277   1.462   5.323
  439TIP3    H2 1263   6.127   1.477   5.314
  440TIP3   OH2 1264   6.916   3.340   5.977
  440TIP3    H1 1265   6.869   3.412   5.935
  440TIP3    H2 1266   6.849   3.291   6.024
  441TIP3   OH2 1267   4.227   2.814   4.436
  441TIP3    H1 1268   4.224   2.910   4.438
  441TIP3    H2 1269   4.298   2.793   4.375
  442TIP3   OH2 1270   5.722   2.394   6.786
  442TIP3    H1 1271   5.629   2.391   6.811
  442TIP3    H2 1272   5.721   2.405   6.691
  443TIP3   OH2 1273   2.597   0.264   6.125
  443TIP3    H1 1274   2.685   0.269   6.089
  443TIP3    H2 1275   2.558   0.187   6.083
  444TIP3   OH2 1276   5.766   7.119   0.151
  444TIP3    H1 1277   5.710   7.190   0.120
  444TIP3    H2 1278   5.762   7.053   0.082
  445TIP3   OH2 1279   4.624   7.726   0.241
  445TIP3    H1 1280   4.634   7.642   0.197
  445TIP3    H2 1281   4.706   7.772   0.225
  446TIP3   OH2 1282  -0.047   4.779   0.803
  446TIP3    H1 1283  -0.060   4.692   0.840
  446TIP3    H2 1284   0.048   4.793   0.806
  447TIP3   OH2 1285   8.223   3.838   6.641
  447TIP3    H1 1286   8.277   3.867   6.568
  447TIP3    H2 1287   8.153   3.787   6.600
  448TIP3   OH2 1288   2.022   2.709   1.681
  448TIP3    H1 1289   2.113   2.687   1.700
  448TIP3    H2 1290   1.984   2.731   1.766
  449TIP3   OH2 1291   0.027   2.347   3.619
  449TIP3    H1 1292  -0.008   2.289   3.687
  449TIP3    H2 1293   0.107   2.305   3.590
  450TIP3   OH2 1294   5.660   6.103   3.967
  450TIP3    H1 1295   5.639   6.122   4.058
  450TIP3    H2 1296   5.750   6.134   3.956
  451TIP3   OH2 1297   6.142   1.252   3.427
  451TIP3    H1 1298   6.151   1.341   3.393
  451TIP3    H2 1299   6.231   1.220   3.437
  452TIP3   OH2 1300   5.146   0.449   6.783
  452TIP3    H1 1301   5.066   0.495   6.757
  452TIP3    H2 1302   5.143   0.367   6.733
  453TIP3   OH2 1303   5.145   0.472   1.348
  453TIP3    H1 1304   5.152   0.568   1.348
  453TIP3    H2 1305   5.089   0.452   1.273
  454TIP3   OH2 1306   1.122   5.550   1.447
  454TIP3    H1 1307   1.181   5.623   1.430
  454TIP3    H2 1308   1.039   5.577   1.408
  455TIP3   OH2 1309   3.319   5.745   2.932
  455TIP3    H1 1310   3.325   5.785   2.845
  455TIP3    H2 1311   3.375   5.800   2.987
  456TIP3   OH2 1312   7.862   7.794   5.621
  456TIP3    H1 1313   7.796   7.735   5.657
  456TIP3    H2 1314   7.819   7.880   5.619
  457TIP3   OH2 1315   3.412   0.820   4.924
  457TIP3    H1 1316   3.341   0.877   4.894
  457TIP3    H2 1317   3.367   0.748   4.969
  458TIP3   OH2 1318   5.532   0.722   5.888
  458TIP3    H1 1319   5.611   0.763   5.923
  458TIP3    H2 1320   5.562   0.671   5.813
  459TIP3   OH2 1321   6.766   4.777   2.315
  459TIP3    H1 1322   6.772   4.684   2.294
  459TIP3    H2 1323   6.673   4.799   2.304
  460TIP3   OH2 1324   1.811   6.866   1.641
  460TIP3    H1 1325   1.867   6.866   1.563
  460TIP3    H2 1326   1.740   6.926   1.619
  461TIP3   OH2 1327   2.273   1.842   4.690
  461TIP3    H1 1328   2.185   1.857   4.724
  461TIP3    H2 1329   2.329   1.898   4.743
  462TIP3   OH2 1330   1.596   1.753   1.034
  462TIP3    H1 1331   1.567   1.837   1.000
  462TIP3    H2 1332   1.583   1.760   1.129
  463TIP3   OH2 1333   7.615   0.052   6.096
  463TIP3    H1 1334   7.620   0.001   6.016
  463TIP3    H2 1335   7.659   0.134   6.075
  464TIP3   OH2 1336   1.333   6.104   5.084
  464TIP3    H1 1337   1.345   6.011   5.067
  464TIP3    H2 1338   1.240   6.119   5.070
  465TIP3   OH2 1339   2.492   2.524   6.513
  465TIP3    H1 1340   2.490   2.614   6.480
  465TIP3    H2 1341   2.413   2.515   6.566
  466TIP3   OH2 1342   5.068   2.826   0.928
  466TIP3    H1 1343   5.049   2.902   0.983
  466TIP3    H2 1344   5.144   2.852   0.876
  467TIP3   OH2 1345   2.146   4.660   1.856
  467TIP3    H1 1346   2.166   4.582   1.804
  467TIP3    H2 1347   2.187   4.732   1.808
  468TIP3   OH2 1348   0.363   3.812   5.296
  468TIP3    H1 1349   0.384   3.755   5.222
  468TIP3    H2 1350   0.308   3.757   5.353
  469TIP3   OH2 1351   6.813   0.481   0.173
  469TIP3    H1 1352   6.898   0.502   0.212
  469TIP3    H2 1353   6.758   0.458   0.248
  470TIP3   OH2 1354   2.336   4.036   1.680
  470TIP3    H1 1355   2.420   4.006   1.643
  470TIP3    H2 1356   2.350   4.036   1.774
  471TIP3   OH2 1357   6.377   6.727   5.977
  471TIP3    H1 1358   6.354   6.816   6.002
  471TIP3    H2 1359   6.451   6.704   6.034
  472TIP3   OH2 1360   6.146   0.730   0.474
  472TIP3    H1 1361   6.081   0.739   0.543
  472TIP3    H2 1362   6.149   0.817   0.433
  473TIP3   OH2 1363   3.835   7.220   4.188
  473TIP3    H1 1364   3.797   7.304   4.161
  473TIP3    H2 1365   3.913   7.210   4.133
  474TIP3   OH2 1366   4.633   2.885   5.407
  474TIP3    H1 1367   4.572   2.814   5.386
  474TIP3    H2 1368   4.644   2.879   5.502
  475TIP3   OH2 1369   5.076   6.591   5.297
  475TIP3    H1 1370   5.140   6.530   5.336
  475TIP3    H2 1371   4.995   6.540   5.292
  476TIP3   OH2 1372   5.305   0.294   2.957
  476TIP3    H1 1373   5.288   0.282   2.863
  476TIP3    H2 1374   5.220   0.281   2.998
  477TIP3   OH2 1375   4.249   5.544   0.072
  477TIP3    H1 1376   4.271   5.635   0.088
  477TIP3    H2 1377   4.157   5.545   0.047
  478TIP3   OH2 1378   2.828   2.926   4.656
  478TIP3    H1 1379   2.823   2.945   4.563
  478TIP3    H2 1380   2.773   2.993   4.697
  479TIP3   OH2 1381   7.685   1.887   2.797
  479TIP3    H1 1382   7.702   1.809   2.746
  479TIP3    H2 1383   7.591   1.885   2.816
  480TIP3   OH2 1384   0.456   4.305   5.601
  480TIP3    H1 1385   0.521   4.244   5.637
  480TIP3    H2 1386   0.486   4.391   5.629
  481TIP3   OH2 1387   1.659   0.518   0.213
  481TIP3    H1 1388   1.723   0.515   0.141
  481TIP3    H2 1389   1.590   0.457   0.186
  482TIP3   OH2 1390   1.796   3.093   0.130
  482TIP3    H1 1391   1.728   3.157   0.150
  482TIP3    H2 1392   1.878   3.140   0.144
  483TIP3   OH2 1393   1.591   5.058   1.519
  483TIP3    H1 1394   1.647   4.981   1.524
  483TIP3    H2 1395   1.625   5.107   1.445
  484TIP3   OH2 1396   7.404   5.766   3.094
  484TIP3    H1 1397   7.435   5.804   3.013
  484TIP3    H2 1398   7.334   5.824   3.123
  485TIP3   OH2 1399   5.375   7.611   0.725
  485TIP3    H1 1400   5.414   7.651   0.802
  485TIP3    H2 1401   5.287   7.648   0.720
  486TIP3   OH2 1402   3.902   5.498   4.406
  486TIP3    H1 1403   3.947   5.553   4.470
  486TIP3    H2 1404   3.816   5.537   4.396
  487TIP3   OH2 1405   3.460   1.052   1.851
  487TIP3    H1 1406   3.391   1.046   1.785
  487TIP3    H2 1407   3.513   0.973   1.837
  488TIP3   OH2 1408   0.041   5.631   2.931
  488TIP3    H1 1409  -0.033   5.575   2.953
  488TIP3    H2 1410   0.035   5.705   2.991
  489TIP3   OH2 1411   5.862   0.396   4.858
  489TIP3    H1 1412   5.942   0.363   4.817
  489TIP3    H2 1413   5.794   0.385   4.792
  490TIP3   OH2 1414   0.885   7.407   5.894
  490TIP3    H1 1415   0.922   7.445   5.814
  490TIP3    H2 1416   0.944   7.335   5.916
  491TIP3   OH2 1417   1.070   2.149   6.744
  491TIP3    H1 1418   0.991   2.120   6.699
  491TIP3    H2 1419   1.079   2.241   6.722
  492TIP3   OH2 1420   0.455   3.141   5.544
  492TIP3    H1 1421   0.502   3.171   5.466
  492TIP3    H2 1422   0.398   3.214   5.568
  493TIP3   OH2 1423   2.457   0.748   0.885
  493TIP3    H1 1424   2.456   0.733   0.980
  493TIP3    H2 1425   2.373   0.790   0.867
  494TIP3   OH2 1426   6.788   1.499   1.432
  494TIP3    H1 1427   6.758   1.465   1.348
  494TIP3    H2 1428   6.724   1.465   1.495
  495TIP3   OH2 1429   1.341   4.678   2.732
  495TIP3    H1 1430   1.254   4.702   2.700
  495TIP3    H2 1431   1.368   4.607   2.674
  496TIP3   OH2 1432   1.659   3.302   5.370
  496TIP3    H1 1433   1.657   3.398   5.371
  496TIP3    H2 1434   1.569   3.277   5.394
  497TIP3   OH2 1435   1.115   2.587   1.085
  497TIP3    H1 1436   1.182   2.520   1.077
  497TIP3    H2 1437   1.058   2.556   1.155
  498TIP3   OH2 1438   4.829   5.837   0.825
  498TIP3    H1 1439   4.903   5.799   0.778
  498TIP3    H2 1440   4.763   5.853   0.757
  499TIP3   OH2 1441   3.674   0.471   2.968
  499TIP3    H1 1442   3.582   0.476   2.941
  499TIP3    H2 1443   3.699   0.380   2.951
  500TIP3   OH2 1444   3.379   3.378   4.523
  500TIP3    H1 1445   3.440   3.452   4.521
  500TIP3    H2 1446   3.433   3.302   4.543
  501TIP3   OH2 1447   7.495   6.933   3.518
  501TIP3    H1 1448   7.478   6.839   3.517
  501TIP3    H2 1449   7.529   6.952   3.430
  502TIP3   OH2 1450   5.918   3.715   5.277
  502TIP3    H1 1451   5.953   3.634   5.242
  502TIP3    H2 1452   5.996   3.764   5.306
  503TIP3   OH2 1453   2.958   4.354   4.873
  503TIP3    H1 1454   2.865   4.340   4.858
  503TIP3    H2 1455   2.962   4.418   4.944
  504TIP3   OH2 1456   2.013   4.704   1.202
  504TIP3    H1 1457   2.082   4.680   1.264
  504TIP3    H2 1458   2.007   4.630   1.141
  505TIP3   OH2 1459   5.563   0.032   2.500
  505TIP3    H1 1460   5.639   0.011   2.446
  505TIP3    H2 1461   5.551  -0.044   2.557
  506TIP3   OH2 1462   5.460   0.283   4.987
  506TIP3    H1 1463   5.477   0.269   5.080
  506TIP3    H2 1464   5.456   0.194   4.950
  507TIP3   OH2 1465   3.374   5.470   4.076
  507TIP3    H1 1466   3.283   5.445   4.057
  507TIP3    H2 1467   3.403   5.517   3.998
  508TIP3   OH2 1468   3.753   0.601   6.246
  508TIP3    H1 1469   3.830   0.654   6.228
  508TIP3    H2 1470   3.765   0.521   6.195
  509TIP3   OH2 1471   6.751   7.201   5.804
  509TIP3    H1 1472   6.790   7.119   5.772
  509TIP3    H2 1473   6.718   7.243   5.725
  510TIP3   OH2 1474   5.196   0.820   2.300
  510TIP3    H1 1475   5.177   0.874   2.377
  510TIP3    H2 1476   5.254   0.874   2.246
  511TIP3   OH2 1477   8.024   6.165   5.968
  511TIP3    H1 1478   8.074   6.106   5.913
  511TIP3    H2 1479   7.944   6.183   5.918
  512TIP3   OH2 1480   6.196   0.019   4.447
  512TIP3    H1 1481   6.217   0.043   4.357
  512TIP3    H2 1482   6.228   0.093   4.499
  513TIP3   OH2 1483   8.331   4.723   3.654
  513TIP3    H1 1484   8.339   4.688   3.743
  513TIP3    H2 1485   8.243   4.759   3.650
  514TIP3   OH2 1486   5.813   7.159   2.525
  514TIP3    H1 1487   5.881   7.093   2.518
  514TIP3    H2 1488   5.732   7.109   2.538
  515TIP3   OH2 1489   6.266   7.820   4.036
  515TIP3    H1 1490   6.301   7.888   3.978
  515TIP3    H2 1491   6.200   7.775   3.982
  516TIP3   OH2 1492   5.116   7.157   4.620
  516TIP3    H1 1493   5.134   7.173   4.712
  516TIP3    H2 1494   5.065   7.234   4.592
  517TIP3   OH2 1495   5.915   3.208   0.125
  517TIP3    H1 1496   5.988   3.184   0.067
  517TIP3    H2 1497   5.848   3.242   0.066
  518TIP3   OH2 1498   6.403   4.697   4.389
  518TIP3    H1 1499   6.467   4.758   4.425
  518TIP3    H2 1500   6.446   4.659   4.312
  519TIP3   OH2 1501   5.805   4.559   0.196
  519TIP3    H1 1502   5.779   4.540   0.286
  519TIP3    H2 1503   5.898   4.537   0.193
  520TIP3   OH2 1504   1.338   5.860   2.576
  520TIP3    H1 1505   1.290   5.915   2.513
  520TIP3    H2 1506   1.318   5.898   2.661
  521TIP3   OH2 1507   3.244   5.627   5.659
  521TIP3    H1 1508   3.303   5.564   5.618
  521TIP3    H2 1509   3.265   5.710   5.617
  522TIP3   OH2 1510   5.920   1.186   0.378
  522TIP3    H1 1511   5.957   1.150   0.459
  522TIP3    H2 1512   5.917   1.111   0.318
  523TIP3   OH2 1513   0.596   6.315   4.840
  523TIP3    H1 1514   0.632   6.391   4.794
  523TIP3    H2 1515   0.669   6.281   4.892
  524TIP3   OH2 1516   6.451   5.487   5.968
  524TIP3    H1 1517   6.387   5.541   5.921
  524TIP3    H2 1518   6.398   5.420   6.012
  525TIP3   OH2 1519   4.907   5.167   5.035
  525TIP3    H1 1520   4.961   5.245   5.051
  525TIP3    H2 1521   4.925   5.144   4.944
  526TIP3   OH2 1522   0.692   2.525   0.776
  526TIP3    H1 1523   0.610   2.498   0.818
  526TIP3    H2 1524   0.722   2.599   0.827
  527TIP3   OH2 1525   2.536   7.813   0.081
  527TIP3    H1 1526   2.600   7.807   0.010
  527TIP3    H2 1527   2.486   7.893   0.062
  528TIP3   OH2 1528   1.138   4.894   5.529
  528TIP3    H1 1529   1.143   4.965   5.594
  528TIP3    H2 1530   1.229   4.877   5.506
  529TIP3   OH2 1531   3.810   6.694   5.450
  529TIP3    H1 1532   3.873   6.647   5.395
  529TIP3    H2 1533   3.732   6.701   5.396
  530TIP3   OH2 1534   4.085   6.403   3.181
  530TIP3    H1 1535   4.147   6.351   3.232
  530TIP3    H2 1536   4.094   6.370   3.091
  531TIP3   OH2 1537   1.601   5.076   4.340
  531TIP3    H1 1538   1.635   5.003   4.391
  531TIP3    H2 1539   1.581   5.038   4.254
  532TIP3   OH2 1540   7.631   7.488   0.073
  532TIP3    H1 1541   7.707   7.529   0.033
  532TIP3    H2 1542   7.595   7.432   0.003
  533TIP3   OH2 1543   6.385   4.802   3.241
  533TIP3    H1 1544   6.480   4.798   3.248
  533TIP3    H2 1545   6.369   4.847   3.158
  534TIP3   OH2 1546   7.303   6.923   1.396
  534TIP3    H1 1547   7.287   7.000   1.341
  534TIP3    H2 1548   7.397   6.924   1.413
  535TIP3   OH2 1549   6.424   2.995   4.799
  535TIP3    H1 1550   6.344   3.040   4.827
  535TIP3    H2 1551   6.405   2.902   4.810
  536TIP3   OH2 1552   2.309   1.843   4.091
  536TIP3    H1 1553   2.245   1.816   4.025
  536TIP3    H2 1554   2.390   1.854   4.042
  537TIP3   OH2 1555   2.550   6.828   6.589
  537TIP3    H1 1556   2.484   6.889   6.621
  537TIP3    H2 1557   2.616   6.883   6.547
  538TIP3   OH2 1558   8.239   1.225   3.917
  538TIP3    H1 1559   8.294   1.162   3.963
  538TIP3    H2 1560   8.149   1.193   3.930
  539TIP3   OH2 1561   2.568   5.788   3.057
  539TIP3    H1 1562   2.643   5.729   3.046
  539TIP3    H2 1563   2.508   5.765   2.986
  540TIP3   OH2 1564   6.241   2.106   0.022
  540TIP3    H1 1565   6.249   2.136   0.112
  540TIP3    H2 1566   6.330   2.112  -0.014
  541TIP3   OH2 1567   8.158   5.727   1.650
  541TIP3    H1 1568   8.235   5.753   1.599
  541TIP3    H2 1569   8.140   5.637   1.622
  542TIP3   OH2 1570   5.575   4.517   2.593
  542TIP3    H1 1571   5.525   4.470   2.527
  542TIP3    H2 1572   5.616   4.448   2.646
  543TIP3   OH2 1573   1.744   1.380   2.593
  543TIP3    H1 1574   1.663   1.424   2.567
  543TIP3    H2 1575   1.788   1.360   2.510
  544TIP3   OH2 1576   1.481   2.707   5.704
  544TIP3    H1 1577   1.569   2.673   5.687
  544TIP3    H2 1578   1.429   2.630   5.727
  545TIP3   OH2 1579   6.837   0.047   4.826
  545TIP3    H1 1580   6.929   0.074   4.834
  545TIP3    H2 1581   6.829  -0.030   4.882
  546TIP3   OH2 1582   6.186   6.984   3.920
  546TIP3    H1 1583   6.124   6.975   3.992
  546TIP3    H2 1584   6.149   6.933   3.848
  547TIP3   OH2 1585   4.195   6.910   1.068
  547TIP3    H1 1586   4.173   6.849   1.139
  547TIP3    H2 1587   4.219   6.854   0.994
  548TIP3   OH2 1588   5.742   0.066   5.995
  548TIP3    H1 1589   5.706  -0.012   6.037
  548TIP3    H2 1590   5.815   0.092   6.052
  549TIP3   OH2 1591   7.719   2.642   0.107
  549TIP3    H1 1592   7.747   2.726   0.142
  549TIP3    H2 1593   7.692   2.591   0.183
  550TIP3   OH2 1594   7.985   4.638   0.125
  550TIP3    H1 1595   8.070   4.611   0.091
  550TIP3    H2 1596   7.929   4.561   0.113
  551TIP3   OH2 1597   6.531   2.431   4.160
  551TIP3    H1 1598   6.518   2.338   4.179
  551TIP3    H2 1599   6.450   2.473   4.188
  552TIP3   OH2 1600   7.457   3.635   0.214
  552TIP3    H1 1601   7.460   3.639   0.118
  552TIP3    H2 1602   7.425   3.721   0.240
  553TIP3   OH2 1603   3.293   3.247   2.079
  553TIP3    H1 1604   3.369   3.305   2.090
  553TIP3    H2 1605   3.218   3.303   2.096
  554TIP3   OH2 1606   5.163   7.011   2.999
  554TIP3    H1 1607   5.180   7.060   3.080
  554TIP3    H2 1608   5.132   6.926   3.028
  555TIP3   OH2 1609   1.644   1.347   4.541
  555TIP3    H1 1610   1.627   1.404   4.466
  555TIP3    H2 1611   1.708   1.283   4.508
  556TIP3   OH2 1612   1.547   1.574   3.787
  556TIP3    H1 1613   1.637   1.555   3.762
  556TIP3    H2 1614   1.499   1.576   3.705
  557TIP3   OH2 1615   4.715   1.810   2.837
  557TIP3    H1 1616   4.744   1.846   2.753
  557TIP3    H2 1617   4.678   1.885   2.884
  558TIP3   OH2 1618   0.210   7.518   5.400
  558TIP3    H1 1619   0.206   7.613   5.387
  558TIP3    H2 1620   0.166   7.482   5.323
  559TIP3   OH2 1621   2.459   4.503   4.870
  559TIP3    H1 1622   2.441   4.592   4.842
  559TIP3    H2 1623   2.424   4.448   4.799
  560TIP3   OH2 1624   3.262   6.920   3.143
  560TIP3    H1 1625   3.181   6.871   3.127
  560TIP3    H2 1626   3.305   6.871   3.214
  561TIP3   OH2 1627   3.833   0.863   4.360
  561TIP3    H1 1628   3.743   0.864   4.327
  561TIP3    H2 1629   3.825   0.844   4.453
  562TIP3   OH2 1630   5.466   3.064   5.535
  562TIP3    H1 1631   5.527   2.992   5.548
  562TIP3    H2 1632   5.519   3.136   5.501
  563TIP3   OH2 1633   3.802   2.846   0.296
  563TIP3    H1 1634   3.727   2.841   0.237
  563TIP3    H2 1635   3.878   2.851   0.238
  564TIP3   OH2 1636   5.459   1.742   0.525
  564TIP3    H1 1637   5.543   1.728   0.482
  564TIP3    H2 1638   5.434   1.656   0.558
  565TIP3   OH2 1639   7.340   0.779   6.241
  565TIP3    H1 1640   7.356   0.806   6.150
  565TIP3    H2 1641   7.409   0.823   6.291
  566TIP3   OH2 1642   7.697   6.500   1.315
  566TIP3    H1 1643   7.729   6.500   1.225
  566TIP3    H2 1644   7.707   6.409   1.344
  567TIP3   OH2 1645   4.263   4.897   3.807
  567TIP3    H1 1646   4.324   4.868   3.875
  567TIP3    H2 1647   4.185   4.843   3.821
  568TIP3   OH2 1648   5.068   6.729   4.189
  568TIP3    H1 1649   5.085   6.742   4.095
  568TIP3    H2 1650   5.029   6.811   4.218
  569TIP3   OH2 1651   6.369   2.492   1.565
  569TIP3    H1 1652   6.412   2.534   1.491
  569TIP3    H2 1653   6.328   2.414   1.528
  570TIP3   OH2 1654   2.598   1.373   2.335
  570TIP3    H1 1655   2.581   1.333   2.249
  570TIP3    H2 1656   2.685   1.340   2.360
  571TIP3   OH2 1657   5.023   4.141   1.981
  571TIP3    H1 1658   5.061   4.060   2.016
  571TIP3    H2 1659   4.997   4.191   2.058
  572TIP3   OH2 1660   7.727   0.336   4.115
  572TIP3    H1 1661   7.736   0.408   4.053
  572TIP3    H2 1662   7.768   0.368   4.196
  573TIP3   OH2 1663   3.239   0.201   1.887
  573TIP3    H1 1664   3.313   0.260   1.873
  573TIP3    H2 1665   3.202   0.187   1.800
  574TIP3   OH2 1666   6.896   4.470   1.976
  574TIP3    H1 1667   6.970   4.436   2.027
  574TIP3    H2 1668   6.909   4.565   1.976
  575TIP3   OH2 1669   5.777   7.057   1.092
  575TIP3    H1 1670   5.833   7.108   1.033
  575TIP3    H2 1671   5.688   7.085   1.071
  576TIP3   OH2 1672   4.976   2.646   6.179
  576TIP3    H1 1673   5.033   2.607   6.246
  576TIP3    H2 1674   4.994   2.594   6.101
  577TIP3   OH2 1675   0.420   7.046   1.059
  577TIP3    H1 1676   0.481   7.112   1.092
  577TIP3    H2 1677   0.347   7.097   1.024
  578TIP3   OH2 1678   1.479   0.245   2.928
  578TIP3    H1 1679   1.422   0.183   2.882
  578TIP3    H2 1680   1.516   0.300   2.859
  579TIP3   OH2 1681   8.106   6.039   1.482
  579TIP3    H1 1682   8.152   6.034   1.566
  579TIP3    H2 1683   8.013   6.035   1.505
  580TIP3   OH2 1684   4.604   4.432   4.364
  580TIP3    H1 1685   4.638   4.481   4.438
  580TIP3    H2 1686   4.531   4.381   4.400
  581TIP3   OH2 1687   8.220   1.481   6.663
  581TIP3    H1 1688   8.178   1.514   6.584
  581TIP3    H2 1689   8.189   1.390   6.670
  582TIP3   OH2 1690   8.173   1.242   0.157
  582TIP3    H1 1691   8.117   1.189   0.100
  582TIP3    H2 1692   8.208   1.179   0.220
  583TIP3   OH2 1693   1.482   0.241   5.338
  583TIP3    H1 1694   1.557   0.193   5.302
  583TIP3    H2 1695   1.470   0.205   5.426
  584TIP3   OH2 1696   2.756   5.696   0.041
  584TIP3    H1 1697   2.751   5.602   0.025
  584TIP3    H2 1698   2.740   5.705   0.135
  585TIP3   OH2 1699   2.624   2.774   4.771
  585TIP3    H1 1700   2.648   2.836   4.702
  585TIP3    H2 1701   2.534   2.748   4.749
  586TIP3   OH2 1702   7.170   7.400   5.321
  586TIP3    H1 1703   7.189   7.494   5.313
  586TIP3    H2 1704   7.170   7.384   5.416
  587TIP3   OH2 1705   0.073   2.727   6.088
  587TIP3    H1 1706   0.118   2.712   6.005
  587TIP3    H2 1707   0.015   2.801   6.071
  588TIP3   OH2 1708   2.147   5.068   2.026
  588TIP3    H1 1709   2.184   5.017   2.097
  588TIP3    H2 1710   2.102   5.141   2.070
  589TIP3   OH2 1711   7.945   3.224   6.060
  589TIP3    H1 1712   7.895   3.290   6.012
  589TIP3    H2 1713   7.953   3.150   6.000
  590TIP3   OH2 1714   5.975   3.501   2.928
  590TIP3    H1 1715   6.037   3.548   2.984
  590TIP3    H2 1716   6.020   3.421   2.903
  591TIP3   OH2 1717   1.563   1.864   2.711
  591TIP3    H1 1718   1.646   1.836   2.748
  591TIP3    H2 1719   1.541   1.796   2.647
  592TIP3   OH2 1720   3.476   7.286   1.061
  592TIP3    H1 1721   3.500   7.303   1.152
  592TIP3    H2 1722   3.421   7.361   1.037
  593TIP3   OH2 1723   4.734   4.127   5.554
  593TIP3    H1 1724   4.719   4.192   5.623
  593TIP3    H2 1725   4.677   4.054   5.578
  594TIP3   OH2 1726   8.079   6.343   2.291
  594TIP3    H1 1727   7.994   6.305   2.313
  594TIP3    H2 1728   8.062   6.437   2.281
  595TIP3   OH2 1729   0.303   6.257   0.251
  595TIP3    H1 1730   0.260   6.283   0.170
  595TIP3    H2 1731   0.391   6.229   0.224
  596TIP3   OH2 1732   4.539   1.260   3.975
  596TIP3    H1 1733   4.549   1.164   3.979
  596TIP3    H2 1734   4.626   1.291   3.951
  597TIP3   OH2 1735   5.741   2.516   2.871
  597TIP3    H1 1736   5.733   2.584   2.939
  597TIP3    H2 1737   5.819   2.467   2.896
  598TIP3   OH2 1738   0.899   3.504   6.481
  598TIP3    H1 1739   0.939   3.568   6.540
  598TIP3    H2 1740   0.805   3.510   6.499
  599TIP3   OH2 1741   4.700   1.430   1.893
  599TIP3    H1 1742   4.708   1.442   1.798
  599TIP3    H2 1743   4.654   1.347   1.902
  600TIP3   OH2 1744   7.430   0.521   3.785
  600TIP3    H1 1745   7.371   0.446   3.796
  600TIP3    H2 1746   7.381   0.582   3.730
  601TIP3   OH2 1747   6.561   0.042   6.001
  601TIP3    H1 1748   6.596   0.074   6.085
  601TIP3    H2 1749   6.639   0.019   5.951
  602TIP3   OH2 1750   0.451   1.136   2.600
  602TIP3    H1 1751   0.436   1.220   2.556
  602TIP3    H2 1752   0.445   1.071   2.530
  603TIP3   OH2 1753   6.798   5.135   5.040
  603TIP3    H1 1754   6.703   5.127   5.049
  603TIP3    H2 1755   6.834   5.060   5.087
  604TIP3   OH2 1756   1.248   7.481   3.522
  604TIP3    H1 1757   1.240   7.553   3.584
  604TIP3    H2 1758   1.341   7.461   3.520
  605TIP3   OH2 1759   1.007   1.895  -0.009
  605TIP3    H1 1760   0.939   1.853   0.042
  605TIP3    H2 1761   1.073   1.827  -0.022
  606TIP3   OH2 1762   5.275   5.369   0.476
  606TIP3    H1 1763   5.213   5.296   0.475
  606TIP3    H2 1764   5.303   5.374   0.568
  607TIP3   OH2 1765   6.988   7.838   5.814
  607TIP3    H1 1766   7.067   7.831   5.761
  607TIP3    H2 1767   6.927   7.775   5.776
  608TIP3   OH2 1768   6.694   3.477   2.769
  608TIP3    H1 1769   6.606   3.513   2.781
  608TIP3    H2 1770   6.720   3.447   2.856
  609TIP3   OH2 1771   3.718   6.905   3.357
  609TIP3    H1 1772   3.715   6.816   3.390
  609TIP3    H2 1773   3.666   6.956   3.419
  610TIP3   OH2 1774   0.133   2.025   5.490
  610TIP3    H1 1775   0.092   1.940   5.504
  610TIP3    H2 1776   0.060   2.086   5.480
  611TIP3   OH2 1777   2.421   7.257   6.094
  611TIP3    H1 1778   2.425   7.164   6.074
  611TIP3    H2 1779   2.330   7.272   6.121
  612TIP3   OH2 1780   3.438   2.609   4.880
  612TIP3    H1 1781   3.431   2.689   4.931
  612TIP3    H2 1782   3.353   2.600   4.838
  613TIP3   OH2 1783   7.839   6.392   3.724
  613TIP3    H1 1784   7.836   6.324   3.791
  613TIP3    H2 1785   7.792   6.466   3.763
  614TIP3   OH2 1786   7.686   4.779   0.850
  614TIP3    H1 1787   7.651   4.702   0.804
  614TIP3    H2 1788   7.780   4.767   0.850
  615TIP3   OH2 1789   3.649   0.330   3.373
  615TIP3    H1 1790   3.691   0.404   3.415
  615TIP3    H2 1791   3.563   0.324   3.414
  616TIP3   OH2 1792   3.618   3.379   5.346
  616TIP3    H1 1793   3.635   3.452   5.406
  616TIP3    H2 1794   3.535   3.342   5.375
  617TIP3   OH2 1795   6.596   2.279   2.812
  617TIP3    H1 1796   6.667   2.255   2.753
  617TIP3    H2 1797   6.599   2.375   2.816
  618TIP3   OH2 1798   5.978   7.637   4.956
  618TIP3    H1 1799   5.911   7.582   4.997
  618TIP3    H2 1800   6.059   7.589   4.969
  619TIP3   OH2 1801   4.012   5.825   1.141
  619TIP3    H1 1802   4.024   5.869   1.057
  619TIP3    H2 1803   4.067   5.874   1.202
  620TIP3   OH2 1804   6.471   6.001   3.507
  620TIP3    H1 1805   6.560   6.000   3.472
  620TIP3    H2 1806   6.414   6.009   3.430
  621TIP3   OH2 1807   4.520   5.104   3.487
  621TIP3    H1 1808   4.511   5.009   3.501
  621TIP3    H2 1809   4.594   5.113   3.427
  622TIP3   OH2 1810   0.112   5.884   1.839
  622TIP3    H1 1811   0.072   5.838   1.913
  622TIP3    H2 1812   0.186   5.931   1.878
  623TIP3   OH2 1813   1.745   0.583   6.066
  623TIP3    H1 1814   1.792   0.511   6.023
  623TIP3    H2 1815   1.698   0.626   5.995
  624TIP3   OH2 1816   3.786   3.597   0.695
  624TIP3    H1 1817   3.854   3.626   0.634
  624TIP3    H2 1818   3.706   3.641   0.666
  625TIP3   OH2 1819   5.233   7.605   2.877
  625TIP3    H1 1820   5.265   7.676   2.821
  625TIP3    H2 1821   5.302   7.592   2.942
  626TIP3   OH2 1822   4.336   5.212   1.845
  626TIP3    H1 1823   4.373   5.237   1.930
  626TIP3    H2 1824   4.241   5.221   1.857
  627TIP3   OH2 1825   5.260   7.575   3.274
  627TIP3    H1 1826   5.288   7.515   3.205
  627TIP3    H2 1827   5.269   7.662   3.235
  628TIP3   OH2 1828   2.098   3.158   5.691
  628TIP3    H1 1829   2.124   3.240   5.649
  628TIP3    H2 1830   2.179   3.122   5.727
  629TIP3   OH2 1831   4.473   7.258   0.545
  629TIP3    H1 1832   4.522   7.178   0.528
  629TIP3    H2 1833   4.539   7.322   0.570
  630TIP3   OH2 1834   1.284   7.109   4.374
  630TIP3    H1 1835   1.372   7.071   4.377
  630TIP3    H2 1836   1.290   7.178   4.308
  631TIP3   OH2 1837   8.210   2.540   2.788
  631TIP3    H1 1838   8.300   2.541   2.757
  631TIP3    H2 1839   8.201   2.456   2.834
  632TIP3   OH2 1840   2.788   4.273   1.342
  632TIP3    H1 1841   2.791   4.207   1.272
  632TIP3    H2 1842   2.870   4.321   1.332
  633TIP3   OH2 1843   6.247   1.267   1.323
  633TIP3    H1 1844   6.253   1.321   1.401
  633TIP3    H2 1845   6.241   1.177   1.356
  634TIP3   OH2 1846   6.785   3.575   6.612
  634TIP3    H1 1847   6.753   3.534   6.531
  634TIP3    H2 1848   6.717   3.639   6.634
  635TIP3   OH2 1849   7.794   1.651   4.609
  635TIP3    H1 1850   7.822   1.721   4.667
  635TIP3    H2 1851   7.866   1.642   4.546
  636TIP3   OH2 1852   5.895   5.738   1.928
  636TIP3    H1 1853   5.862   5.804   1.988
  636TIP3    H2 1854   5.885   5.777   1.841
  637TIP3   OH2 1855   5.526   7.063   0.809
  637TIP3    H1 1856   5.610   7.036   0.771
  637TIP3    H2 1857   5.508   7.148   0.771
  638TIP3   OH2 1858   4.576   3.383   5.603
  638TIP3    H1 1859   4.660   3.339   5.619
  638TIP3    H2 1860   4.532   3.327   5.539
  639TIP3   OH2 1861   4.393   7.663   1.391
  639TIP3    H1 1862   4.328   7.594   1.407
  639TIP3    H2 1863   4.340   7.742   1.376
  640TIP3   OH2 1864   6.340   2.190   2.384
  640TIP3    H1 1865   6.400   2.190   2.309
  640TIP3    H2 1866   6.375   2.122   2.442
  641TIP3   OH2 1867   8.039   1.581   4.058
  641TIP3    H1 1868   7.984   1.612   3.986
  641TIP3    H2 1869   7.993   1.504   4.092
  642TIP3   OH2 1870   5.548   3.012   5.854
  642TIP3    H1 1871   5.591   2.972   5.778
  642TIP3    H2 1872   5.487   2.945   5.884
  643TIP3   OH2 1873   1.173   4.777   4.583
  643TIP3    H1 1874   1.232   4.812   4.516
  643TIP3    H2 1875   1.166   4.848   4.648
  644TIP3   OH2 1876   1.485   4.648   5.897
  644TIP3    H1 1877   1.541   4.599   5.837
  644TIP3    H2 1878   1.412   4.678   5.843
  645TIP3   OH2 1879   4.361   7.247   3.702
  645TIP3    H1 1880   4.445   7.226   3.743
  645TIP3    H2 1881   4.302   7.264   3.776
  646TIP3   OH2 1882   0.178   1.587   1.541
  646TIP3    H1 1883   0.238   1.514   1.560
  646TIP3    H2 1884   0.113   1.550   1.482
  647TIP3   OH2 1885   1.223   2.550   2.920
  647TIP3    H1 1886   1.278   2.500   2.980
  647TIP3    H2 1887   1.140   2.560   2.966
  648TIP3   OH2 1888   7.627   4.474   3.835
  648TIP3    H1 1889   7.566   4.423   3.782
  648TIP3    H2 1890   7.605   4.565   3.816
  649TIP3   OH2 1891   4.336   0.112   5.458
  649TIP3    H1 1892   4.295   0.198   5.472
  649TIP3    H2 1893   4.411   0.130   5.402
  650TIP3   OH2 1894   4.105   7.372   1.095
  650TIP3    H1 1895   4.130   7.367   1.188
  650TIP3    H2 1896   4.148   7.297   1.055
  651TIP3   OH2 1897   6.471   3.487   3.977
  651TIP3    H1 1898   6.559   3.471   4.010
  651TIP3    H2 1899   6.416   3.494   4.055
  652TIP3   OH2 1900   4.945   4.635   5.421
  652TIP3    H1 1901   4.866   4.688   5.433
  652TIP3    H2 1902   5.009   4.696   5.384
  653TIP3   OH2 1903   0.450   0.617   5.990
  653TIP3    H1 1904   0.429   0.537   5.942
  653TIP3    H2 1905   0.402   0.686   5.943
  654TIP3   OH2 1906   3.919   4.663   1.084
  654TIP3    H1 1907   3.844   4.695   1.135
  654TIP3    H2 1908   3.891   4.672   0.993
  655TIP3   OH2 1909   7.426   6.614   2.630
  655TIP3    H1 1910   7.416   6.549   2.561
  655TIP3    H2 1911   7.348   6.669   2.624
  656TIP3   OH2 1912   2.230   7.596   4.992
  656TIP3    H1 1913   2.264   7.524   4.941
  656TIP3    H2 1914   2.306   7.632   5.037
  657TIP3   OH2 1915   6.134   3.105   1.516
  657TIP3    H1 1916   6.138   3.073   1.426
  657TIP3    H2 1917   6.190   3.182   1.517
  658TIP3   OH2 1918   1.360   4.468   6.271
  658TIP3    H1 1919   1.276   4.513   6.259
  658TIP3    H2 1920   1.336   4.378   6.293
  659TIP3   OH2 1921   0.179   6.435   1.280
  659TIP3    H1 1922   0.116   6.383   1.231
  659TIP3    H2 1923   0.262   6.387   1.271
  660TIP3   OH2 1924   2.599   0.693   4.483
  660TIP3    H1 1925   2.652   0.674   4.560
  660TIP3    H2 1926   2.634   0.775   4.449
  661TIP3   OH2 1927   7.782   5.274   5.837
  661TIP3    H1 1928   7.702   5.225   5.818
  661TIP3    H2 1929   7.755   5.337   5.904
  662TIP3   OH2 1930   1.464   2.540   3.805
  662TIP3    H1 1931   1.422   2.463   3.844
  662TIP3    H2 1932   1.481   2.598   3.879
  663TIP3   OH2 1933   1.343   3.728   5.093
  663TIP3    H1 1934   1.295   3.653   5.127
  663TIP3    H2 1935   1.322   3.730   5.000
  664TIP3   OH2 1936   3.846   6.162   1.810
  664TIP3    H1 1937   3.934   6.181   1.842
  664TIP3    H2 1938   3.788   6.209   1.870
  665TIP3   OH2 1939   7.192   5.590   6.630
  665TIP3    H1 1940   7.127   5.538   6.677
  665TIP3    H2 1941   7.273   5.578   6.680
  666TIP3   OH2 1942   5.009   7.505   3.115
  666TIP3    H1 1943   4.961   7.437   3.162
  666TIP3    H2 1944   5.067   7.543   3.181
  667TIP3   OH2 1945   7.629   6.046   0.881
  667TIP3    H1 1946   7.589   6.123   0.921
  667TIP3    H2 1947   7.715   6.039   0.922
  668TIP3   OH2 1948   4.434   6.622   0.447
  668TIP3    H1 1949   4.395   6.617   0.360
  668TIP3    H2 1950   4.502   6.555   0.448
  669TIP3   OH2 1951   5.406   3.413   3.812
  669TIP3    H1 1952   5.483   3.357   3.823
  669TIP3    H2 1953   5.441   3.495   3.777
  670TIP3   OH2 1954   3.028   1.645   4.265
  670TIP3    H1 1955   3.098   1.657   4.330
  670TIP3    H2 1956   3.069   1.594   4.195
  671TIP3   OH2 1957   2.324   1.595   0.273
  671TIP3    H1 1958   2.253   1.656   0.252
  671TIP3    H2 1959   2.316   1.581   0.368
  672TIP3   OH2 1960   5.160   0.616   3.220
  672TIP3    H1 1961   5.245   0.595   3.181
  672TIP3    H2 1962   5.139   0.703   3.186
  673TIP3   OH2 1963   6.973   3.706   2.646
  673TIP3    H1 1964   6.982   3.664   2.731
  673TIP3    H2 1965   6.908   3.654   2.600
  674TIP3   OH2 1966   5.488   1.986   2.561
  674TIP3    H1 1967   5.426   1.953   2.626
  674TIP3    H2 1968   5.500   2.078   2.584
  675TIP3   OH2 1969   0.580   5.907   1.082
  675TIP3    H1 1970   0.659   5.921   1.135
  675TIP3    H2 1971   0.530   5.841   1.131
  676TIP3   OH2 1972   7.652   6.363   6.021
  676TIP3    H1 1973   7.642   6.282   6.070
  676TIP3    H2 1974   7.563   6.395   6.007
  677TIP3   OH2 1975   6.655   4.668   4.602
  677TIP3    H1 1976   6.746   4.697   4.598
  677TIP3    H2 1977   6.653   4.588   4.549
  678TIP3   OH2 1978   6.579   3.312   5.758
  678TIP3    H1 1979   6.535   3.383   5.804
  678TIP3    H2 1980   6.574   3.336   5.665
  679TIP3   OH2 1981   3.858   2.754   1.838
  679TIP3    H1 1982   3.765   2.760   1.816
  679TIP3    H2 1983   3.865   2.789   1.927
  680TIP3   OH2 1984   7.050   6.025   2.682
  680TIP3    H1 1985   7.020   5.971   2.755
  680TIP3    H2 1986   7.081   5.963   2.616
  681TIP3   OH2 1987   2.800   4.451   2.330
  681TIP3    H1 1988   2.797   4.437   2.425
  681TIP3    H2 1989   2.800   4.363   2.293
  682TIP3   OH2 1990   5.774   0.275   0.171
  682TIP3    H1 1991   5.716   0.302   0.100
  682TIP3    H2 1992   5.847   0.337   0.168
  683TIP3   OH2 1993   2.211   4.826   3.256
  683TIP3    H1 1994   2.195   4.836   3.350
  683TIP3    H2 1995   2.178   4.739   3.235
  684TIP3   OH2 1996   3.943   1.565   3.475
  684TIP3    H1 1997   3.917   1.481   3.513
  684TIP3    H2 1998   3.964   1.619   3.551
  685TIP3   OH2 1999   5.143   2.339   3.490
  685TIP3    H1 2000   5.168   2.431   3.495
  685TIP3    H2 2001   5.048   2.339   3.494
  686TIP3   OH2 2002   3.429   5.730   0.472
  686TIP3    H1 2003   3.523   5.746   0.469
  686TIP3    H2 2004   3.416   5.679   0.552
  687TIP3   OH2 2005   4.948   5.146   4.766
  687TIP3    H1 2006   4.876   5.203   4.739
  687TIP3    H2 2007   5.027   5.196   4.747
  688TIP3   OH2 2008   4.259   6.019   2.053
  688TIP3    H1 2009   4.221   6.030   2.140
  688TIP3    H2 2010   4.353   6.031   2.066
  689TIP3   OH2 2011   5.689   4.422   0.941
  689TIP3    H1 2012   5.619   4.462   0.890
  689TIP3    H2 2013   5.768   4.440   0.891
  690TIP3   OH2 2014   6.140   5.346   5.307
  690TIP3    H1 2015   6.130   5.363   5.401
  690TIP3    H2 2016   6.068   5.394   5.266
  691TIP3   OH2 2017   7.060   3.343   3.773
  691TIP3    H1 2018   7.064   3.416   3.712
  691TIP3    H2 2019   7.083   3.381   3.858
  692TIP3   OH2 2020   4.698   5.480   1.412
  692TIP3    H1 2021   4.649   5.403   1.440
  692TIP3    H2 2022   4.671   5.549   1.473
  693TIP3   OH2 2023   4.596   5.234   6.522
  693TIP3    H1 2024   4.630   5.311   6.476
  693TIP3    H2 2025   4.508   5.222   6.486
  694TIP3   OH2 2026   5.882   0.646   1.106
  694TIP3    H1 2027   5.956   0.651   1.167
  694TIP3    H2 2028   5.848   0.735   1.103
  695TIP3   OH2 2029   3.239   3.468   5.137
  695TIP3    H1 2030   3.208   3.471   5.046
  695TIP3    H2 2031   3.295   3.391   5.141
  696TIP3   OH2 2032   1.657   6.965   4.589
  696TIP3    H1 2033   1.741   6.931   4.619
  696TIP3    H2 2034   1.592   6.923   4.646
  697TIP3   OH2 2035   1.999   5.049   2.572
  697TIP3    H1 2036   1.984   5.078   2.662
  697TIP3    H2 2037   1.919   5.071   2.525
  698TIP3   OH2 2038   1.087   0.039   4.161
  698TIP3    H1 2039   0.999   0.011   4.187
  698TIP3    H2 2040   1.143   0.015   4.235
  699TIP3   OH2 2041   3.459   4.603   6.075
  699TIP3    H1 2042   3.522   4.556   6.020
  699TIP3    H2 2043   3.423   4.671   6.018
  700TIP3   OH2 2044   2.006   5.229   2.206
  700TIP3    H1 2045   1.916   5.200   2.190
  700TIP3    H2 2046   2.002   5.272   2.292
  701TIP3   OH2 2047   2.027   0.432   5.478
  701TIP3    H1 2048   2.037   0.509   5.534
  701TIP3    H2 2049   1.951   0.386   5.513
  702TIP3   OH2 2050   7.226   4.727   4.962
  702TIP3    H1 2051   7.277   4.760   4.887
  702TIP3    H2 2052   7.138   4.763   4.948
  703TIP3   OH2 2053   0.279   4.032   3.964
  703TIP3    H1 2054   0.222   4.045   3.888
  703TIP3    H2 2055   0.254   3.946   3.997
  704TIP3   OH2 2056   2.827   7.049   4.777
  704TIP3    H1 2057   2.744   7.065   4.732
  704TIP3    H2 2058   2.883   7.122   4.750
  705TIP3   OH2 2059   6.636   4.185   6.697
  705TIP3    H1 2060   6.587   4.131   6.635
  705TIP3    H2 2061   6.714   4.134   6.717
  706TIP3   OH2 2062   7.107   4.983   2.458
  706TIP3    H1 2063   7.102   4.991   2.554
  706TIP3    H2 2064   7.200   4.966   2.441
  707TIP3   OH2 2065   4.218   1.080   6.010
  707TIP3    H1 2066   4.285   1.074   5.941
  707TIP3    H2 2067   4.135   1.064   5.964
  708TIP3   OH2 2068   7.265   1.735   5.443
  708TIP3    H1 2069   7.204   1.776   5.504
  708TIP3    H2 2070   7.337   1.798   5.435
  709TIP3   OH2 2071   5.964   3.112   0.700
  709TIP3    H1 2072   5.882   3.148   0.736
  709TIP3    H2 2073   5.936   3.057   0.627
  710TIP3   OH2 2074   7.663   3.715   3.087
  710TIP3    H1 2075   7.599   3.716   3.158
  710TIP3    H2 2076   7.697   3.805   3.084
  711TIP3   OH2 2077   5.880   4.983   5.454
  711TIP3    H1 2078   5.917   5.068   5.479
  711TIP3    H2 2079   5.815   5.004   5.386
  712TIP3   OH2 2080   2.104   1.852   3.668
  712TIP3    H1 2081   2.191   1.886   3.648
  712TIP3    H2 2082   2.114   1.807   3.752
  713TIP3   OH2 2083   6.964   3.868   2.408
  713TIP3    H1 2084   6.903   3.797   2.386
  713TIP3    H2 2085   6.937   3.896   2.496
  714TIP3   OH2 2086   1.087   5.926   3.052
  714TIP3    H1 2087   1.002   5.949   3.088
  714TIP3    H2 2088   1.112   5.846   3.099
  715TIP3   OH2 2089   2.791   6.008   6.402
  715TIP3    H1 2090   2.818   6.027   6.492
  715TIP3    H2 2091   2.812   6.088   6.353
  716TIP3   OH2 2092   0.744   3.766   0.528
  716TIP3    H1 2093   0.769   3.779   0.436
  716TIP3    H2 2094   0.729   3.855   0.561
  717TIP3   OH2 2095   2.445   5.597   2.322
  717TIP3    H1 2096   2.394   5.656   2.378
  717TIP3    H2 2097   2.432   5.511   2.362
  718TIP3   OH2 2098   1.417   7.175   1.494
  718TIP3    H1 2099   1.361   7.232   1.547
  718TIP3    H2 2100   1.364   7.097   1.477
  719TIP3   OH2 2101   5.956   1.538   2.677
  719TIP3    H1 2102   5.885   1.549   2.613
  719TIP3    H2 2103   5.950   1.446   2.703
  720TIP3   OH2 2104   1.774   4.390   4.186
  720TIP3    H1 2105   1.716   4.461   4.214
  720TIP3    H2 2106   1.756   4.380   4.093
  721TIP3   OH2 2107   7.173   0.062   3.944
  721TIP3    H1 2108   7.080   0.070   3.921
  721TIP3    H2 2109   7.214   0.028   3.864
  722TIP3   OH2 2110   6.799   4.489   4.448
  722TIP3    H1 2111   6.889   4.469   4.420
  722TIP3    H2 2112   6.759   4.530   4.371
  723TIP3   OH2 2113   5.234   5.169   1.493
  723TIP3    H1 2114   5.265   5.259   1.480
  723TIP3    H2 2115   5.308   5.123   1.533
  724TIP3   OH2 2116   7.013   4.180   3.625
  724TIP3    H1 2117   7.047   4.092   3.604
  724TIP3    H2 2118   7.000   4.179   3.720
  725TIP3   OH2 2119   6.183   2.756   6.204
  725TIP3    H1 2120   6.194   2.736   6.111
  725TIP3    H2 2121   6.197   2.850   6.210
  726TIP3   OH2 2122   4.807   0.571   5.789
  726TIP3    H1 2123   4.742   0.629   5.827
  726TIP3    H2 2124   4.882   0.629   5.770
  727TIP3   OH2 2125   7.081   3.206   1.413
  727TIP3    H1 2126   7.011   3.145   1.437
  727TIP3    H2 2127   7.100   3.254   1.493
  728TIP3   OH2 2128   3.157   2.795   1.882
  728TIP3    H1 2129   3.213   2.718   1.887
  728TIP3    H2 2130   3.208   2.864   1.925
  729TIP3   OH2 2131   3.290   4.658   4.800
  729TIP3    H1 2132   3.375   4.700   4.812
  729TIP3    H2 2133   3.310   4.566   4.784
  730TIP3   OH2 2134   6.721   1.322   1.217
  730TIP3    H1 2135   6.642   1.370   1.195
  730TIP3    H2 2136   6.705   1.233   1.185
  731TIP3   OH2 2137   2.263   0.742   3.099
  731TIP3    H1 2138   2.173   0.714   3.079
  731TIP3    H2 2139   2.270   0.734   3.194
  732TIP3   OH2 2140   3.480   4.950   0.130
  732TIP3    H1 2141   3.390   4.980   0.143
  732TIP3    H2 2142   3.519   4.950   0.218
  733TIP3   OH2 2143   3.344   2.843   1.149
  733TIP3    H1 2144   3.274   2.836   1.213
  733TIP3    H2 2145   3.343   2.934   1.121
  734TIP3   OH2 2146   7.668   6.617   3.812
  734TIP3    H1 2147   7.580   6.647   3.835
  734TIP3    H2 2148   7.718   6.625   3.893
  735TIP3   OH2 2149   2.084   3.099   6.319
  735TIP3    H1 2150   2.074   3.161   6.247
  735TIP3    H2 2151   2.024   3.130   6.386
  736TIP3   OH2 2152   7.904   2.328   6.184
  736TIP3    H1 2153   7.813   2.310   6.161
  736TIP3    H2 2154   7.922   2.414   6.145
  737TIP3   OH2 2155   1.125   4.950   0.829
  737TIP3    H1 2156   1.214   4.984   0.819
  737TIP3    H2 2157   1.114   4.889   0.756
  738TIP3   OH2 2158   7.209   5.116   6.587
  738TIP3    H1 2159   7.272   5.044   6.587
  738TIP3    H2 2160   7.225   5.161   6.505
  739TIP3   OH2 2161   1.080   6.136   0.193
  739TIP3    H1 2162   1.050   6.084   0.268
  739TIP3    H2 2163   1.078   6.075   0.119
  740TIP3   OH2 2164   5.152   4.154   1.750
  740TIP3    H1 2165   5.158   4.070   1.704
  740TIP3    H2 2166   5.102   4.134   1.829
  741TIP3   OH2 2167   0.642   0.703   3.543
  741TIP3    H1 2168   0.677   0.751   3.618
  741TIP3    H2 2169   0.560   0.665   3.575
  742TIP3   OH2 2170   1.371   4.500   3.178
  742TIP3    H1 2171   1.454   4.469   3.143
  742TIP3    H2 2172   1.307   4.476   3.111
  743TIP3   OH2 2173   1.313   0.731   6.003
  743TIP3    H1 2174   1.227   0.752   5.967
  743TIP3    H2 2175   1.360   0.815   6.001
  744TIP3   OH2 2176   0.184   0.803   4.679
  744TIP3    H1 2177   0.110   0.763   4.633
  744TIP3    H2 2178   0.239   0.839   4.609
  745TIP3   OH2 2179   6.455   1.440   6.409
  745TIP3    H1 2180   6.421   1.518   6.363
  745TIP3    H2 2181   6.378   1.400   6.448
  746TIP3   OH2 2182   4.675   3.106   3.707
  746TIP3    H1 2183   4.699   3.079   3.618
  746TIP3    H2 2184   4.703   3.197   3.713
  747TIP3   OH2 2185   2.074   4.418   5.967
  747TIP3    H1 2186   2.044   4.443   5.879
  747TIP3    H2 2187   1.995   4.391   6.013
  748TIP3   OH2 2188   1.485   0.002   0.430
  748TIP3    H1 2189   1.531   0.067   0.377
  748TIP3    H2 2190   1.527  -0.081   0.408
  749TIP3   OH2 2191   7.840   4.725   0.467
  749TIP3    H1 2192   7.773   4.670   0.507
  749TIP3    H2 2193   7.922   4.679   0.484
  750TIP3   OH2 2194   2.833   5.716   6.479
  750TIP3    H1 2195   2.904   5.657   6.454
  750TIP3    H2 2196   2.816   5.696   6.572
  751TIP3   OH2 2197   2.320   6.679   1.859
  751TIP3    H1 2198   2.303   6.745   1.793
  751TIP3    H2 2199   2.372   6.612   1.814
  752TIP3   OH2 2200   6.792   4.129   6.243
  752TIP3    H1 2201   6.710   4.135   6.293
  752TIP3    H2 2202   6.766   4.139   6.152
  753TIP3   OH2 2203   7.491   1.499  -0.008
  753TIP3    H1 2204   7.568   1.506  -0.064
  753TIP3    H2 2205   7.526   1.493   0.081
  754TIP3   OH2 2206   6.448   3.733   1.632
  754TIP3    H1 2207   6.454   3.724   1.537
  754TIP3    H2 2208   6.382   3.668   1.658
  755TIP3   OH2 2209   8.103   1.888   3.868
  755TIP3    H1 2210   8.088   1.815   3.928
  755TIP3    H2 2211   8.121   1.847   3.784
  756TIP3   OH2 2212   5.152   3.165   1.578
  756TIP3    H1 2213   5.083   3.120   1.529
  756TIP3    H2 2214   5.213   3.195   1.511
  757TIP3   OH2 2215   8.204   4.303   2.716
  757TIP3    H1 2216   8.238   4.371   2.775
  757TIP3    H2 2217   8.211   4.222   2.765
  758TIP3   OH2 2218   4.776   7.382   1.056
  758TIP3    H1 2219   4.707   7.448   1.064
  758TIP3    H2 2220   4.750   7.313   1.117
  759TIP3   OH2 2221   6.274   4.131   5.864
  759TIP3    H1 2222   6.332   4.125   5.940
  759TIP3    H2 2223   6.302   4.211   5.819
  760TIP3   OH2 2224   7.037   0.273   6.350
  760TIP3    H1 2225   6.980   0.245   6.422
  760TIP3    H2 2226   7.100   0.331   6.392
  761TIP3   OH2 2227   0.408   6.345   2.941
  761TIP3    H1 2228   0.319   6.330   2.972
  761TIP3    H2 2229   0.457   6.267   2.968
  762TIP3   OH2 2230   0.285   2.694   4.361
  762TIP3    H1 2231   0.220   2.628   4.386
  762TIP3    H2 2232   0.365   2.644   4.345
  763TIP3   OH2 2233   6.973   1.319   6.166
  763TIP3    H1 2234   6.931   1.282   6.088
  763TIP3    H2 2235   6.973   1.248   6.229
  764TIP3   OH2 2236   1.067   5.693   3.190
  764TIP3    H1 2237   1.110   5.617   3.228
  764TIP3    H2 2238   0.983   5.699   3.236
  765TIP3   OH2 2239   2.762   0.531   0.061
  765TIP3    H1 2240   2.729   0.457   0.011
  765TIP3    H2 2241   2.825   0.493   0.122
  766TIP3   OH2 2242   7.526   3.609   6.551
  766TIP3    H1 2243   7.506   3.535   6.495
  766TIP3    H2 2244   7.456   3.672   6.535
  767TIP3   OH2 2245   3.178   1.154   5.357
  767TIP3    H1 2246   3.204   1.077   5.306
  767TIP3    H2 2247   3.155   1.120   5.443
  768TIP3   OH2 2248   4.372   3.490   5.995
  768TIP3    H1 2249   4.278   3.493   5.983
  768TIP3    H2 2250   4.405   3.440   5.920
  769TIP3   OH2 2251   5.436   6.032   0.035
  769TIP3    H1 2252   5.462   6.040   0.127
  769TIP3    H2 2253   5.399   6.118   0.013
  770TIP3   OH2 2254   3.494   1.033   3.435
  770TIP3    H1 2255   3.449   1.099   3.488
  770TIP3    H2 2256   3.509   0.960   3.496
  771TIP3   OH2 2257   4.925   3.377   6.628
  771TIP3    H1 2258   4.903   3.286   6.605
  771TIP3    H2 2259   5.020   3.381   6.623
  772TIP3   OH2 2260   3.174   1.499   5.268
  772TIP3    H1 2261   3.188   1.579   5.218
  772TIP3    H2 2262   3.106   1.523   5.332
  773TIP3   OH2 2263   0.338   4.716   3.735
  773TIP3    H1 2264   0.253   4.681   3.709
  773TIP3    H2 2265   0.376   4.749   3.654
  774TIP3   OH2 2266   5.781   5.304   1.719
  774TIP3    H1 2267   5.703   5.252   1.739
  774TIP3    H2 2268   5.846   5.241   1.689
  775TIP3   OH2 2269   5.470   5.025   4.681
  775TIP3    H1 2270   5.532   5.060   4.744
  775TIP3    H2 2271   5.486   5.074   4.601
  776TIP3   OH2 2272   2.008   3.955   5.704
  776TIP3    H1 2273   2.002   3.862   5.727
  776TIP3    H2 2274   2.102   3.973   5.700
  777TIP3   OH2 2275   0.998   7.367   1.356
  777TIP3    H1 2276   1.068   7.407   1.408
  777TIP3    H2 2277   0.967   7.438   1.299
  778TIP3   OH2 2278   4.839   6.853   6.515
  778TIP3    H1 2279   4.911   6.888   6.568
  778TIP3    H2 2280   4.842   6.905   6.434
  779TIP3   OH2 2281   1.129   7.546   1.204
  779TIP3    H1 2282   1.179   7.493   1.141
  779TIP3    H2 2283   1.187   7.555   1.280
  780TIP3   OH2 2284   2.352   7.734   2.915
  780TIP3    H1 2285   2.432   7.787   2.907
  780TIP3    H2 2286   2.326   7.716   2.825
  781TIP3   OH2 2287   4.980   5.512   5.892
  781TIP3    H1 2288   5.061   5.461   5.895
  781TIP3    H2 2289   4.914   5.449   5.860
  782TIP3   OH2 2290   6.946   7.263   0.960
  782TIP3    H1 2291   6.960   7.356   0.981
  782TIP3    H2 2292   7.030   7.221   0.982
  783TIP3   OH2 2293   4.938   5.179   5.579
  783TIP3    H1 2294   4.875   5.128   5.528
  783TIP3    H2 2295   5.011   5.195   5.518
  784TIP3   OH2 2296   1.826   3.065   5.761
  784TIP3    H1 2297   1.773   3.135   5.722
  784TIP3    H2 2298   1.914   3.103   5.768
  785TIP3   OH2 2299   2.562   2.330   1.376
  785TIP3    H1 2300   2.643   2.343   1.326
  785TIP3    H2 2301   2.557   2.235   1.387
  786TIP3   OH2 2302   8.126   3.268   3.170
  786TIP3    H1 2303   8.113   3.362   3.176
  786TIP3    H2 2304   8.079   3.241   3.092
  787TIP3   OH2 2305   7.292   5.138   2.862
  787TIP3    H1 2306   7.371   5.087   2.880
  787TIP3    H2 2307   7.317   5.228   2.882
  788TIP3   OH2 2308   0.573   7.668   6.713
  788TIP3    H1 2309   0.628   7.692   6.638
  788TIP3    H2 2310   0.495   7.630   6.675
  789TIP3   OH2 2311   7.319   1.198   2.417
  789TIP3    H1 2312   7.406   1.215   2.382
  789TIP3    H2 2313   7.332   1.184   2.511
  790TIP3   OH2 2314   7.551   7.235   1.112
  790TIP3    H1 2315   7.619   7.172   1.136
  790TIP3    H2 2316   7.504   7.194   1.039
  791TIP3   OH2 2317   1.604   1.789   4.549
  791TIP3    H1 2318   1.564   1.735   4.618
  791TIP3    H2 2319   1.542   1.784   4.476
  792TIP3   OH2 2320   2.647   2.771   5.472
  792TIP3    H1 2321   2.642   2.863   5.498
  792TIP3    H2 2322   2.738   2.758   5.445
  793TIP3   OH2 2323   0.053   7.620   3.251
  793TIP3    H1 2324  -0.025   7.613   3.305
  793TIP3    H2 2325   0.024   7.597   3.163
  794TIP3   OH2 2326   0.275   1.726   1.018
  794TIP3    H1 2327   0.339   1.768   1.075
  794TIP3    H2 2328   0.327   1.673   0.957
  795TIP3   OH2 2329   7.076   3.569   1.673
  795TIP3    H1 2330   6.999   3.594   1.623
  795TIP3    H2 2331   7.095   3.645   1.728
  796TIP3   OH2 2332   0.630   2.414   4.718
  796TIP3    H1 2333   0.640   2.324   4.750
  796TIP3    H2 2334   0.710   2.458   4.746
  797TIP3   OH2 2335   3.009   4.376   1.220
  797TIP3    H1 2336   3.015   4.367   1.125
  797TIP3    H2 2337   3.036   4.466   1.238
  798TIP3   OH2 2338   3.769   5.368   0.099
  798TIP3    H1 2339   3.711   5.308   0.145
  798TIP3    H2 2340   3.745   5.454   0.131
  799TIP3   OH2 2341   0.758   0.608   5.957
  799TIP3    H1 2342   0.666   0.610   5.985
  799TIP3    H2 2343   0.773   0.694   5.918
  800TIP3   OH2 2344   2.081   0.806   1.149
  800TIP3    H1 2345   2.091   0.819   1.054
  800TIP3    H2 2346   1.991   0.775   1.160
  801TIP3   OH2 2347   4.677   3.043   6.120
  801TIP3    H1 2348   4.624   3.000   6.053
  801TIP3    H2 2349   4.742   3.094   6.070
  802TIP3   OH2 2350   2.287   1.170   1.169
  802TIP3    H1 2351   2.325   1.089   1.204
  802TIP3    H2 2352   2.247   1.144   1.087
  803TIP3   OH2 2353   4.342   7.524   5.113
  803TIP3    H1 2354   4.289   7.455   5.150
  803TIP3    H2 2355   4.428   7.515   5.155
  804TIP3   OH2 2356   5.090   4.970   0.680
  804TIP3    H1 2357   5.177   4.959   0.716
  804TIP3    H2 2358   5.041   4.894   0.710
  805TIP3   OH2 2359   6.143   7.725   6.047
  805TIP3    H1 2360   6.186   7.650   6.089
  805TIP3    H2 2361   6.177   7.801   6.094
  806TIP3   OH2 2362   0.242   6.636   1.981
  806TIP3    H1 2363   0.274   6.674   1.899
  806TIP3    H2 2364   0.226   6.711   2.038
  807TIP3   OH2 2365   5.709   6.919   2.632
  807TIP3    H1 2366   5.703   6.849   2.567
  807TIP3    H2 2367   5.735   6.875   2.713
  808TIP3   OH2 2368   3.807   1.029   0.202
  808TIP3    H1 2369   3.884   1.034   0.259
  808TIP3    H2 2370   3.842   1.045   0.114
  809TIP3   OH2 2371   4.405   7.091   2.363
  809TIP3    H1 2372   4.477   7.048   2.315
  809TIP3    H2 2373   4.440   7.106   2.451
  810TIP3   OH2 2374   7.695   5.094   2.882
  810TIP3    H1 2375   7.751   5.082   2.959
  810TIP3    H2 2376   7.623   5.032   2.895
  811TIP3   OH2 2377   7.843   1.382   4.915
  811TIP3    H1 2378   7.900   1.409   4.987
  811TIP3    H2 2379   7.888   1.307   4.875
  812TIP3   OH2 2380   5.754   1.518   1.865
  812TIP3    H1 2381   5.769   1.506   1.959
  812TIP3    H2 2382   5.740   1.429   1.832
  813TIP3   OH2 2383   0.938   5.227   1.641
  813TIP3    H1 2384   0.861   5.237   1.697
  813TIP3    H2 2385   1.012   5.235   1.701
  814TIP3   OH2 2386   4.426   1.360   6.644
  814TIP3    H1 2387   4.459   1.402   6.724
  814TIP3    H2 2388   4.489   1.290   6.626
  815TIP3   OH2 2389   7.815   6.400   4.457
  815TIP3    H1 2390   7.747   6.348   4.413
  815TIP3    H2 2391   7.774   6.485   4.472
  816TIP3   OH2 2392   2.868   3.387   6.295
  816TIP3    H1 2393   2.913   3.305   6.311
  816TIP3    H2 2394   2.819   3.372   6.214
  817TIP3   OH2 2395   2.955   7.373   5.395
  817TIP3    H1 2396   3.006   7.312   5.342
  817TIP3    H2 2397   2.885   7.403   5.338
  818TIP3   OH2 2398   5.388   2.075   2.101
  818TIP3    H1 2399   5.326   2.146   2.080
  818TIP3    H2 2400   5.457   2.118   2.152
  819TIP3   OH2 2401   0.757   7.044   6.549
  819TIP3    H1 2402   0.764   6.951   6.572
  819TIP3    H2 2403   0.837   7.063   6.501
  820TIP3   OH2 2404   6.772   6.228   4.603
  820TIP3    H1 2405   6.795   6.135   4.601
  820TIP3    H2 2406   6.796   6.260   4.516
  821TIP3   OH2 2407   1.091   7.634   0.864
  821TIP3    H1 2408   1.049   7.578   0.798
  821TIP3    H2 2409   1.185   7.626   0.846
  822TIP3   OH2 2410   5.449   5.954   2.644
  822TIP3    H1 2411   5.476   6.031   2.594
  822TIP3    H2 2412   5.363   5.976   2.679
  823TIP3   OH2 2413   1.512   0.448   3.160
  823TIP3    H1 2414   1.583   0.488   3.109
  823TIP3    H2 2415   1.463   0.396   3.095
  824TIP3   OH2 2416   3.663   1.421   4.335
  824TIP3    H1 2417   3.577   1.453   4.308
  824TIP3    H2 2418   3.646   1.377   4.419
  825TIP3   OH2 2419   4.659   1.612   3.665
  825TIP3    H1 2420   4.624   1.523   3.672
  825TIP3    H2 2421   4.737   1.602   3.611
  826TIP3   OH2 2422   0.078   2.424   1.650
  826TIP3    H1 2423   0.058   2.378   1.569
  826TIP3    H2 2424   0.017   2.498   1.651
  827TIP3   OH2 2425   4.389   5.921   2.821
  827TIP3    H1 2426   4.307   5.886   2.787
  827TIP3    H2 2427   4.401   6.004   2.776
  828TIP3   OH2 2428   0.010   3.143   6.764
  828TIP3    H1 2429  -0.062   3.087   6.735
  828TIP3    H2 2430   0.069   3.147   6.689
  829TIP3   OH2 2431   2.022   3.995   4.765
  829TIP3    H1 2432   2.016   3.921   4.826
  829TIP3    H2 2433   1.991   3.960   4.681
  830TIP3   OH2 2434   8.016   1.504   1.717
  830TIP3    H1 2435   8.097   1.457   1.739
  830TIP3    H2 2436   7.951   1.435   1.706
  831TIP3   OH2 2437   1.590   0.373   5.844
  831TIP3    H1 2438   1.685   0.358   5.847
  831TIP3    H2 2439   1.581   0.468   5.847
  832TIP3   OH2 2440   1.082   1.957   2.406
  832TIP3    H1 2441   1.089   2.052   2.410
  832TIP3    H2 2442   1.168   1.926   2.434
  833TIP3   OH2 2443   2.348   2.755   4.679
  833TIP3    H1 2444   2.339   2.847   4.656
  833TIP3    H2 2445   2.270   2.713   4.643
  834TIP3   OH2 2446   6.438   7.601   2.052
  834TIP3    H1 2447   6.396   7.661   2.113
  834TIP3    H2 2448   6.388   7.610   1.971
  835TIP3   OH2 2449   3.470   0.389   4.532
  835TIP3    H1 2450   3.422   0.425   4.606
  835TIP3    H2 2451   3.554   0.361   4.568
  836TIP3   OH2 2452   8.014   4.190   6.553
  836TIP3    H1 2453   7.977   4.107   6.522
  836TIP3    H2 2454   8.056   4.168   6.636
  837TIP3   OH2 2455   4.241   4.155   5.194
  837TIP3    H1 2456   4.284   4.116   5.270
  837TIP3    H2 2457   4.308   4.212   5.156
  838TIP3   OH2 2458   4.328   1.788   1.843
  838TIP3    H1 2459   4.307   1.719   1.907
  838TIP3    H2 2460   4.294   1.754   1.760
  839TIP3   OH2 2461   3.257   3.079   0.433
  839TIP3    H1 2462   3.219   3.057   0.347
  839TIP3    H2 2463   3.212   3.022   0.494
  840TIP3   OH2 2464   0.992   7.323   3.241
  840TIP3    H1 2465   1.039   7.306   3.322
  840TIP3    H2 2466   0.962   7.237   3.211
  841TIP3   OH2 2467   0.671   1.670   5.469
  841TIP3    H1 2468   0.587   1.628   5.487
  841TIP3    H2 2469   0.736   1.602   5.487
  842TIP3   OH2 2470   1.167   7.040   6.641
  842TIP3    H1 2471   1.251   7.038   6.687
  842TIP3    H2 2472   1.124   7.119   6.674
  843TIP3   OH2 2473   0.765   4.578   0.568
  843TIP3    H1 2474   0.787   4.563   0.660
  843TIP3    H2 2475   0.847   4.562   0.521
  844TIP3   OH2 2476   3.470   4.332   4.989
  844TIP3    H1 2477   3.559   4.308   5.013
  844TIP3    H2 2478   3.475   4.356   4.897
  845TIP3   OH2 2479   1.406   6.982   2.674
  845TIP3    H1 2480   1.465   6.974   2.599
  845TIP3    H2 2481   1.356   7.062   2.658
  846TIP3   OH2 2482   1.574   7.455   3.181
  846TIP3    H1 2483   1.635   7.454   3.255
  846TIP3    H2 2484   1.542   7.365   3.175
  847TIP3   OH2 2485   0.538   4.137   3.066
  847TIP3    H1 2486   0.630   4.119   3.084
  847TIP3    H2 2487   0.539   4.207   3.001
  848TIP3   OH2 2488   6.320   0.603   4.740
  848TIP3    H1 2489   6.305   0.694   4.712
  848TIP3    H2 2490   6.325   0.553   4.658
  849TIP3   OH2 2491   7.289   1.654   6.049
  849TIP3    H1 2492   7.304   1.700   6.132
  849TIP3    H2 2493   7.375   1.621   6.024
  850TIP3   OH2 2494   4.376   2.849   6.748
  850TIP3    H1 2495   4.430   2.928   6.759
  850TIP3    H2 2496   4.286   2.881   6.753
  851TIP3   OH2 2497   4.983   0.044   5.710
  851TIP3    H1 2498   5.065   0.017   5.670
  851TIP3    H2 2499   4.950  -0.035   5.753
  852TIP3   OH2 2500   4.407   5.808   4.268
  852TIP3    H1 2501   4.486   5.757   4.248
  852TIP3    H2 2502   4.430   5.858   4.346
  853TIP3   OH2 2503   7.253   6.558   0.935
  853TIP3    H1 2504   7.173   6.582   0.982
  853TIP3    H2 2505   7.237   6.468   0.906
  854TIP3   OH2 2506  -0.020   7.326   3.574
  854TIP3    H1 2507  -0.028   7.325   3.479
  854TIP3    H2 2508   0.071   7.351   3.590
  855TIP3   OH2 2509   5.806   5.035   3.126
  855TIP3    H1 2510   5.744   5.046   3.054
  855TIP3    H2 2511   5.779   5.101   3.190
  856TIP3   OH2 2512   4.052   2.888   5.575
  856TIP3    H1 2513   4.011   2.975   5.570
  856TIP3    H2 2514   4.069   2.876   5.668
  857TIP3   OH2 2515   1.191   1.596   4.064
  857TIP3    H1 2516   1.276   1.578   4.023
  857TIP3    H2 2517   1.168   1.514   4.108
  858TIP3   OH2 2518   7.249   5.462   5.871
  858TIP3    H1 2519   7.178   5.486   5.811
  858TIP3    H2 2520   7.301   5.398   5.822
  859TIP3   OH2 2521   6.683   1.116   2.881
  859TIP3    H1 2522   6.589   1.110   2.898
  859TIP3    H2 2523   6.700   1.050   2.813
  860TIP3   OH2 2524   3.725   5.095   4.282
  860TIP3    H1 2525   3.713   5.138   4.367
  860TIP3    H2 2526   3.702   5.162   4.218
  861TIP3   OH2 2527   1.656   0.856   0.096
  861TIP3    H1 2528   1.684   0.764   0.103
  861TIP3    H2 2529   1.735   0.903   0.069
  862TIP3   OH2 2530   8.146   5.516   4.452
  862TIP3    H1 2531   8.121   5.597   4.498
  862TIP3    H2 2532   8.192   5.464   4.518
  863TIP3   OH2 2533   3.755   2.768   1.263
  863TIP3    H1 2534   3.779   2.805   1.178
  863TIP3    H2 2535   3.797   2.826   1.327
  864TIP3   OH2 2536   0.919   4.054   5.578
  864TIP3    H1 2537   0.924   4.014   5.665
  864TIP3    H2 2538   1.008   4.085   5.561
  865TIP3   OH2 2539   4.983   3.226   0.093
  865TIP3    H1 2540   5.073   3.216   0.122
  865TIP3    H2 2541   4.983   3.308   0.044
  866TIP3   OH2 2542   6.479   0.584   2.353
  866TIP3    H1 2543   6.427   0.504   2.357
  866TIP3    H2 2544   6.557   0.559   2.303
  867TIP3   OH2 2545   0.819   2.019   2.513
  867TIP3    H1 2546   0.895   2.067   2.547
  867TIP3    H2 2547   0.832   1.929   2.544
  868TIP3   OH2 2548   3.560   7.005   5.531
  868TIP3    H1 2549   3.557   7.094   5.497
  868TIP3    H2 2550   3.602   6.954   5.462
  869TIP3   OH2 2551   7.500   4.824   5.102
  869TIP3    H1 2552   7.577   4.768   5.094
  869TIP3    H2 2553   7.468   4.836   5.012
  870TIP3   OH2 2554   4.179   5.248   2.260
  870TIP3    H1 2555   4.244   5.195   2.215
  870TIP3    H2 2556   4.153   5.315   2.197
  871TIP3   OH2 2557   2.185   2.320   1.850
  871TIP3    H1 2558   2.253   2.386   1.862
  871TIP3    H2 2559   2.227   2.237   1.874
  872TIP3   OH2 2560   2.144   3.240   4.330
  872TIP3    H1 2561   2.120   3.286   4.410
  872TIP3    H2 2562   2.099   3.288   4.260
  873TIP3   OH2 2563   4.308   1.071   0.343
  873TIP3    H1 2564   4.357   1.087   0.424
  873TIP3    H2 2565   4.364   1.108   0.275
  874TIP3   OH2 2566   1.379   6.573   6.531
  874TIP3    H1 2567   1.379   6.651   6.476
  874TIP3    H2 2568   1.366   6.607   6.620
  875TIP3   OH2 2569   4.818   7.062   4.089
  875TIP3    H1 2570   4.872   7.138   4.064
  875TIP3    H2 2571   4.729   7.096   4.095
  876TIP3   OH2 2572   2.885   4.789   2.916
  876TIP3    H1 2573   2.961   4.808   2.971
  876TIP3    H2 2574   2.812   4.831   2.962
  877TIP3   OH2 2575   4.207   6.943   5.994
  877TIP3    H1 2576   4.253   7.027   5.995
  877TIP3    H2 2577   4.182   6.928   6.086
  878TIP3   OH2 2578   3.919   3.815   4.066
  878TIP3    H1 2579   3.926   3.721   4.050
  878TIP3    H2 2580   3.857   3.846   4.001
  879TIP3   OH2 2581   6.230   1.562   2.471
  879TIP3    H1 2582   6.196   1.645   2.504
  879TIP3    H2 2583   6.317   1.583   2.436
  880TIP3   OH2 2584   4.840   6.257   1.954
  880TIP3    H1 2585   4.853   6.162   1.943
  880TIP3    H2 2586   4.795   6.266   2.038
  881TIP3   OH2 2587   2.155   6.461   3.758
  881TIP3    H1 2588   2.170   6.554   3.743
  881TIP3    H2 2589   2.173   6.420   3.673
  882TIP3   OH2 2590   4.827   4.259   4.424
  882TIP3    H1 2591   4.750   4.311   4.402
  882TIP3    H2 2592   4.857   4.294   4.508
  883TIP3   OH2 2593   3.533   6.760   4.799
  883TIP3    H1 2594   3.497   6.743   4.886
  883TIP3    H2 2595   3.477   6.829   4.763
  884TIP3   OH2 2596   6.025   2.743   3.327
  884TIP3    H1 2597   6.072   2.787   3.256
  884TIP3    H2 2598   6.000   2.814   3.386
  885TIP3   OH2 2599   6.215   2.698   0.636
  885TIP3    H1 2600   6.206   2.612   0.677
  885TIP3    H2 2601   6.307   2.722   0.649
  886TIP3   OH2 2602   6.131   7.509   4.700
  886TIP3    H1 2603   6.125   7.521   4.605
  886TIP3    H2 2604   6.152   7.596   4.734
  887TIP3   OH2 2605   5.107   0.337   0.619
  887TIP3    H1 2606   5.130   0.272   0.553
  887TIP3    H2 2607   5.030   0.381   0.583
  888TIP3   OH2 2608   3.883   2.172   3.973
  888TIP3    H1 2609   3.819   2.150   3.906
  888TIP3    H2 2610   3.832   2.209   4.045
  889TIP3   OH2 2611   4.591   2.192   3.962
  889TIP3    H1 2612   4.534   2.231   4.028
  889TIP3    H2 2613   4.557   2.223   3.878
  890TIP3   OH2 2614   5.239   0.232   1.095
  890TIP3    H1 2615   5.287   0.285   1.159
  890TIP3    H2 2616   5.203   0.296   1.034
  891TIP3   OH2 2617   3.440   1.068   3.946
  891TIP3    H1 2618   3.389   1.128   3.892
  891TIP3    H2 2619   3.404   0.982   3.928
  892TIP3   OH2 2620   5.130   3.460   1.167
  892TIP3    H1 2621   5.083   3.381   1.194
  892TIP3    H2 2622   5.077   3.495   1.095
  893TIP3   OH2 2623   5.413   1.877   4.813
  893TIP3    H1 2624   5.490   1.831   4.848
  893TIP3    H2 2625   5.423   1.871   4.718
  894TIP3   OH2 2626   3.132   3.928   2.406
  894TIP3    H1 2627   3.167   4.004   2.452
  894TIP3    H2 2628   3.208   3.871   2.393
  895TIP3   OH2 2629   7.554   2.348   6.503
  895TIP3    H1 2630   7.495   2.360   6.428
  895TIP3    H2 2631   7.505   2.383   6.578
  896TIP3   OH2 2632   1.387   7.789   4.412
  896TIP3    H1 2633   1.404   7.794   4.506
  896TIP3    H2 2634   1.385   7.880   4.383
  897TIP3   OH2 2635   4.797   0.398   1.913
  897TIP3    H1 2636   4.768   0.313   1.878
  897TIP3    H2 2637   4.842   0.440   1.841
  898TIP3   OH2 2638   4.650   4.343   4.108
  898TIP3    H1 2639   4.633   4.367   4.199
  898TIP3    H2 2640   4.728   4.393   4.085
  899TIP3   OH2 2641   6.067   4.604   0.320
  899TIP3    H1 2642   6.067   4.680   0.262
  899TIP3    H2 2643   5.997   4.622   0.383
  900TIP3   OH2 2644   7.096   2.749   2.652
  900TIP3    H1 2645   7.169   2.691   2.673
  900TIP3    H2 2646   7.097   2.816   2.720
  901TIP3   OH2 2647   1.699   7.691   1.564
  901TIP3    H1 2648   1.722   7.598   1.563
  901TIP3    H2 2649   1.613   7.694   1.604
  902TIP3   OH2 2650   3.402   4.540   5.169
  902TIP3    H1 2651   3.410   4.464   5.111
  902TIP3    H2 2652   3.324   4.586   5.137
  903TIP3   OH2 2653   1.481   5.255   1.682
  903TIP3    H1 2654   1.406   5.294   1.637
  903TIP3    H2 2655   1.515   5.191   1.619
  904TIP3   OH2 2656   7.323   3.520   6.300
  904TIP3    H1 2657   7.409   3.518   6.258
  904TIP3    H2 2658   7.262   3.493   6.231
  905TIP3   OH2 2659   1.583   1.231   2.749
  905TIP3    H1 2660   1.510   1.293   2.755
  905TIP3    H2 2661   1.646   1.274   2.691
  906TIP3   OH2 2662   3.633   0.494   0.197
  906TIP3    H1 2663   3.703   0.554   0.224
  906TIP3    H2 2664   3.552   0.541   0.217
  907TIP3   OH2 2665   8.024   5.656   6.550
  907TIP3    H1 2666   8.063   5.677   6.465
  907TIP3    H2 2667   7.984   5.738   6.579
  908TIP3   OH2 2668   3.940   4.813   6.156
  908TIP3    H1 2669   3.995   4.878   6.110
  908TIP3    H2 2670   3.999   4.740   6.173
  909TIP3   OH2 2671   3.395   4.161   1.975
  909TIP3    H1 2672   3.411   4.106   2.052
  909TIP3    H2 2673   3.445   4.120   1.905
  910TIP3   OH2 2674   4.138   0.324   1.130
  910TIP3    H1 2675   4.124   0.245   1.183
  910TIP3    H2 2676   4.063   0.380   1.150
  911TIP3   OH2 2677   3.382   5.910   1.242
  911TIP3    H1 2678   3.325   5.834   1.229
  911TIP3    H2 2679   3.396   5.914   1.336
  912TIP3   OH2 2680   7.288   3.618   5.781
  912TIP3    H1 2681   7.250   3.686   5.725
  912TIP3    H2 2682   7.253   3.637   5.869
  913TIP3   OH2 2683   8.212   0.510   1.696
  913TIP3    H1 2684   8.308   0.511   1.690
  913TIP3    H2 2685   8.188   0.421   1.671
  914TIP3   OH2 2686   5.843   6.684   2.178
  914TIP3    H1 2687   5.800   6.767   2.160
  914TIP3    H2 2688   5.834   6.635   2.096
  915TIP3   OH2 2689   2.692   3.712   1.850
  915TIP3    H1 2690   2.649   3.791   1.819
  915TIP3    H2 2691   2.777   3.712   1.806
  916TIP3   OH2 2692   2.076   1.773   0.392
  916TIP3    H1 2693   2.010   1.796   0.458
  916TIP3    H2 2694   2.027   1.769   0.310
  917TIP3   OH2 2695   7.749   0.698   4.990
  917TIP3    H1 2696   7.795   0.663   4.914
  917TIP3    H2 2697   7.804   0.674   5.065
  918TIP3   OH2 2698   1.079   1.974   5.237
  918TIP3    H1 2699   1.105   2.038   5.303
  918TIP3    H2 2700   1.002   1.931   5.275
  919TIP3   OH2 2701   6.489   4.784   2.553
  919TIP3    H1 2702   6.414   4.782   2.612
  919TIP3    H2 2703   6.467   4.721   2.484
  920TIP3   OH2 2704   0.540   6.509   0.827
  920TIP3    H1 2705   0.618   6.462   0.798
  920TIP3    H2 2706   0.531   6.486   0.920
  921TIP3   OH2 2707   5.330   1.618   5.295
  921TIP3    H1 2708   5.298   1.662   5.217
  921TIP3    H2 2709   5.250   1.589   5.340
  922TIP3   OH2 2710   0.895   3.088   5.058
  922TIP3    H1 2711   0.949   3.021   5.016
  922TIP3    H2 2712   0.879   3.152   4.988
  923TIP3   OH2 2713   4.082   3.426   3.789
  923TIP3    H1 2714   4.020   3.354   3.799
  923TIP3    H2 2715   4.128   3.406   3.707
  924TIP3   OH2 2716   7.532   3.432   2.679
  924TIP3    H1 2717   7.564   3.456   2.766
  924TIP3    H2 2718   7.609   3.397   2.634
  925TIP3   OH2 2719   6.022   3.891   0.920
  925TIP3    H1 2720   6.039   3.879   0.826
  925TIP3    H2 2721   6.093   3.948   0.950
  926TIP3   OH2 2722   2.480   6.848   2.248
  926TIP3    H1 2723   2.417   6.904   2.204
  926TIP3    H2 2724   2.507   6.898   2.326
  927TIP3   OH2 2725   6.016   6.839   3.768
  927TIP3    H1 2726   6.059   6.775   3.711
  927TIP3    H2 2727   5.923   6.818   3.761
  928TIP3   OH2 2728   5.359   0.571   3.049
  928TIP3    H1 2729   5.361   0.639   2.982
  928TIP3    H2 2730   5.341   0.490   3.001
  929TIP3   OH2 2731   5.936   6.051   2.824
  929TIP3    H1 2732   5.986   6.003   2.890
  929TIP3    H2 2733   5.894   5.983   2.771
  930TIP3   OH2 2734   0.768   3.509   2.769
  930TIP3    H1 2735   0.799   3.599   2.772
  930TIP3    H2 2736   0.688   3.509   2.821
  931TIP3   OH2 2737   0.128   4.699   6.786
  931TIP3    H1 2738   0.150   4.697   6.693
  931TIP3    H2 2739   0.167   4.781   6.818
  932TIP3   OH2 2740   5.408   1.008   5.807
  932TIP3    H1 2741   5.384   0.962   5.887
  932TIP3    H2 2742   5.382   0.948   5.737
  933TIP3   OH2 2743   2.416   4.180   5.518
  933TIP3    H1 2744   2.469   4.157   5.442
  933TIP3    H2 2745   2.349   4.239   5.483
  934TIP3   OH2 2746   5.995   7.624   1.807
  934TIP3    H1 2747   5.996   7.717   1.785
  934TIP3    H2 2748   6.028   7.620   1.897
  935TIP3   OH2 2749   1.733   3.910   6.222
  935TIP3    H1 2750   1.652   3.860   6.209
  935TIP3    H2 2751   1.803   3.847   6.204
  936TIP3   OH2 2752   2.549   2.649   2.242
  936TIP3    H1 2753   2.525   2.739   2.262
  936TIP3    H2 2754   2.606   2.655   2.166
  937TIP3   OH2 2755   4.945   0.059   6.462
  937TIP3    H1 2756   4.855   0.052   6.495
  937TIP3    H2 2757   4.947  -0.002   6.388
  938TIP3   OH2 2758   2.011   3.454   2.165
  938TIP3    H1 2759   2.105   3.445   2.177
  938TIP3    H2 2760   2.001   3.479   2.073
  939TIP3   OH2 2761   7.386   2.319   3.572
  939TIP3    H1 2762   7.404   2.242   3.626
  939TIP3    H2 2763   7.363   2.283   3.487
  940TIP3   OH2 2764   2.892   2.835   1.973
  940TIP3    H1 2765   2.886   2.784   2.054
  940TIP3    H2 2766   2.967   2.799   1.927
  941TIP3   OH2 2767   4.380   1.035   4.556
  941TIP3    H1 2768   4.369   0.966   4.622
  941TIP3    H2 2769   4.305   1.023   4.498
  942TIP3   OH2 2770   2.058   6.727   1.970
  942TIP3    H1 2771   2.048   6.632   1.976
  942TIP3    H2 2772   2.135   6.739   1.914
  943TIP3   OH2 2773   5.924   2.214   5.205
  943TIP3    H1 2774   5.987   2.143   5.215
  943TIP3    H2 2775   5.877   2.194   5.124
  944TIP3   OH2 2776   4.543   1.856   0.620
  944TIP3    H1 2777   4.512   1.940   0.587
  944TIP3    H2 2778   4.536   1.863   0.715
  945TIP3   OH2 2779   6.936   1.834   3.124
  945TIP3    H1 2780   6.934   1.833   3.220
  945TIP3    H2 2781   7.026   1.810   3.102
  946TIP3   OH2 2782   4.142   7.692   5.005
  946TIP3    H1 2783   4.065   7.636   5.018
  946TIP3    H2 2784   4.216   7.637   5.030
  947TIP3   OH2 2785   6.730   4.335   2.505
  947TIP3    H1 2786   6.722   4.428   2.526
  947TIP3    H2 2787   6.821   4.324   2.478
  948TIP3   OH2 2788   6.117   6.091   2.209
  948TIP3    H1 2789   6.055   6.163   2.207
  948TIP3    H2 2790   6.198   6.129   2.245
  949TIP3   OH2 2791   7.465   3.288   3.795
  949TIP3    H1 2792   7.383   3.253   3.761
  949TIP3    H2 2793   7.528   3.278   3.723
  950TIP3   OH2 2794   4.865   7.057   4.954
  950TIP3    H1 2795   4.917   7.058   5.035
  950TIP3    H2 2796   4.784   7.013   4.978
  951TIP3   OH2 2797   5.117   6.315   1.557
  951TIP3    H1 2798   5.052   6.297   1.624
  951TIP3    H2 2799   5.108   6.408   1.539
  952TIP3   OH2 2800   5.497   5.405   3.833
  952TIP3    H1 2801   5.414   5.433   3.871
  952TIP3    H2 2802   5.518   5.323   3.878
  953TIP3   OH2 2803   5.602   7.297   6.252
  953TIP3    H1 2804   5.522   7.263   6.293
  953TIP3    H2 2805   5.659   7.319   6.325
  954TIP3   OH2 2806   2.264   7.601   4.531
  954TIP3    H1 2807   2.320   7.671   4.564
  954TIP3    H2 2808   2.317   7.522   4.539
  955TIP3   OH2 2809   2.090   5.813   4.056
  955TIP3    H1 2810   2.035   5.861   4.119
  955TIP3    H2 2811   2.179   5.823   4.090
  956TIP3   OH2 2812   3.070   5.813   4.783
  956TIP3    H1 2813   2.979   5.785   4.781
  956TIP3    H2 2814   3.084   5.842   4.873
  957TIP3   OH2 2815   2.678   2.906   6.253
  957TIP3    H1 2816   2.658   2.997   6.272
  957TIP3    H2 2817   2.760   2.889   6.300
  958TIP3   OH2 2818   7.837   1.959   5.647
  958TIP3    H1 2819   7.751   1.921   5.662
  958TIP3    H2 2820   7.820   2.051   5.626
  959TIP3   OH2 2821   1.189   3.869   5.525
  959TIP3    H1 2822   1.132   3.810   5.575
  959TIP3    H2 2823   1.150   3.872   5.438
  960TIP3   OH2 2824   6.931   2.382   6.204
  960TIP3    H1 2825   7.001   2.438   6.237
  960TIP3    H2 2826   6.976   2.306   6.167
  961TIP3   OH2 2827   5.504   4.405   3.229
  961TIP3    H1 2828   5.565   4.382   3.299
  961TIP3    H2 2829   5.426   4.438   3.275
  962TIP3   OH2 2830   8.217   3.349   5.407
  962TIP3    H1 2831   8.258   3.423   5.362
  962TIP3    H2 2832   8.249   3.272   5.359
  963TIP3   OH2 2833   1.144   1.009   5.770
  963TIP3    H1 2834   1.187   0.977   5.690
  963TIP3    H2 2835   1.070   1.060   5.738
  964TIP3   OH2 2836   0.979   6.355   1.441
  964TIP3    H1 2837   0.955   6.445   1.464
  964TIP3    H2 2838   0.902   6.303   1.461
  965TIP3   OH2 2839   8.019   7.418   2.841
  965TIP3    H1 2840   8.052   7.349   2.898
  965TIP3    H2 2841   8.060   7.400   2.756
  966TIP3   OH2 2842   4.219   2.403   1.261
  966TIP3    H1 2843   4.218   2.389   1.356
  966TIP3    H2 2844   4.150   2.346   1.227
  967TIP3   OH2 2845   7.019   5.718   3.738
  967TIP3    H1 2846   7.093   5.775   3.758
  967TIP3    H2 2847   7.016   5.714   3.642
  968TIP3   OH2 2848   4.768   4.761   2.349
  968TIP3    H1 2849   4.764   4.777   2.443
  968TIP3    H2 2850   4.676   4.757   2.321
  969TIP3   OH2 2851   7.512   4.798   5.893
  969TIP3    H1 2852   7.449   4.869   5.903
  969TIP3    H2 2853   7.523   4.788   5.798
  970TIP3   OH2 2854   0.126   4.118   0.695
  970TIP3    H1 2855   0.204   4.137   0.747
  970TIP3    H2 2856   0.160   4.084   0.613
  971TIP3   OH2 2857   2.946   4.722   1.836
  971TIP3    H1 2858   3.003   4.782   1.885
  971TIP3    H2 2859   2.860   4.765   1.838
  972TIP3   OH2 2860   6.522   7.171   0.957
  972TIP3    H1 2861   6.579   7.246   0.938
  972TIP3    H2 2862   6.499   7.135   0.872
  973TIP3   OH2 2863   5.450   6.935   1.906
  973TIP3    H1 2864   5.496   6.902   1.829
  973TIP3    H2 2865   5.425   7.025   1.883
  974TIP3   OH2 2866   0.854   2.457   1.978
  974TIP3    H1 2867   0.934   2.425   2.019
  974TIP3    H2 2868   0.786   2.396   2.007
  975TIP3   OH2 2869   2.294   5.990   0.960
  975TIP3    H1 2870   2.349   5.916   0.986
  975TIP3    H2 2871   2.239   6.007   1.036
  976TIP3   OH2 2872   0.820   0.051   4.848
  976TIP3    H1 2873   0.740   0.021   4.805
  976TIP3    H2 2874   0.814   0.016   4.937
  977TIP3   OH2 2875   1.597   2.385   2.116
  977TIP3    H1 2876   1.527   2.338   2.070
  977TIP3    H2 2877   1.659   2.408   2.048
  978TIP3   OH2 2878   7.655   6.385   5.112
  978TIP3    H1 2879   7.625   6.303   5.073
  978TIP3    H2 2880   7.605   6.392   5.194
  979TIP3   OH2 2881   5.433   6.846   0.052
  979TIP3    H1 2882   5.341   6.838   0.078
  979TIP3    H2 2883   5.437   6.927   0.001
  980TIP3   OH2 2884   3.346   6.314   1.458
  980TIP3    H1 2885   3.384   6.392   1.497
  980TIP3    H2 2886   3.301   6.271   1.531
  981TIP3   OH2 2887   0.629   1.191   5.589
  981TIP3    H1 2888   0.571   1.244   5.644
  981TIP3    H2 2889   0.630   1.237   5.505
  982TIP3   OH2 2890   5.687   4.404   1.926
  982TIP3    H1 2891   5.773   4.436   1.898
  982TIP3    H2 2892   5.685   4.313   1.896
  983TIP3   OH2 2893   0.081   1.264   1.550
  983TIP3    H1 2894   0.059   1.171   1.543
  983TIP3    H2 2895   0.036   1.304   1.476
  984TIP3   OH2 2896   5.288   0.263   0.077
  984TIP3    H1 2897   5.249   0.349   0.062
  984TIP3    H2 2898   5.382   0.280   0.083
  985TIP3   OH2 2899   6.789   4.224   5.315
  985TIP3    H1 2900   6.827   4.142   5.346
  985TIP3    H2 2901   6.857   4.264   5.261
  986TIP3   OH2 2902   7.068   1.271   2.555
  986TIP3    H1 2903   7.147   1.266   2.502
  986TIP3    H2 2904   7.082   1.347   2.612
  987TIP3   OH2 2905   0.387   7.561   0.247
  987TIP3    H1 2906   0.297   7.566   0.215
  987TIP3    H2 2907   0.385   7.492   0.313
  988TIP3   OH2 2908   7.069   3.811   6.287
  988TIP3    H1 2909   7.043   3.728   6.326
  988TIP3    H2 2910   7.050   3.876   6.355
  989TIP3   OH2 2911   5.844   4.190   5.488
  989TIP3    H1 2912   5.913   4.136   5.525
  989TIP3    H2 2913   5.766   4.167   5.538
  990TIP3   OH2 2914   0.261   6.157   5.560
  990TIP3    H1 2915   0.338   6.165   5.504
  990TIP3    H2 2916   0.271   6.071   5.602
  991TIP3   OH2 2917   3.420   2.247   0.441
  991TIP3    H1 2918   3.425   2.188   0.517
  991TIP3    H2 2919   3.353   2.312   0.466
  992TIP3   OH2 2920   0.134   7.015   2.387
  992TIP3    H1 2921   0.120   7.077   2.316
  992TIP3    H2 2922   0.066   6.949   2.375
  993TIP3   OH2 2923   4.765   0.847   5.374
  993TIP3    H1 2924   4.795   0.781   5.437
  993TIP3    H2 2925   4.845   0.875   5.330
  994TIP3   OH2 2926   5.905   3.969   4.227
  994TIP3    H1 2927   5.865   4.030   4.289
  994TIP3    H2 2928   5.836   3.950   4.163
  995TIP3   OH2 2929   0.741   4.630   3.507
  995TIP3    H1 2930   0.718   4.565   3.441
  995TIP3    H2 2931   0.658   4.674   3.527
  996TIP3   OH2 2932   7.471   0.236   1.156
  996TIP3    H1 2933   7.481   0.169   1.223
  996TIP3    H2 2934   7.407   0.199   1.095
  997TIP3   OH2 2935   6.598   7.494   0.095
  997TIP3    H1 2936   6.649   7.464   0.020
  997TIP3    H2 2937   6.564   7.580   0.069
  998TIP3   OH2 2938   3.453   1.041   4.617
  998TIP3    H1 2939   3.517   1.006   4.679
  998TIP3    H2 2940   3.504   1.064   4.540
  999TIP3   OH2 2941   3.146   6.787   3.662
  999TIP3    H1 2942   3.147   6.720   3.730
  999TIP3    H2 2943   3.160   6.739   3.580
 1000TIP3   OH2 2944   8.100   6.107   0.240
 1000TIP3    H1 2945   8.019   6.061   0.217
 1000TIP3    H2 2946   8.169   6.058   0.196
 1001TIP3   OH2 2947   6.539   5.891   4.006
 1001TIP3    H1 2948   6.609   5.836   3.972
 1001TIP3    H2 2949   6.481   5.906   3.931
 1002TIP3   OH2 2950   7.340   3.098   5.522
 1002TIP3    H1 2951   7.318   3.179   5.568
 1002TIP3    H2 2952   7.257   3.068   5.485
 1003TIP3   OH2 2953   1.893   2.804   5.693
 1003TIP3    H1 2954   1.899   2.777   5.785
 1003TIP3    H2 2955   1.876   2.898   5.697
 1004TIP3   OH2 2956   4.692   0.103   5.850
 1004TIP3    H1 2957   4.614   0.116   5.797
 1004TIP3    H2 2958   4.707   0.009   5.849
 1005TIP3   OH2 2959   3.753   3.399   5.667
 1005TIP3    H1 2960   3.808   3.417   5.743
 1005TIP3    H2 2961   3.743   3.484   5.624
 1006TIP3   OH2 2962   4.848   4.673   2.000
 1006TIP3    H1 2963   4.871   4.762   2.026
 1006TIP3    H2 2964   4.920   4.645   1.943
 1007TIP3   OH2 2965   4.759   5.985   5.423
 1007TIP3    H1 2966   4.777   5.984   5.329
 1007TIP3    H2 2967   4.835   6.028   5.461
 1008TIP3   OH2 2968   6.860   6.516   3.507
 1008TIP3    H1 2969   6.785   6.554   3.552
 1008TIP3    H2 2970   6.861   6.559   3.421
 1009TIP3   OH2 2971   6.565   4.238   1.703
 1009TIP3    H1 2972   6.546   4.328   1.675
 1009TIP3    H2 2973   6.594   4.194   1.624
 1010TIP3   OH2 2974   2.118   0.260   2.502
 1010TIP3    H1 2975   2.156   0.172   2.510
 1010TIP3    H2 2976   2.079   0.261   2.414
 1011TIP3   OH2 2977   3.379   3.684   2.015
 1011TIP3    H1 2978   3.313   3.741   2.054
 1011TIP3    H2 2979   3.332   3.637   1.946
 1012TIP3   OH2 2980   2.037   7.337   6.407
 1012TIP3    H1 2981   1.973   7.348   6.477
 1012TIP3    H2 2982   2.089   7.417   6.409
 1013TIP3   OH2 2983   2.916   5.451   1.957
 1013TIP3    H1 2984   2.887   5.386   2.020
 1013TIP3    H2 2985   2.916   5.405   1.873
 1014TIP3   OH2 2986   6.391   7.333  -0.051
 1014TIP3    H1 2987   6.334   7.403  -0.018
 1014TIP3    H2 2988   6.433   7.297   0.027
 1015TIP3   OH2 2989   2.524   2.429   6.242
 1015TIP3    H1 2990   2.591   2.478   6.195
 1015TIP3    H2 2991   2.534   2.457   6.333
 1016TIP3   OH2 2992   3.548   0.813   3.581
 1016TIP3    H1 2993   3.506   0.761   3.649
 1016TIP3    H2 2994   3.622   0.854   3.625
 1017TIP3   OH2 2995   1.220   0.262   5.264
 1017TIP3    H1 2996   1.171   0.217   5.332
 1017TIP3    H2 2997   1.312   0.248   5.287
 1018TIP3   OH2 2998   5.429   4.578   0.854
 1018TIP3    H1 2999   5.424   4.498   0.802
 1018TIP3    H2 3000   5.341   4.588   0.891
 1019TIP3   OH2 3001   2.301   3.783   6.772
 1019TIP3    H1 3002   2.311   3.798   6.866
 1019TIP3    H2 3003   2.294   3.870   6.734
 1020TIP3   OH2 3004   2.780   5.274   2.530
 1020TIP3    H1 3005   2.733   5.210   2.584
 1020TIP3    H2 3006   2.789   5.350   2.587
 1021TIP3   OH2 3007   1.874   4.074   2.111
 1021TIP3    H1 3008   1.923   3.996   2.134
 1021TIP3    H2 3009   1.818   4.091   2.187
 1022TIP3   OH2 3010   7.409   3.425   4.931
 1022TIP3    H1 3011   7.443   3.345   4.971
 1022TIP3    H2 3012   7.316   3.407   4.916
 1023TIP3   OH2 3013   7.240   1.324   0.489
 1023TIP3    H1 3014   7.264   1.335   0.397
 1023TIP3    H2 3015   7.212   1.411   0.517
 1024TIP3   OH2 3016   3.680   3.769   4.311
 1024TIP3    H1 3017   3.642   3.796   4.228
 1024TIP3    H2 3018   3.742   3.700   4.288
 1025TIP3   OH2 3019   3.250   3.309   1.240
 1025TIP3    H1 3020   3.263   3.393   1.285
 1025TIP3    H2 3021   3.164   3.316   1.200
 1026TIP3   OH2 3022   4.407   6.190   1.820
 1026TIP3    H1 3023   4.428   6.261   1.880
 1026TIP3    H2 3024   4.461   6.116   1.850
 1027TIP3   OH2 3025   5.547   2.314   0.119
 1027TIP3    H1 3026   5.491   2.392   0.113
 1027TIP3    H2 3027   5.488   2.241   0.098
 1028TIP3   OH2 3028   7.432   5.980   6.364
 1028TIP3    H1 3029   7.489   5.902   6.367
 1028TIP3    H2 3030   7.343   5.944   6.363
 1029TIP3   OH2 3031   3.686   7.318   2.775
 1029TIP3    H1 3032   3.593   7.323   2.756
 1029TIP3    H2 3033   3.729   7.332   2.690
 1030TIP3   OH2 3034   6.454   3.068   5.567
 1030TIP3    H1 3035   6.462   3.145   5.623
 1030TIP3    H2 3036   6.369   3.030   5.591
 1031TIP3   OH2 3037   3.509   3.967   0.976
 1031TIP3    H1 3038   3.569   4.034   1.009
 1031TIP3    H2 3039   3.472   4.005   0.896
 1032TIP3   OH2 3040   3.290   1.711   5.489
 1032TIP3    H1 3041   3.270   1.803   5.505
 1032TIP3    H2 3042   3.205   1.668   5.488
 1033TIP3   OH2 3043   5.425   1.206   0.296
 1033TIP3    H1 3044   5.467   1.133   0.251
 1033TIP3    H2 3045   5.491   1.275   0.298
 1034TIP3   OH2 3046   6.262   2.903   4.568
 1034TIP3    H1 3047   6.351   2.939   4.567
 1034TIP3    H2 3048   6.206   2.981   4.563
 1035TIP3   OH2 3049   0.921   3.453   0.366
 1035TIP3    H1 3050   0.904   3.425   0.456
 1035TIP3    H2 3051   0.875   3.536   0.357
 1036TIP3   OH2 3052   5.148   2.335   0.453
 1036TIP3    H1 3053   5.061   2.300   0.473
 1036TIP3    H2 3054   5.195   2.261   0.414
 1037TIP3   OH2 3055   7.989   5.722   3.163
 1037TIP3    H1 3056   7.965   5.709   3.255
 1037TIP3    H2 3057   8.084   5.730   3.164
 1038TIP3   OH2 3058   3.321   2.808   3.352
 1038TIP3    H1 3059   3.291   2.721   3.379
 1038TIP3    H2 3060   3.285   2.820   3.264
 1039TIP3   OH2 3061   3.665   3.846   4.886
 1039TIP3    H1 3062   3.618   3.765   4.868
 1039TIP3    H2 3063   3.632   3.874   4.972
 1040TIP3   OH2 3064   7.157   5.305   1.234
 1040TIP3    H1 3065   7.173   5.365   1.161
 1040TIP3    H2 3066   7.206   5.342   1.307
 1041TIP3   OH2 3067   7.261   3.291   0.394
 1041TIP3    H1 3068   7.231   3.375   0.360
 1041TIP3    H2 3069   7.197   3.269   0.463
 1042TIP3   OH2 3070   2.064   6.412   0.650
 1042TIP3    H1 3071   2.122   6.366   0.710
 1042TIP3    H2 3072   2.026   6.342   0.596
 1043TIP3   OH2 3073   4.795   2.795   4.321
 1043TIP3    H1 3074   4.805   2.851   4.398
 1043TIP3    H2 3075   4.785   2.856   4.248
 1044TIP3   OH2 3076   1.570   2.478   1.093
 1044TIP3    H1 3077   1.542   2.557   1.139
 1044TIP3    H2 3078   1.621   2.429   1.157
 1045TIP3   OH2 3079   3.136   3.033   2.181
 1045TIP3    H1 3080   3.049   3.072   2.166
 1045TIP3    H2 3081   3.193   3.077   2.119
 1046TIP3   OH2 3082   7.911   2.591   2.537
 1046TIP3    H1 3083   7.888   2.564   2.626
 1046TIP3    H2 3084   7.873   2.523   2.481
 1047TIP3   OH2 3085   4.744   4.180   4.831
 1047TIP3    H1 3086   4.802   4.171   4.907
 1047TIP3    H2 3087   4.771   4.110   4.772
 1048TIP3   OH2 3088   4.849   5.803   6.291
 1048TIP3    H1 3089   4.881   5.856   6.217
 1048TIP3    H2 3090   4.763   5.774   6.263
 1049TIP3   OH2 3091   1.612   6.661   4.284
 1049TIP3    H1 3092   1.518   6.644   4.271
 1049TIP3    H2 3093   1.653   6.633   4.203
 1050TIP3   OH2 3094   7.635   2.061   3.491
 1050TIP3    H1 3095   7.613   2.137   3.437
 1050TIP3    H2 3096   7.585   1.989   3.451
 1051TIP3   OH2 3097   1.620   0.325   0.463
 1051TIP3    H1 3098   1.713   0.304   0.455
 1051TIP3    H2 3099   1.608   0.402   0.408
 1052TIP3   OH2 3100   6.800   2.236   3.733
 1052TIP3    H1 3101   6.735   2.206   3.797
 1052TIP3    H2 3102   6.853   2.158   3.715
 1053TIP3   OH2 3103   3.336   1.432   2.619
 1053TIP3    H1 3104   3.260   1.373   2.625
 1053TIP3    H2 3105   3.310   1.510   2.667
 1054TIP3   OH2 3106   6.871   0.209   0.359
 1054TIP3    H1 3107   6.942   0.273   0.351
 1054TIP3    H2 3108   6.855   0.201   0.453
 1055TIP3   OH2 3109   3.946   3.467   5.832
 1055TIP3    H1 3110   3.971   3.407   5.903
 1055TIP3    H2 3111   4.020   3.463   5.771
 1056TIP3   OH2 3112   5.218   5.304   2.680
 1056TIP3    H1 3113   5.221   5.282   2.773
 1056TIP3    H2 3114   5.310   5.318   2.656
 1057TIP3   OH2 3115   7.003   3.222   3.039
 1057TIP3    H1 3116   7.017   3.136   3.079
 1057TIP3    H2 3117   6.947   3.205   2.964
 1058TIP3   OH2 3118   4.013   2.481   4.645
 1058TIP3    H1 3119   3.972   2.402   4.678
 1058TIP3    H2 3120   3.943   2.546   4.644
 1059TIP3   OH2 3121   2.422   4.405   6.276
 1059TIP3    H1 3122   2.349   4.398   6.338
 1059TIP3    H2 3123   2.461   4.490   6.295
 1060TIP3   OH2 3124   5.670   2.008   2.319
 1060TIP3    H1 3125   5.663   2.102   2.303
 1060TIP3    H2 3126   5.591   1.986   2.368
 1061TIP3   OH2 3127   1.362   0.627   2.103
 1061TIP3    H1 3128   1.336   0.685   2.031
 1061TIP3    H2 3129   1.336   0.539   2.073
 1062TIP3   OH2 3130   5.662   6.566   1.591
 1062TIP3    H1 3131   5.745   6.531   1.557
 1062TIP3    H2 3132   5.687   6.607   1.674
 1063TIP3   OH2 3133   8.164   7.271   6.768
 1063TIP3    H1 3134   8.183   7.333   6.698
 1063TIP3    H2 3135   8.206   7.308   6.845
 1064TIP3   OH2 3136   2.197   2.863   5.924
 1064TIP3    H1 3137   2.244   2.788   5.959
 1064TIP3    H2 3138   2.131   2.826   5.866
 1065TIP3   OH2 3139   6.040   3.844   4.689
 1065TIP3    H1 3140   5.994   3.924   4.664
 1065TIP3    H2 3141   6.007   3.778   4.628
 1066TIP3   OH2 3142   6.170   2.068   1.290
 1066TIP3    H1 3143   6.253   2.041   1.331
 1066TIP3    H2 3144   6.117   1.989   1.290
 1067TIP3   OH2 3145   1.695   5.971   3.617
 1067TIP3    H1 3146   1.764   6.037   3.608
 1067TIP3    H2 3147   1.627   5.999   3.556
 1068TIP3   OH2 3148   8.006   6.127   3.447
 1068TIP3    H1 3149   8.035   6.118   3.538
 1068TIP3    H2 3150   8.087   6.133   3.397
 1069TIP3   OH2 3151   1.235   2.448   5.496
 1069TIP3    H1 3152   1.283   2.419   5.573
 1069TIP3    H2 3153   1.209   2.538   5.515
 1070TIP3   OH2 3154   1.123   6.879   1.553
 1070TIP3    H1 3155   1.196   6.913   1.501
 1070TIP3    H2 3156   1.046   6.924   1.517
 1071TIP3   OH2 3157   3.904   2.717   4.592
 1071TIP3    H1 3158   3.941   2.801   4.564
 1071TIP3    H2 3159   3.810   2.734   4.601
 1072TIP3   OH2 3160   5.774   6.903   5.187
 1072TIP3    H1 3161   5.827   6.857   5.252
 1072TIP3    H2 3162   5.731   6.973   5.236
 1073TIP3   OH2 3163   8.014   1.580   2.845
 1073TIP3    H1 3164   8.100   1.605   2.813
 1073TIP3    H2 3165   8.010   1.615   2.935
 1074TIP3   OH2 3166   8.219   1.817   2.081
 1074TIP3    H1 3167   8.129   1.846   2.098
 1074TIP3    H2 3168   8.221   1.797   1.988
 1075TIP3   OH2 3169   6.111   2.715   1.009
 1075TIP3    H1 3170   6.140   2.624   1.021
 1075TIP3    H2 3171   6.173   2.753   0.948
 1076TIP3   OH2 3172   8.028   5.238   5.726
 1076TIP3    H1 3173   8.013   5.285   5.644
 1076TIP3    H2 3174   7.947   5.250   5.776
 1077TIP3   OH2 3175   6.200   7.348   2.489
 1077TIP3    H1 3176   6.235   7.378   2.572
 1077TIP3    H2 3177   6.272   7.360   2.427
 1078TIP3   OH2 3178   5.701   5.823   1.504
 1078TIP3    H1 3179   5.610   5.851   1.496
 1078TIP3    H2 3180   5.720   5.781   1.420
 1079TIP3   OH2 3181   6.137   6.445   2.667
 1079TIP3    H1 3182   6.074   6.402   2.725
 1079TIP3    H2 3183   6.095   6.528   2.644
 1080TIP3   OH2 3184   0.885   3.633   5.388
 1080TIP3    H1 3185   0.934   3.696   5.335
 1080TIP3    H2 3186   0.818   3.600   5.329
 1081TIP3   OH2 3187   3.956   4.929   0.916
 1081TIP3    H1 3188   3.904   4.849   0.911
 1081TIP3    H2 3189   3.911   4.983   0.981
 1082TIP3   OH2 3190   3.089   1.156   5.632
 1082TIP3    H1 3191   3.111   1.247   5.654
 1082TIP3    H2 3192   3.032   1.127   5.703
 1083TIP3   OH2 3193   0.441   1.247   4.023
 1083TIP3    H1 3194   0.469   1.282   3.939
 1083TIP3    H2 3195   0.399   1.320   4.067
 1084TIP3   OH2 3196   7.754   4.686   5.085
 1084TIP3    H1 3197   7.821   4.650   5.026
 1084TIP3    H2 3198   7.786   4.665   5.173
 1085TIP3   OH2 3199   7.410   3.439   3.152
 1085TIP3    H1 3200   7.401   3.534   3.144
 1085TIP3    H2 3201   7.326   3.410   3.188
 1086TIP3   OH2 3202   4.501   2.662   6.602
 1086TIP3    H1 3203   4.475   2.684   6.513
 1086TIP3    H2 3204   4.469   2.735   6.655
 1087TIP3   OH2 3205   7.682   0.193   1.864
 1087TIP3    H1 3206   7.668   0.112   1.913
 1087TIP3    H2 3207   7.617   0.253   1.899
 1088TIP3   OH2 3208   7.810   3.338   6.297
 1088TIP3    H1 3209   7.813   3.433   6.311
 1088TIP3    H2 3210   7.862   3.325   6.217
 1089TIP3   OH2 3211   1.672   3.182   0.856
 1089TIP3    H1 3212   1.613   3.111   0.882
 1089TIP3    H2 3213   1.639   3.210   0.771
 1090TIP3   OH2 3214   3.981   4.033   3.713
 1090TIP3    H1 3215   4.049   4.027   3.780
 1090TIP3    H2 3216   4.002   3.962   3.652
 1091TIP3   OH2 3217   3.841   5.676   3.191
 1091TIP3    H1 3218   3.751   5.671   3.225
 1091TIP3    H2 3219   3.892   5.715   3.261
 1092TIP3   OH2 3220   4.376   0.128   5.963
 1092TIP3    H1 3221   4.399   0.038   5.989
 1092TIP3    H2 3222   4.427   0.143   5.883
 1093TIP3   OH2 3223   7.483   6.151   3.631
 1093TIP3    H1 3224   7.389   6.162   3.645
 1093TIP3    H2 3225   7.525   6.210   3.694
 1094TIP3   OH2 3226   5.973   0.470   3.192
 1094TIP3    H1 3227   5.991   0.396   3.133
 1094TIP3    H2 3228   5.888   0.449   3.231
 1095TIP3   OH2 3229   7.160   7.422   5.664
 1095TIP3    H1 3230   7.172   7.330   5.641
 1095TIP3    H2 3231   7.246   7.462   5.647
 1096TIP3   OH2 3232   4.632   7.490   0.603
 1096TIP3    H1 3233   4.701   7.530   0.657
 1096TIP3    H2 3234   4.654   7.514   0.513
 1097TIP3   OH2 3235   4.384   4.509   2.623
 1097TIP3    H1 3236   4.382   4.427   2.574
 1097TIP3    H2 3237   4.334   4.571   2.569
 1098TIP3   OH2 3238   6.833   4.314   4.129
 1098TIP3    H1 3239   6.746   4.344   4.102
 1098TIP3    H2 3240   6.891   4.385   4.105
 1099TIP3   OH2 3241   1.844   5.662   4.715
 1099TIP3    H1 3242   1.915   5.659   4.651
 1099TIP3    H2 3243   1.790   5.585   4.694
 1100TIP3   OH2 3244   1.868   3.154   6.714
 1100TIP3    H1 3245   1.784   3.147   6.758
 1100TIP3    H2 3246   1.887   3.065   6.685
 1101TIP3   OH2 3247   7.629   0.917   1.846
 1101TIP3    H1 3248   7.636   0.952   1.757
 1101TIP3    H2 3249   7.588   0.988   1.896
 1102TIP3   OH2 3250   0.237   7.629   6.285
 1102TIP3    H1 3251   0.209   7.719   6.268
 1102TIP3    H2 3252   0.248   7.590   6.198
 1103TIP3   OH2 3253   3.727   1.505   6.074
 1103TIP3    H1 3254   3.784   1.542   6.006
 1103TIP3    H2 3255   3.669   1.445   6.027
 1104TIP3   OH2 3256   6.446   4.949   0.909
 1104TIP3    H1 3257   6.434   4.854   0.906
 1104TIP3    H2 3258   6.357   4.984   0.917
 1105TIP3   OH2 3259   2.320   6.900   0.112
 1105TIP3    H1 3260   2.237   6.912   0.067
 1105TIP3    H2 3261   2.371   6.843   0.055
 1106TIP3   OH2 3262   7.715   4.502   6.318
 1106TIP3    H1 3263   7.689   4.578   6.265
 1106TIP3    H2 3264   7.797   4.473   6.278
 1107TIP3   OH2 3265   6.454   4.536   6.227
 1107TIP3    H1 3266   6.544   4.563   6.248
 1107TIP3    H2 3267   6.434   4.467   6.290
 1108TIP3   OH2 3268   2.051   6.894   3.356
 1108TIP3    H1 3269   2.083   6.922   3.270
 1108TIP3    H2 3270   2.004   6.970   3.390
 1109TIP3   OH2 3271   1.779   3.661   0.761
 1109TIP3    H1 3272   1.721   3.605   0.709
 1109TIP3    H2 3273   1.867   3.626   0.745
 1110TIP3   OH2 3274   1.614   2.757   1.777
 1110TIP3    H1 3275   1.548   2.689   1.771
 1110TIP3    H2 3276   1.582   2.816   1.845
 1111TIP3   OH2 3277   5.429   0.667   6.278
 1111TIP3    H1 3278   5.455   0.589   6.230
 1111TIP3    H2 3279   5.444   0.739   6.217
 1112TIP3   OH2 3280   1.340   0.720   4.622
 1112TIP3    H1 3281   1.260   0.668   4.631
 1112TIP3    H2 3282   1.354   0.759   4.708
 1113TIP3   OH2 3283   7.259   3.918   0.482
 1113TIP3    H1 3284   7.286   4.005   0.511
 1113TIP3    H2 3285   7.339   3.877   0.450
 1114TIP3   OH2 3286   2.520   4.231   2.388
 1114TIP3    H1 3287   2.498   4.139   2.404
 1114TIP3    H2 3288   2.497   4.276   2.470
 1115TIP3   OH2 3289   1.317   6.059   6.464
 1115TIP3    H1 3290   1.350   6.012   6.541
 1115TIP3    H2 3291   1.372   6.137   6.457
 1116TIP3   OH2 3292   2.633   4.099   3.746
 1116TIP3    H1 3293   2.625   4.192   3.726
 1116TIP3    H2 3294   2.647   4.095   3.840
 1117TIP3   OH2 3295   3.245   1.748   6.090
 1117TIP3    H1 3296   3.276   1.812   6.026
 1117TIP3    H2 3297   3.325   1.714   6.131
 1118TIP3   OH2 3298   2.440   6.477   5.918
 1118TIP3    H1 3299   2.389   6.520   5.986
 1118TIP3    H2 3300   2.531   6.481   5.949
 1119TIP3   OH2 3301   1.059   4.050   3.123
 1119TIP3    H1 3302   1.045   4.022   3.033
 1119TIP3    H2 3303   1.127   4.117   3.118
 1120TIP3   OH2 3304   5.899   0.996   5.513
 1120TIP3    H1 3305   5.829   1.044   5.556
 1120TIP3    H2 3306   5.950   0.959   5.584
 1121TIP3   OH2 3307   3.416   3.460   2.492
 1121TIP3    H1 3308   3.472   3.425   2.422
 1121TIP3    H2 3309   3.476   3.485   2.562
 1122TIP3   OH2 3310   0.299   6.757   5.264
 1122TIP3    H1 3311   0.227   6.744   5.325
 1122TIP3    H2 3312   0.376   6.771   5.320
 1123TIP3   OH2 3313   6.430   4.540   3.059
 1123TIP3    H1 3314   6.501   4.587   3.016
 1123TIP3    H2 3315   6.469   4.503   3.138
 1124TIP3   OH2 3316   4.645   2.527   4.201
 1124TIP3    H1 3317   4.664   2.436   4.222
 1124TIP3    H2 3318   4.600   2.524   4.116
 1125TIP3   OH2 3319   6.563   3.622   3.351
 1125TIP3    H1 3320   6.523   3.539   3.378
 1125TIP3    H2 3321   6.649   3.621   3.392
 1126TIP3   OH2 3322   2.794   4.106   4.216
 1126TIP3    H1 3323   2.774   4.167   4.146
 1126TIP3    H2 3324   2.877   4.066   4.191
 1127TIP3   OH2 3325   4.203   6.023   3.477
 1127TIP3    H1 3326   4.223   5.969   3.553
 1127TIP3    H2 3327   4.127   6.075   3.504
 1128TIP3   OH2 3328   5.743   6.916   2.227
 1128TIP3    H1 3329   5.647   6.919   2.233
 1128TIP3    H2 3330   5.768   7.007   2.213
 1129TIP3   OH2 3331   2.928   1.350   1.532
 1129TIP3    H1 3332   3.017   1.353   1.496
 1129TIP3    H2 3333   2.894   1.438   1.519
 1130TIP3   OH2 3334   0.976   0.664   2.978
 1130TIP3    H1 3335   0.923   0.625   3.048
 1130TIP3    H2 3336   0.913   0.712   2.925
 1131TIP3   OH2 3337   6.786   7.257   4.882
 1131TIP3    H1 3338   6.843   7.248   4.806
 1131TIP3    H2 3339   6.837   7.310   4.943
 1132TIP3   OH2 3340   7.997   4.283   6.076
 1132TIP3    H1 3341   7.904   4.286   6.050
 1132TIP3    H2 3342   7.999   4.327   6.161
 1133TIP3   OH2 3343   0.371   1.370   1.543
 1133TIP3    H1 3344   0.303   1.302   1.545
 1133TIP3    H2 3345   0.417   1.356   1.460
 1134TIP3   OH2 3346   7.255   0.205   0.502
 1134TIP3    H1 3347   7.269   0.291   0.542
 1134TIP3    H2 3348   7.342   0.174   0.480
 1135TIP3   OH2 3349   7.681   2.060   1.822
 1135TIP3    H1 3350   7.646   2.066   1.911
 1135TIP3    H2 3351   7.752   2.124   1.821
 1136TIP3   OH2 3352   5.801   0.885   6.718
 1136TIP3    H1 3353   5.763   0.924   6.797
 1136TIP3    H2 3354   5.800   0.791   6.735
 1137TIP3   OH2 3355   3.526   7.054   2.691
 1137TIP3    H1 3356   3.590   7.004   2.741
 1137TIP3    H2 3357   3.458   7.076   2.755
 1138TIP3   OH2 3358   4.143   3.532   6.437
 1138TIP3    H1 3359   4.155   3.476   6.514
 1138TIP3    H2 3360   4.221   3.588   6.435
 1139TIP3   OH2 3361   1.970   7.026   4.413
 1139TIP3    H1 3362   2.045   7.083   4.394
 1139TIP3    H2 3363   1.898   7.065   4.364
 1140TIP3   OH2 3364   4.551   6.422   4.044
 1140TIP3    H1 3365   4.509   6.379   4.118
 1140TIP3    H2 3366   4.568   6.511   4.075
 1141TIP3   OH2 3367   7.218   3.369   5.221
 1141TIP3    H1 3368   7.256   3.436   5.164
 1141TIP3    H2 3369   7.224   3.406   5.309
 1142TIP3   OH2 3370   2.823   6.351   4.810
 1142TIP3    H1 3371   2.833   6.445   4.796
 1142TIP3    H2 3372   2.900   6.326   4.862
 1143TIP3   OH2 3373   5.176   2.659   0.149
 1143TIP3    H1 3374   5.095   2.699   0.180
 1143TIP3    H2 3375   5.223   2.730   0.106
 1144TIP3   OH2 3376   4.892   4.330   3.503
 1144TIP3    H1 3377   4.850   4.336   3.589
 1144TIP3    H2 3378   4.938   4.414   3.493
 1145TIP3   OH2 3379   3.885   4.009   6.699
 1145TIP3    H1 3380   3.843   4.012   6.785
 1145TIP3    H2 3381   3.897   3.916   6.681
 1146TIP3   OH2 3382   1.678   5.119   5.302
 1146TIP3    H1 3383   1.744   5.154   5.361
 1146TIP3    H2 3384   1.713   5.035   5.272
 1147TIP3   OH2 3385   4.431   0.156   0.115
 1147TIP3    H1 3386   4.512   0.104   0.116
 1147TIP3    H2 3387   4.365   0.099   0.153
 1148TIP3   OH2 3388   3.597   5.081   3.247
 1148TIP3    H1 3389   3.614   5.124   3.331
 1148TIP3    H2 3390   3.508   5.047   3.255
 1149TIP3   OH2 3391   2.013   1.718   4.957
 1149TIP3    H1 3392   1.978   1.651   4.900
 1149TIP3    H2 3393   1.937   1.753   5.004
 1150TIP3   OH2 3394   1.106   4.991   4.820
 1150TIP3    H1 3395   1.019   4.953   4.807
 1150TIP3    H2 3396   1.107   5.018   4.912
 1151TIP3   OH2 3397   0.275   5.789   0.050
 1151TIP3    H1 3398   0.204   5.731   0.023
 1151TIP3    H2 3399   0.331   5.735   0.106
 1152TIP3   OH2 3400   4.266   2.255   2.682
 1152TIP3    H1 3401   4.246   2.244   2.589
 1152TIP3    H2 3402   4.310   2.173   2.706
 1153TIP3   OH2 3403   5.717   5.877   3.814
 1153TIP3    H1 3404   5.640   5.823   3.798
 1153TIP3    H2 3405   5.694   5.931   3.890
 1154TIP3   OH2 3406   6.909   1.801   5.252
 1154TIP3    H1 3407   6.850   1.730   5.227
 1154TIP3    H2 3408   6.910   1.800   5.348
 1155TIP3   OH2 3409   8.137   7.036   6.195
 1155TIP3    H1 3410   8.206   7.000   6.139
 1155TIP3    H2 3411   8.072   6.966   6.200
 1156TIP3   OH2 3412   0.155   1.363   2.046
 1156TIP3    H1 3413   0.093   1.413   2.099
 1156TIP3    H2 3414   0.163   1.279   2.091
 1157TIP3   OH2 3415   3.717   4.172   0.631
 1157TIP3    H1 3416   3.716   4.199   0.539
 1157TIP3    H2 3417   3.633   4.202   0.665
 1158TIP3   OH2 3418   3.521   1.532   5.617
 1158TIP3    H1 3419   3.443   1.578   5.586
 1158TIP3    H2 3420   3.523   1.450   5.567
 1159TIP3   OH2 3421   5.818   7.389   3.751
 1159TIP3    H1 3422   5.895   7.336   3.772
 1159TIP3    H2 3423   5.782   7.348   3.672
 1160TIP3   OH2 3424   1.947   6.459   2.699
 1160TIP3    H1 3425   2.013   6.524   2.720
 1160TIP3    H2 3426   1.995   6.376   2.692
 1161TIP3   OH2 3427   7.377   2.458   1.522
 1161TIP3    H1 3428   7.449   2.416   1.570
 1161TIP3    H2 3429   7.399   2.445   1.430
 1162TIP3   OH2 3430   5.596   0.765   0.583
 1162TIP3    H1 3431   5.567   0.801   0.499
 1162TIP3    H2 3432   5.538   0.690   0.598
 1163TIP3   OH2 3433   5.404   6.906   6.512
 1163TIP3    H1 3434   5.372   6.860   6.589
 1163TIP3    H2 3435   5.487   6.861   6.491
 1164TIP3   OH2 3436   7.327   0.754   0.731
 1164TIP3    H1 3437   7.352   0.842   0.703
 1164TIP3    H2 3438   7.280   0.768   0.813
 1165TIP3   OH2 3439   2.487   2.413   4.681
 1165TIP3    H1 3440   2.429   2.488   4.670
 1165TIP3    H2 3441   2.429   2.340   4.699
 1166TIP3   OH2 3442   4.238   2.591   3.226
 1166TIP3    H1 3443   4.230   2.642   3.145
 1166TIP3    H2 3444   4.190   2.510   3.209
 1167TIP3   OH2 3445   6.702   0.628   3.212
 1167TIP3    H1 3446   6.654   0.665   3.138
 1167TIP3    H2 3447   6.651   0.553   3.240
 1168TIP3   OH2 3448   0.496   7.547   2.806
 1168TIP3    H1 3449   0.523   7.478   2.866
 1168TIP3    H2 3450   0.449   7.610   2.861
 1169TIP3   OH2 3451   7.330   5.750   1.684
 1169TIP3    H1 3452   7.341   5.746   1.779
 1169TIP3    H2 3453   7.321   5.659   1.656
 1170TIP3   OH2 3454   3.813   1.778   5.451
 1170TIP3    H1 3455   3.781   1.732   5.529
 1170TIP3    H2 3456   3.735   1.819   5.414
 1171TIP3   OH2 3457   4.893   5.402   4.063
 1171TIP3    H1 3458   4.839   5.477   4.037
 1171TIP3    H2 3459   4.878   5.338   3.993
 1172TIP3   OH2 3460   3.922   0.315   3.218
 1172TIP3    H1 3461   3.950   0.224   3.227
 1172TIP3    H2 3462   3.829   0.314   3.242
 1173TIP3   OH2 3463   7.861   1.679   5.838
 1173TIP3    H1 3464   7.834   1.704   5.750
 1173TIP3    H2 3465   7.890   1.588   5.829
 1174TIP3   OH2 3466   0.680   4.632   2.816
 1174TIP3    H1 3467   0.594   4.607   2.780
 1174TIP3    H2 3468   0.698   4.565   2.882
 1175TIP3   OH2 3469   3.432   6.861   1.753
 1175TIP3    H1 3470   3.395   6.901   1.674
 1175TIP3    H2 3471   3.364   6.802   1.784
 1176TIP3   OH2 3472   6.965   5.990   2.086
 1176TIP3    H1 3473   6.920   5.982   2.170
 1176TIP3    H2 3474   7.057   6.004   2.109
 1177TIP3   OH2 3475   7.580   5.082   5.768
 1177TIP3    H1 3476   7.522   5.015   5.730
 1177TIP3    H2 3477   7.553   5.087   5.860
 1178TIP3   OH2 3478   3.401   2.803   4.288
 1178TIP3    H1 3479   3.385   2.761   4.373
 1178TIP3    H2 3480   3.470   2.867   4.306
 1179TIP3   OH2 3481   6.545   1.771   6.711
 1179TIP3    H1 3482   6.482   1.714   6.667
 1179TIP3    H2 3483   6.622   1.770   6.654
 1180TIP3   OH2 3484   0.133   5.880   2.399
 1180TIP3    H1 3485   0.215   5.929   2.399
 1180TIP3    H2 3486   0.093   5.900   2.484
 1181TIP3   OH2 3487   6.011   4.838   6.316
 1181TIP3    H1 3488   6.096   4.828   6.273
 1181TIP3    H2 3489   5.958   4.889   6.255
 1182TIP3   OH2 3490   6.393   5.736   3.456
 1182TIP3    H1 3491   6.347   5.679   3.517
 1182TIP3    H2 3492   6.435   5.802   3.511
 1183TIP3   OH2 3493   4.390   1.909   6.573
 1183TIP3    H1 3494   4.312   1.952   6.607
 1183TIP3    H2 3495   4.362   1.872   6.489
 1184TIP3   OH2 3496   1.727   6.562   2.965
 1184TIP3    H1 3497   1.786   6.638   2.966
 1184TIP3    H2 3498   1.784   6.488   2.945
 1185TIP3   OH2 3499   4.930   1.900   5.754
 1185TIP3    H1 3500   4.906   1.859   5.837
 1185TIP3    H2 3501   4.869   1.863   5.690
 1186TIP3   OH2 3502   4.482   1.168   6.271
 1186TIP3    H1 3503   4.420   1.240   6.261
 1186TIP3    H2 3504   4.447   1.116   6.343
 1187TIP3   OH2 3505   3.886   5.361   4.135
 1187TIP3    H1 3506   3.803   5.400   4.107
 1187TIP3    H2 3507   3.900   5.397   4.223
 1188TIP3   OH2 3508   2.716   2.930   3.243
 1188TIP3    H1 3509   2.759   2.846   3.226
 1188TIP3    H2 3510   2.689   2.961   3.156
 1189TIP3   OH2 3511   4.321   2.954   5.476
 1189TIP3    H1 3512   4.378   2.986   5.546
 1189TIP3    H2 3513   4.235   2.948   5.517
 1190TIP3   OH2 3514   7.747   5.539   3.285
 1190TIP3    H1 3515   7.823   5.562   3.338
 1190TIP3    H2 3516   7.728   5.617   3.234
 1191TIP3   OH2 3517   6.544   0.304   0.802
 1191TIP3    H1 3518   6.607   0.374   0.819
 1191TIP3    H2 3519   6.544   0.293   0.707
 1192TIP3   OH2 3520   5.481   3.763   4.892
 1192TIP3    H1 3521   5.385   3.770   4.886
 1192TIP3    H2 3522   5.511   3.782   4.804
 1193TIP3   OH2 3523   3.180   4.083   2.613
 1193TIP3    H1 3524   3.265   4.067   2.654
 1193TIP3    H2 3525   3.120   4.020   2.654
 1194TIP3   OH2 3526   1.683   6.249   4.040
 1194TIP3    H1 3527   1.650   6.169   4.000
 1194TIP3    H2 3528   1.775   6.252   4.015
 1195TIP3   OH2 3529   4.399   6.402   2.671
 1195TIP3    H1 3530   4.437   6.437   2.591
 1195TIP3    H2 3531   4.356   6.321   2.644
 1196TIP3   OH2 3532   1.980   0.243   3.138
 1196TIP3    H1 3533   1.980   0.199   3.223
 1196TIP3    H2 3534   2.047   0.197   3.087
 1197TIP3   OH2 3535   1.022   4.285   5.945
 1197TIP3    H1 3536   0.981   4.330   6.018
 1197TIP3    H2 3537   1.081   4.350   5.907
 1198TIP3   OH2 3538   1.719   3.719   2.153
 1198TIP3    H1 3539   1.761   3.712   2.067
 1198TIP3    H2 3540   1.678   3.806   2.152
 1199TIP3   OH2 3541   1.334   3.291   2.082
 1199TIP3    H1 3542   1.267   3.312   2.018
 1199TIP3    H2 3543   1.402   3.246   2.031
 1200TIP3   OH2 3544   0.761   0.932   3.723
 1200TIP3    H1 3545   0.768   1.025   3.702
 1200TIP3    H2 3546   0.774   0.927   3.818
 1201TIP3   OH2 3547   1.164   6.168   1.303
 1201TIP3    H1 3548   1.103   6.233   1.339
 1201TIP3    H2 3549   1.116   6.085   1.310
 1202TIP3   OH2 3550   4.037   0.259   6.781
 1202TIP3    H1 3551   3.994   0.333   6.739
 1202TIP3    H2 3552   4.088   0.218   6.712
 1203TIP3   OH2 3553   1.344   4.864   2.041
 1203TIP3    H1 3554   1.353   4.771   2.017
 1203TIP3    H2 3555   1.302   4.904   1.965
 1204TIP3   OH2 3556   3.846   5.049   4.670
 1204TIP3    H1 3557   3.846   5.130   4.620
 1204TIP3    H2 3558   3.905   5.066   4.744
 1205TIP3   OH2 3559   0.553   6.189   3.943
 1205TIP3    H1 3560   0.638   6.211   3.981
 1205TIP3    H2 3561   0.574   6.150   3.858
 1206TIP3   OH2 3562   3.496   7.053   2.433
 1206TIP3    H1 3563   3.528   7.055   2.524
 1206TIP3    H2 3564   3.403   7.032   2.441
 1207TIP3   OH2 3565   6.532   2.165   6.694
 1207TIP3    H1 3566   6.505   2.182   6.604
 1207TIP3    H2 3567   6.461   2.114   6.732
 1208TIP3   OH2 3568   7.453   2.952   5.131
 1208TIP3    H1 3569   7.506   2.948   5.211
 1208TIP3    H2 3570   7.367   2.982   5.161
 1209TIP3   OH2 3571   2.370   5.773   6.802
 1209TIP3    H1 3572   2.395   5.855   6.845
 1209TIP3    H2 3573   2.327   5.801   6.721
 1210TIP3   OH2 3574   0.009   4.076   1.521
 1210TIP3    H1 3575   0.020   4.069   1.616
 1210TIP3    H2 3576  -0.010   4.169   1.506
 1211TIP3   OH2 3577   2.210   3.419   1.813
 1211TIP3    H1 3578   2.119   3.410   1.785
 1211TIP3    H2 3579   2.210   3.392   1.905
 1212TIP3   OH2 3580   1.383   1.081   0.190
 1212TIP3    H1 3581   1.310   1.030   0.226
 1212TIP3    H2 3582   1.461   1.034   0.220
 1213TIP3   OH2 3583   4.548   0.671   0.988
 1213TIP3    H1 3584   4.584   0.750   1.027
 1213TIP3    H2 3585   4.513   0.621   1.062
 1214TIP3   OH2 3586   4.550   0.846   3.230
 1214TIP3    H1 3587   4.558   0.927   3.180
 1214TIP3    H2 3588   4.616   0.788   3.193
 1215TIP3   OH2 3589   6.402   4.677   1.183
 1215TIP3    H1 3590   6.405   4.675   1.087
 1215TIP3    H2 3591   6.361   4.594   1.207
 1216TIP3   OH2 3592   2.013   0.093   3.951
 1216TIP3    H1 3593   2.025   0.052   4.037
 1216TIP3    H2 3594   1.965   0.027   3.900
 1217TIP3   OH2 3595   7.830   2.645   3.587
 1217TIP3    H1 3596   7.812   2.554   3.562
 1217TIP3    H2 3597   7.814   2.695   3.506
 1218TIP3   OH2 3598   7.013   1.293   6.705
 1218TIP3    H1 3599   6.963   1.331   6.776
 1218TIP3    H2 3600   7.087   1.352   6.693
 1219TIP3   OH2 3601   1.892   5.727   2.700
 1219TIP3    H1 3602   1.933   5.812   2.685
 1219TIP3    H2 3603   1.867   5.697   2.613
 1220TIP3   OH2 3604   6.154   6.804   4.381
 1220TIP3    H1 3605   6.124   6.803   4.472
 1220TIP3    H2 3606   6.168   6.896   4.361
 1221TIP3   OH2 3607   1.683   6.104   1.556
 1221TIP3    H1 3608   1.698   6.065   1.470
 1221TIP3    H2 3609   1.597   6.147   1.547
 1222TIP3   OH2 3610   5.802   3.068   5.977
 1222TIP3    H1 3611   5.768   3.141   6.028
 1222TIP3    H2 3612   5.735   3.053   5.910
 1223TIP3   OH2 3613   4.233   6.969   3.284
 1223TIP3    H1 3614   4.213   6.962   3.377
 1223TIP3    H2 3615   4.147   6.971   3.241
 1224TIP3   OH2 3616   0.956   5.199   6.289
 1224TIP3    H1 3617   0.930   5.172   6.201
 1224TIP3    H2 3618   0.888   5.260   6.317
 1225TIP3   OH2 3619   1.346   2.690   2.502
 1225TIP3    H1 3620   1.418   2.650   2.451
 1225TIP3    H2 3621   1.268   2.675   2.448
 1226TIP3   OH2 3622   0.915   0.952   5.150
 1226TIP3    H1 3623   0.958   0.937   5.235
 1226TIP3    H2 3624   0.909   1.047   5.143
 1227TIP3   OH2 3625   4.345   4.984   2.592
 1227TIP3    H1 3626   4.363   4.902   2.546
 1227TIP3    H2 3627   4.250   4.997   2.583
 1228TIP3   OH2 3628   0.229   2.121   1.505
 1228TIP3    H1 3629   0.141   2.137   1.470
 1228TIP3    H2 3630   0.237   2.026   1.508
 1229TIP3   OH2 3631   3.218   6.983   2.443
 1229TIP3    H1 3632   3.144   6.936   2.482
 1229TIP3    H2 3633   3.179   7.061   2.403
 1230TIP3   OH2 3634   6.432   0.073   6.525
 1230TIP3    H1 3635   6.351   0.021   6.526
 1230TIP3    H2 3636   6.483   0.040   6.599
 1231TIP3   OH2 3637   4.577   0.183   1.476
 1231TIP3    H1 3638   4.626   0.102   1.467
 1231TIP3    H2 3639   4.629   0.248   1.429
 1232TIP3   OH2 3640   3.159   3.711   1.075
 1232TIP3    H1 3641   3.147   3.620   1.104
 1232TIP3    H2 3642   3.211   3.703   0.995
 1233TIP3   OH2 3643   3.412   5.398   2.091
 1233TIP3    H1 3644   3.416   5.482   2.138
 1233TIP3    H2 3645   3.343   5.411   2.026
 1234TIP3   OH2 3646   7.629   7.698   2.061
 1234TIP3    H1 3647   7.707   7.643   2.068
 1234TIP3    H2 3648   7.652   7.764   1.995
 1235TIP3   OH2 3649   4.130   2.858   6.232
 1235TIP3    H1 3650   4.147   2.788   6.168
 1235TIP3    H2 3651   4.190   2.928   6.207
 1236TIP3   OH2 3652   3.227   4.671   1.381
 1236TIP3    H1 3653   3.138   4.689   1.410
 1236TIP3    H2 3654   3.246   4.584   1.415
 1237TIP3   OH2 3655   3.567   1.353   2.176
 1237TIP3    H1 3656   3.478   1.331   2.149
 1237TIP3    H2 3657   3.582   1.300   2.254
 1238TIP3   OH2 3658   1.652   0.947   0.592
 1238TIP3    H1 3659   1.705   0.905   0.660
 1238TIP3    H2 3660   1.681   1.039   0.592
 1239TIP3   OH2 3661   7.199   2.309   3.169
 1239TIP3    H1 3662   7.249   2.391   3.160
 1239TIP3    H2 3663   7.147   2.322   3.248
 1240TIP3   OH2 3664   1.949   5.330   2.458
 1240TIP3    H1 3665   2.042   5.319   2.476
 1240TIP3    H2 3666   1.918   5.391   2.525
 1241TIP3   OH2 3667   6.358   6.172   2.319
 1241TIP3    H1 3668   6.357   6.267   2.336
 1241TIP3    H2 3669   6.433   6.140   2.369
 1242TIP3   OH2 3670   5.982   4.575   5.196
 1242TIP3    H1 3671   5.949   4.625   5.270
 1242TIP3    H2 3672   6.070   4.549   5.222
 1243TIP3   OH2 3673   4.754   7.425   1.384
 1243TIP3    H1 3674   4.694   7.482   1.336
 1243TIP3    H2 3675   4.827   7.412   1.323
 1244TIP3   OH2 3676   1.843   4.103   0.544
 1244TIP3    H1 3677   1.903   4.169   0.577
 1244TIP3    H2 3678   1.891   4.020   0.553
 1245TIP3   OH2 3679   2.214   6.851   4.867
 1245TIP3    H1 3680   2.285   6.788   4.856
 1245TIP3    H2 3681   2.237   6.898   4.948
 1246TIP3   OH2 3682   3.107   1.607   1.802
 1246TIP3    H1 3683   3.025   1.570   1.771
 1246TIP3    H2 3684   3.170   1.587   1.732
 1247TIP3   OH2 3685   7.639   0.572   3.974
 1247TIP3    H1 3686   7.722   0.529   3.950
 1247TIP3    H2 3687   7.577   0.543   3.907
 1248TIP3   OH2 3688   4.242   4.410   0.677
 1248TIP3    H1 3689   4.221   4.321   0.705
 1248TIP3    H2 3690   4.320   4.401   0.623
 1249TIP3   OH2 3691   7.230   5.723   4.041
 1249TIP3    H1 3692   7.238   5.799   3.985
 1249TIP3    H2 3693   7.290   5.658   4.004
 1250TIP3   OH2 3694   4.158   0.455   3.376
 1250TIP3    H1 3695   4.206   0.372   3.374
 1250TIP3    H2 3696   4.082   0.438   3.432
 1251TIP3   OH2 3697   3.511   1.833   0.413
 1251TIP3    H1 3698   3.529   1.752   0.461
 1251TIP3    H2 3699   3.506   1.900   0.481
 1252TIP3   OH2 3700   2.830   6.728   4.258
 1252TIP3    H1 3701   2.898   6.719   4.191
 1252TIP3    H2 3702   2.767   6.789   4.220
 1253TIP3   OH2 3703   2.912   2.094   0.208
 1253TIP3    H1 3704   2.830   2.089   0.258
 1253TIP3    H2 3705   2.961   2.166   0.248
 1254TIP3   OH2 3706   4.757   2.126   4.457
 1254TIP3    H1 3707   4.737   2.157   4.369
 1254TIP3    H2 3708   4.704   2.047   4.468
 1255TIP3   OH2 3709   0.400   5.643   0.826
 1255TIP3    H1 3710   0.360   5.561   0.797
 1255TIP3    H2 3711   0.381   5.706   0.756
 1256TIP3   OH2 3712   8.016   6.658   1.070
 1256TIP3    H1 3713   8.080   6.631   1.004
 1256TIP3    H2 3714   7.959   6.582   1.080
 1257TIP3   OH2 3715   7.053   2.589   5.312
 1257TIP3    H1 3716   6.961   2.615   5.303
 1257TIP3    H2 3717   7.056   2.501   5.274
 1258TIP3   OH2 3718   4.662   7.161   6.555
 1258TIP3    H1 3719   4.576   7.132   6.586
 1258TIP3    H2 3720   4.698   7.210   6.629
 1259TIP3   OH2 3721   1.833   1.147   0.857
 1259TIP3    H1 3722   1.767   1.187   0.913
 1259TIP3    H2 3723   1.835   1.055   0.883
 1260TIP3   OH2 3724   0.284   0.629   6.418
 1260TIP3    H1 3725   0.298   0.545   6.374
 1260TIP3    H2 3726   0.354   0.634   6.483
 1261TIP3   OH2 3727   2.122   1.670   3.122
 1261TIP3    H1 3728   2.051   1.669   3.186
 1261TIP3    H2 3729   2.133   1.578   3.097
 1262TIP3   OH2 3730   6.081   6.940   6.633
 1262TIP3    H1 3731   6.105   7.020   6.586
 1262TIP3    H2 3732   6.158   6.919   6.686
 1263TIP3   OH2 3733   5.837   5.251   3.970
 1263TIP3    H1 3734   5.746   5.223   3.981
 1263TIP3    H2 3735   5.888   5.182   4.013
 1264TIP3   OH2 3736   0.553   0.044   6.374
 1264TIP3    H1 3737   0.564   0.100   6.298
 1264TIP3    H2 3738   0.496   0.095   6.433
 1265TIP3   OH2 3739   5.209   3.413   6.704
 1265TIP3    H1 3740   5.178   3.341   6.759
 1265TIP3    H2 3741   5.270   3.372   6.643
 1266TIP3   OH2 3742   8.186   5.287   4.264
 1266TIP3    H1 3743   8.207   5.356   4.326
 1266TIP3    H2 3744   8.246   5.301   4.190
 1267TIP3   OH2 3745   4.100   3.537   1.539
 1267TIP3    H1 3746   4.078   3.532   1.446
 1267TIP3    H2 3747   4.024   3.579   1.579
 1268TIP3   OH2 3748   5.141   3.933   3.287
 1268TIP3    H1 3749   5.180   3.859   3.335
 1268TIP3    H2 3750   5.216   3.987   3.261
 1269TIP3   OH2 3751   3.291   7.602   4.031
 1269TIP3    H1 3752   3.334   7.518   4.051
 1269TIP3    H2 3753   3.346   7.667   4.075
 1270TIP3   OH2 3754   2.945   4.639   4.201
 1270TIP3    H1 3755   2.988   4.583   4.265
 1270TIP3    H2 3756   2.889   4.697   4.252
 1271TIP3   OH2 3757   4.219   1.763   6.057
 1271TIP3    H1 3758   4.150   1.705   6.088
 1271TIP3    H2 3759   4.189   1.851   6.078
 1272TIP3   OH2 3760   5.758   6.464   6.506
 1272TIP3    H1 3761   5.810   6.529   6.459
 1272TIP3    H2 3762   5.824   6.402   6.540
 1273TIP3   OH2 3763   0.518   5.939   2.773
 1273TIP3    H1 3764   0.459   5.865   2.759
 1273TIP3    H2 3765   0.507   5.994   2.695
 1274TIP3   OH2 3766   3.180   1.205   0.161
 1274TIP3    H1 3767   3.250   1.191   0.098
 1274TIP3    H2 3768   3.100   1.183   0.113
 1275TIP3   OH2 3769   3.594   4.867   2.892
 1275TIP3    H1 3770   3.516   4.914   2.923
 1275TIP3    H2 3771   3.638   4.929   2.834
 1276TIP3   OH2 3772   6.387   2.015   3.918
 1276TIP3    H1 3773   6.445   2.040   3.989
 1276TIP3    H2 3774   6.307   2.066   3.933
 1277TIP3   OH2 3775   1.180   7.723   2.357
 1277TIP3    H1 3776   1.225   7.802   2.387
 1277TIP3    H2 3777   1.087   7.741   2.371
 1278TIP3   OH2 3778   6.271   3.978   0.911
 1278TIP3    H1 3779   6.326   3.990   0.834
 1278TIP3    H2 3780   6.266   4.065   0.951
 1279TIP3   OH2 3781   7.118   4.955   3.060
 1279TIP3    H1 3782   7.192   4.906   3.094
 1279TIP3    H2 3783   7.157   5.020   3.001
 1280TIP3   OH2 3784   5.489   6.134   5.947
 1280TIP3    H1 3785   5.443   6.163   6.026
 1280TIP3    H2 3786   5.428   6.073   5.905
 1281TIP3   OH2 3787   1.593   0.515   0.702
 1281TIP3    H1 3788   1.638   0.537   0.621
 1281TIP3    H2 3789   1.556   0.598   0.732
 1282TIP3   OH2 3790   0.674   5.622   4.329
 1282TIP3    H1 3791   0.734   5.547   4.336
 1282TIP3    H2 3792   0.613   5.610   4.402
 1283TIP3   OH2 3793   2.641   0.267   1.080
 1283TIP3    H1 3794   2.705   0.317   1.029
 1283TIP3    H2 3795   2.566   0.326   1.090
 1284TIP3   OH2 3796   6.201   7.276   4.853
 1284TIP3    H1 3797   6.191   7.335   4.927
 1284TIP3    H2 3798   6.240   7.330   4.784
 1285TIP3   OH2 3799   5.084   1.884   2.637
 1285TIP3    H1 3800   5.040   1.943   2.575
 1285TIP3    H2 3801   5.113   1.941   2.707
 1286TIP3   OH2 3802   5.540   6.740   4.822
 1286TIP3    H1 3803   5.517   6.787   4.742
 1286TIP3    H2 3804   5.624   6.778   4.848
 1287TIP3   OH2 3805   5.635   3.494   4.420
 1287TIP3    H1 3806   5.701   3.530   4.481
 1287TIP3    H2 3807   5.559   3.552   4.431
 1288TIP3   OH2 3808   2.180   4.259   1.586
 1288TIP3    H1 3809   2.112   4.249   1.654
 1288TIP3    H2 3810   2.227   4.176   1.587
 1289TIP3   OH2 3811   7.879   3.738   0.619
 1289TIP3    H1 3812   7.789   3.754   0.592
 1289TIP3    H2 3813   7.871   3.689   0.701
 1290TIP3   OH2 3814   0.286   5.166   1.095
 1290TIP3    H1 3815   0.371   5.123   1.086
 1290TIP3    H2 3816   0.307   5.258   1.110
 1291TIP3   OH2 3817   6.927   0.815   4.447
 1291TIP3    H1 3818   7.015   0.815   4.408
 1291TIP3    H2 3819   6.943   0.826   4.541
 1292TIP3   OH2 3820   3.556   5.428   0.785
 1292TIP3    H1 3821   3.614   5.472   0.848
 1292TIP3    H2 3822   3.502   5.498   0.749
 1293TIP3   OH2 3823   5.541   2.315   2.887
 1293TIP3    H1 3824   5.547   2.305   2.792
 1293TIP3    H2 3825   5.614   2.372   2.911
 1294TIP3   OH2 3826   0.529   1.896   5.536
 1294TIP3    H1 3827   0.499   1.890   5.445
 1294TIP3    H2 3828   0.564   1.809   5.555
 1295TIP3   OH2 3829   4.597   7.538   5.770
 1295TIP3    H1 3830   4.686   7.510   5.754
 1295TIP3    H2 3831   4.550   7.517   5.689
 1296TIP3   OH2 3832   2.631   6.896   5.863
 1296TIP3    H1 3833   2.597   6.822   5.812
 1296TIP3    H2 3834   2.666   6.956   5.797
 1297TIP3   OH2 3835   8.115   2.785   0.810
 1297TIP3    H1 3836   8.095   2.794   0.717
 1297TIP3    H2 3837   8.041   2.734   0.845
 1298TIP3   OH2 3838   7.572   5.301   1.729
 1298TIP3    H1 3839   7.514   5.225   1.733
 1298TIP3    H2 3840   7.646   5.277   1.785
 1299TIP3   OH2 3841   6.808   3.638   4.350
 1299TIP3    H1 3842   6.776   3.683   4.272
 1299TIP3    H2 3843   6.847   3.707   4.403
 1300TIP3   OH2 3844   3.515   7.602   0.620
 1300TIP3    H1 3845   3.603   7.566   0.611
 1300TIP3    H2 3846   3.506   7.622   0.713
 1301TIP3   OH2 3847   6.896   7.444   1.237
 1301TIP3    H1 3848   6.928   7.502   1.167
 1301TIP3    H2 3849   6.969   7.383   1.252
 1302TIP3   OH2 3850   4.229   5.878   3.823
 1302TIP3    H1 3851   4.225   5.783   3.834
 1302TIP3    H2 3852   4.323   5.897   3.814
 1303TIP3   OH2 3853   1.132   0.314   1.318
 1303TIP3    H1 3854   1.175   0.364   1.387
 1303TIP3    H2 3855   1.141   0.223   1.346
 1304TIP3   OH2 3856   6.825   6.382   2.670
 1304TIP3    H1 3857   6.915   6.405   2.694
 1304TIP3    H2 3858   6.791   6.335   2.746
 1305TIP3   OH2 3859   7.905   3.989   2.926
 1305TIP3    H1 3860   7.869   3.947   2.848
 1305TIP3    H2 3861   7.929   4.077   2.897
 1306TIP3   OH2 3862   4.045   1.147   0.633
 1306TIP3    H1 3863   4.076   1.233   0.605
 1306TIP3    H2 3864   4.100   1.126   0.709
 1307TIP3   OH2 3865   7.781   3.275   4.878
 1307TIP3    H1 3866   7.780   3.227   4.960
 1307TIP3    H2 3867   7.723   3.349   4.893
 1308TIP3   OH2 3868   4.393   4.064   3.919
 1308TIP3    H1 3869   4.312   4.015   3.937
 1308TIP3    H2 3870   4.451   4.000   3.879
 1309TIP3   OH2 3871   5.232   0.013   6.438
 1309TIP3    H1 3872   5.239   0.108   6.442
 1309TIP3    H2 3873   5.301  -0.019   6.495
 1310TIP3   OH2 3874   2.070   2.266   0.943
 1310TIP3    H1 3875   2.140   2.201   0.947
 1310TIP3    H2 3876   2.115   2.350   0.944
 1311TIP3   OH2 3877   4.308   0.138   1.587
 1311TIP3    H1 3878   4.302   0.053   1.631
 1311TIP3    H2 3879   4.392   0.136   1.542
 1312TIP3   OH2 3880   0.365   5.999   1.905
 1312TIP3    H1 3881   0.321   6.083   1.923
 1312TIP3    H2 3882   0.458   6.022   1.897
 1313TIP3   OH2 3883   6.194   6.797   6.210
 1313TIP3    H1 3884   6.274   6.817   6.161
 1313TIP3    H2 3885   6.185   6.869   6.272
 1314TIP3   OH2 3886   4.850   3.092   6.373
 1314TIP3    H1 3887   4.903   3.087   6.453
 1314TIP3    H2 3888   4.901   3.044   6.308
 1315TIP3   OH2 3889   1.814   7.114   3.121
 1315TIP3    H1 3890   1.802   7.202   3.086
 1315TIP3    H2 3891   1.738   7.064   3.089
 1316TIP3   OH2 3892   7.130   0.932   3.970
 1316TIP3    H1 3893   7.057   0.940   4.032
 1316TIP3    H2 3894   7.126   1.012   3.918
 1317TIP3   OH2 3895   5.655   3.982   5.393
 1317TIP3    H1 3896   5.645   4.056   5.454
 1317TIP3    H2 3897   5.621   3.907   5.442
 1318TIP3   OH2 3898   3.442   4.279   2.301
 1318TIP3    H1 3899   3.470   4.238   2.383
 1318TIP3    H2 3900   3.451   4.209   2.236
 1319TIP3   OH2 3901   5.557   4.654   5.015
 1319TIP3    H1 3902   5.582   4.646   5.107
 1319TIP3    H2 3903   5.463   4.638   5.014
 1320TIP3   OH2 3904   0.498   4.911   0.566
 1320TIP3    H1 3905   0.479   4.916   0.660
 1320TIP3    H2 3906   0.569   4.847   0.559
 1321TIP3   OH2 3907   5.255   7.867   5.955
 1321TIP3    H1 3908   5.229   7.816   5.878
 1321TIP3    H2 3909   5.202   7.832   6.026
 1322TIP3   OH2 3910   4.328   7.266   3.412
 1322TIP3    H1 3911   4.326   7.238   3.504
 1322TIP3    H2 3912   4.329   7.362   3.416
 1323TIP3   OH2 3913   7.723   4.303   6.010
 1323TIP3    H1 3914   7.643   4.251   6.008
 1323TIP3    H2 3915   7.696   4.391   5.985
 1324TIP3   OH2 3916   3.573   1.818   6.624
 1324TIP3    H1 3917   3.546   1.865   6.545
 1324TIP3    H2 3918   3.516   1.741   6.628
 1325TIP3   OH2 3919   2.333   4.271   3.891
 1325TIP3    H1 3920   2.384   4.351   3.877
 1325TIP3    H2 3921   2.307   4.275   3.983
 1326TIP3   OH2 3922   7.399   2.686   2.768
 1326TIP3    H1 3923   7.409   2.778   2.745
 1326TIP3    H2 3924   7.417   2.639   2.686
 1327TIP3   OH2 3925   5.652   3.971   5.004
 1327TIP3    H1 3926   5.592   4.045   5.005
 1327TIP3    H2 3927   5.602   3.899   4.966
 1328TIP3   OH2 3928   1.373   1.822   3.980
 1328TIP3    H1 3929   1.308   1.797   3.915
 1328TIP3    H2 3930   1.336   1.792   4.063
 1329TIP3   OH2 3931   3.877   7.503   3.779
 1329TIP3    H1 3932   3.782   7.505   3.785
 1329TIP3    H2 3933   3.907   7.537   3.863
 1330TIP3   OH2 3934   0.400   7.223   3.209
 1330TIP3    H1 3935   0.462   7.163   3.167
 1330TIP3    H2 3936   0.427   7.224   3.301
 1331TIP3   OH2 3937   7.426   0.782   3.674
 1331TIP3    H1 3938   7.498   0.758   3.616
 1331TIP3    H2 3939   7.348   0.780   3.618
 1332TIP3   OH2 3940   3.441   3.987   6.466
 1332TIP3    H1 3941   3.493   3.907   6.461
 1332TIP3    H2 3942   3.461   4.034   6.385
 1333TIP3   OH2 3943   5.956   2.887   4.263
 1333TIP3    H1 3944   5.966   2.808   4.210
 1333TIP3    H2 3945   6.010   2.871   4.340
 1334TIP3   OH2 3946   5.239   3.157   4.917
 1334TIP3    H1 3947   5.308   3.095   4.942
 1334TIP3    H2 3948   5.159   3.117   4.950
 1335TIP3   OH2 3949   2.271   4.021   2.490
 1335TIP3    H1 3950   2.253   4.105   2.533
 1335TIP3    H2 3951   2.189   3.972   2.500
 1336TIP3   OH2 3952   2.831   6.791   3.367
 1336TIP3    H1 3953   2.817   6.708   3.412
 1336TIP3    H2 3954   2.744   6.815   3.334
 1337TIP3   OH2 3955   4.046   0.837   0.014
 1337TIP3    H1 3956   4.108   0.783   0.063
 1337TIP3    H2 3957   4.100   0.905  -0.025
 1338TIP3   OH2 3958   0.532   5.469   6.301
 1338TIP3    H1 3959   0.518   5.539   6.237
 1338TIP3    H2 3960   0.572   5.398   6.251
 1339TIP3   OH2 3961   4.847   0.583   0.197
 1339TIP3    H1 3962   4.863   0.493   0.169
 1339TIP3    H2 3963   4.895   0.592   0.279
 1340TIP3   OH2 3964   7.725   1.733   0.854
 1340TIP3    H1 3965   7.732   1.638   0.845
 1340TIP3    H2 3966   7.717   1.747   0.949
 1341TIP3   OH2 3967   5.358   4.695   5.780
 1341TIP3    H1 3968   5.436   4.749   5.791
 1341TIP3    H2 3969   5.322   4.686   5.868
 1342TIP3   OH2 3970   7.181   2.389   5.487
 1342TIP3    H1 3971   7.167   2.333   5.564
 1342TIP3    H2 3972   7.101   2.380   5.436
 1343TIP3   OH2 3973   7.051   5.071   2.740
 1343TIP3    H1 3974   7.031   4.991   2.789
 1343TIP3    H2 3975   7.140   5.095   2.769
 1344TIP3   OH2 3976   3.558   3.674   1.028
 1344TIP3    H1 3977   3.550   3.767   1.005
 1344TIP3    H2 3978   3.642   3.668   1.073
 1345TIP3   OH2 3979   3.549   3.689   6.103
 1345TIP3    H1 3980   3.487   3.723   6.168
 1345TIP3    H2 3981   3.512   3.715   6.019
 1346TIP3   OH2 3982   7.727   4.150   3.712
 1346TIP3    H1 3983   7.758   4.204   3.785
 1346TIP3    H2 3984   7.806   4.130   3.662
 1347TIP3   OH2 3985   4.828   4.325   6.040
 1347TIP3    H1 3986   4.870   4.286   6.117
 1347TIP3    H2 3987   4.889   4.308   5.969
 1348TIP3   OH2 3988   7.170   7.124   0.462
 1348TIP3    H1 3989   7.264   7.132   0.452
 1348TIP3    H2 3990   7.146   7.193   0.524
 1349TIP3   OH2 3991   6.066   0.478   4.458
 1349TIP3    H1 3992   6.029   0.500   4.373
 1349TIP3    H2 3993   6.046   0.553   4.514
 1350TIP3   OH2 3994   1.197   1.670   6.740
 1350TIP3    H1 3995   1.115   1.687   6.786
 1350TIP3    H2 3996   1.173   1.605   6.674
 1351TIP3   OH2 3997   7.617   2.173   1.004
 1351TIP3    H1 3998   7.639   2.113   1.075
 1351TIP3    H2 3999   7.618   2.118   0.925
 1352TIP3   OH2 4000   0.424   3.983   2.478
 1352TIP3    H1 4001   0.346   4.039   2.472
 1352TIP3    H2 4002   0.459   4.000   2.566
 1353TIP3   OH2 4003   7.634   3.580   1.448
 1353TIP3    H1 4004   7.655   3.630   1.527
 1353TIP3    H2 4005   7.712   3.589   1.393
 1354TIP3   OH2 4006   6.646   6.882   4.238
 1354TIP3    H1 4007   6.702   6.959   4.247
 1354TIP3    H2 4008   6.633   6.850   4.327
 1355TIP3   OH2 4009   2.502   0.156   1.303
 1355TIP3    H1 4010   2.445   0.103   1.248
 1355TIP3    H2 4011   2.571   0.186   1.244
 1356TIP3   OH2 4012   3.385   3.304   4.053
 1356TIP3    H1 4013   3.331   3.300   4.132
 1356TIP3    H2 4014   3.330   3.266   3.984
 1357TIP3   OH2 4015   4.710   1.553   6.386
 1357TIP3    H1 4016   4.689   1.533   6.477
 1357TIP3    H2 4017   4.781   1.618   6.392
 1358TIP3   OH2 4018   0.619   1.745   2.599
 1358TIP3    H1 4019   0.713   1.736   2.617
 1358TIP3    H2 4020   0.578   1.672   2.646
 1359TIP3   OH2 4021   5.006   4.134   5.553
 1359TIP3    H1 4022   4.914   4.159   5.548
 1359TIP3    H2 4023   5.005   4.038   5.549
 1360TIP3   OH2 4024   1.267   4.728   6.586
 1360TIP3    H1 4025   1.290   4.639   6.614
 1360TIP3    H2 4026   1.323   4.744   6.510
 1361TIP3   OH2 4027   6.784   3.548   3.789
 1361TIP3    H1 4028   6.807   3.623   3.843
 1361TIP3    H2 4029   6.814   3.571   3.701
 1362TIP3   OH2 4030   5.503   2.708   4.131
 1362TIP3    H1 4031   5.548   2.791   4.115
 1362TIP3    H2 4032   5.411   2.732   4.133
 1363TIP3   OH2 4033   1.494   5.638   2.705
 1363TIP3    H1 4034   1.432   5.657   2.776
 1363TIP3    H2 4035   1.512   5.723   2.665
 1364TIP3   OH2 4036   1.065   3.821   1.215
 1364TIP3    H1 4037   1.157   3.842   1.230
 1364TIP3    H2 4038   1.033   3.790   1.300
 1365TIP3   OH2 4039   4.910   3.595   3.463
 1365TIP3    H1 4040   4.842   3.644   3.416
 1365TIP3    H2 4041   4.905   3.507   3.428
 1366TIP3   OH2 4042   7.962   5.041   3.485
 1366TIP3    H1 4043   7.958   5.121   3.433
 1366TIP3    H2 4044   7.949   5.071   3.575
 1367TIP3   OH2 4045   1.421   0.056   1.249
 1367TIP3    H1 4046   1.326   0.054   1.253
 1367TIP3    H2 4047   1.450   0.013   1.330
 1368TIP3   OH2 4048   5.135   6.663   3.420
 1368TIP3    H1 4049   5.100   6.625   3.501
 1368TIP3    H2 4050   5.071   6.730   3.396
 1369TIP3   OH2 4051   3.878   4.375   5.563
 1369TIP3    H1 4052   3.863   4.427   5.642
 1369TIP3    H2 4053   3.844   4.429   5.492
 1370TIP3   OH2 4054   2.107   5.677   1.189
 1370TIP3    H1 4055   2.061   5.673   1.273
 1370TIP3    H2 4056   2.122   5.771   1.175
 1371TIP3   OH2 4057   4.900   6.415   6.551
 1371TIP3    H1 4058   4.916   6.322   6.536
 1371TIP3    H2 4059   4.939   6.432   6.637
 1372TIP3   OH2 4060   5.503   3.969   1.766
 1372TIP3    H1 4061   5.538   3.904   1.826
 1372TIP3    H2 4062   5.461   4.034   1.824
 1373TIP3   OH2 4063   5.546   3.842   4.363
 1373TIP3    H1 4064   5.457   3.873   4.346
 1373TIP3    H2 4065   5.581   3.820   4.276
 1374TIP3   OH2 4066   2.665   4.108   6.005
 1374TIP3    H1 4067   2.581   4.127   6.046
 1374TIP3    H2 4068   2.644   4.093   5.913
 1375TIP3   OH2 4069   6.979   2.740   6.052
 1375TIP3    H1 4070   6.961   2.823   6.008
 1375TIP3    H2 4071   6.903   2.685   6.032
 1376TIP3   OH2 4072   7.193   6.878   1.641
 1376TIP3    H1 4073   7.245   6.913   1.713
 1376TIP3    H2 4074   7.250   6.885   1.564
 1377TIP3   OH2 4075   7.767   2.951   0.875
 1377TIP3    H1 4076   7.771   2.891   0.800
 1377TIP3    H2 4077   7.677   2.945   0.906
 1378TIP3   OH2 4078   2.791   6.355   6.644
 1378TIP3    H1 4079   2.736   6.434   6.639
 1378TIP3    H2 4080   2.737   6.292   6.692
 1379TIP3   OH2 4081   5.088   6.076   4.130
 1379TIP3    H1 4082   5.066   5.983   4.135
 1379TIP3    H2 4083   5.161   6.080   4.068
 1380TIP3   OH2 4084   2.616   4.067   5.677
 1380TIP3    H1 4085   2.577   3.985   5.648
 1380TIP3    H2 4086   2.561   4.135   5.639
 1381TIP3   OH2 4087   4.849   5.961   5.152
 1381TIP3    H1 4088   4.925   6.010   5.183
 1381TIP3    H2 4089   4.875   5.932   5.064
 1382TIP3   OH2 4090   6.190   0.426   4.895
 1382TIP3    H1 4091   6.224   0.484   4.827
 1382TIP3    H2 4092   6.166   0.486   4.966
 1383TIP3   OH2 4093   1.682   7.145   1.585
 1383TIP3    H1 4094   1.593   7.180   1.578
 1383TIP3    H2 4095   1.705   7.118   1.496
 1384TIP3   OH2 4096   4.350   4.822   1.382
 1384TIP3    H1 4097   4.257   4.844   1.377
 1384TIP3    H2 4098   4.386   4.852   1.298
 1385TIP3   OH2 4099   0.740   4.433   5.845
 1385TIP3    H1 4100   0.801   4.450   5.773
 1385TIP3    H2 4101   0.789   4.382   5.908
 1386TIP3   OH2 4102   7.294   3.705   3.518
 1386TIP3    H1 4103   7.386   3.716   3.541
 1386TIP3    H2 4104   7.292   3.719   3.423
 1387TIP3   OH2 4105   5.279   7.216   1.341
 1387TIP3    H1 4106   5.184   7.204   1.346
 1387TIP3    H2 4107   5.311   7.184   1.426
 1388TIP3   OH2 4108   1.215   7.815   6.635
 1388TIP3    H1 4109   1.243   7.723   6.630
 1388TIP3    H2 4110   1.167   7.821   6.718
 1389TIP3   OH2 4111   6.214   1.371   6.533
 1389TIP3    H1 4112   6.123   1.393   6.554
 1389TIP3    H2 4113   6.214   1.277   6.520
 1390TIP3   OH2 4114   0.689   4.336   0.919
 1390TIP3    H1 4115   0.667   4.314   0.828
 1390TIP3    H2 4116   0.607   4.365   0.958
 1391TIP3   OH2 4117   4.896   7.126   1.551
 1391TIP3    H1 4118   4.970   7.090   1.600
 1391TIP3    H2 4119   4.935   7.163   1.472
 1392TIP3   OH2 4120   8.173   4.353   1.042
 1392TIP3    H1 4121   8.192   4.271   0.996
 1392TIP3    H2 4122   8.178   4.421   0.974
 1393TIP3   OH2 4123   2.889   7.456   6.443
 1393TIP3    H1 4124   2.966   7.454   6.499
 1393TIP3    H2 4125   2.894   7.375   6.393
 1394TIP3   OH2 4126   7.859   3.289   5.144
 1394TIP3    H1 4127   7.953   3.295   5.126
 1394TIP3    H2 4128   7.849   3.334   5.228
 1395TIP3   OH2 4129   1.822   3.258   4.639
 1395TIP3    H1 4130   1.743   3.274   4.690
 1395TIP3    H2 4131   1.797   3.191   4.576
 1396TIP3   OH2 4132   1.616   4.023   1.300
 1396TIP3    H1 4133   1.658   3.971   1.231
 1396TIP3    H2 4134   1.595   3.960   1.368
 1397TIP3   OH2 4135   1.940   7.124   5.128
 1397TIP3    H1 4136   1.955   7.105   5.035
 1397TIP3    H2 4137   1.959   7.042   5.173
 1398TIP3   OH2 4138   4.665   7.748   4.498
 1398TIP3    H1 4139   4.683   7.841   4.506
 1398TIP3    H2 4140   4.570   7.742   4.497
 1399TIP3   OH2 4141   6.318   5.327   5.080
 1399TIP3    H1 4142   6.324   5.423   5.076
 1399TIP3    H2 4143   6.265   5.310   5.158
 1400TIP3   OH2 4144   8.050   3.391   6.481
 1400TIP3    H1 4145   8.007   3.309   6.455
 1400TIP3    H2 4146   8.078   3.375   6.571
 1401TIP3   OH2 4147   6.949   0.380   2.823
 1401TIP3    H1 4148   6.907   0.455   2.782
 1401TIP3    H2 4149   6.965   0.319   2.751
 1402TIP3   OH2 4150   7.592   7.448   3.597
 1402TIP3    H1 4151   7.604   7.380   3.663
 1402TIP3    H2 4152   7.680   7.482   3.581
 1403TIP3   OH2 4153   1.950   1.526   0.627
 1403TIP3    H1 4154   1.952   1.558   0.718
 1403TIP3    H2 4155   1.860   1.499   0.613
 1404TIP3   OH2 4156   4.991   0.039   1.532
 1404TIP3    H1 4157   4.902   0.003   1.533
 1404TIP3    H2 4158   5.020   0.030   1.441
 1405TIP3   OH2 4159   5.403   4.990   2.757
 1405TIP3    H1 4160   5.428   4.930   2.687
 1405TIP3    H2 4161   5.442   5.073   2.733
 1406TIP3   OH2 4162   2.197   5.898   2.497
 1406TIP3    H1 4163   2.246   5.915   2.416
 1406TIP3    H2 4164   2.106   5.919   2.474
 1407TIP3   OH2 4165   0.344   2.087   5.653
 1407TIP3    H1 4166   0.277   2.063   5.589
 1407TIP3    H2 4167   0.418   2.029   5.633
 1408TIP3   OH2 4168   0.583   0.048   5.605
 1408TIP3    H1 4169   0.601   0.121   5.664
 1408TIP3    H2 4170   0.580  -0.029   5.661
 1409TIP3   OH2 4171   3.267   2.066   2.843
 1409TIP3    H1 4172   3.295   2.031   2.759
 1409TIP3    H2 4173   3.230   1.991   2.890
 1410TIP3   OH2 4174   3.930   5.811   5.205
 1410TIP3    H1 4175   4.015   5.855   5.213
 1410TIP3    H2 4176   3.866   5.882   5.211
 1411TIP3   OH2 4177   6.817   1.604   3.242
 1411TIP3    H1 4178   6.769   1.603   3.325
 1411TIP3    H2 4179   6.813   1.695   3.214
 1412TIP3   OH2 4180   5.647   7.283   3.233
 1412TIP3    H1 4181   5.623   7.342   3.162
 1412TIP3    H2 4182   5.639   7.195   3.195
 1413TIP3   OH2 4183   4.361   7.259   1.630
 1413TIP3    H1 4184   4.359   7.326   1.699
 1413TIP3    H2 4185   4.449   7.223   1.634
 1414TIP3   OH2 4186   4.359   5.063   2.126
 1414TIP3    H1 4187   4.417   5.139   2.134
 1414TIP3    H2 4188   4.398   5.011   2.056
 1415TIP3   OH2 4189   7.641   2.198   6.114
 1415TIP3    H1 4190   7.661   2.187   6.021
 1415TIP3    H2 4191   7.632   2.108   6.147
 1416TIP3   OH2 4192   5.508   4.984   0.087
 1416TIP3    H1 4193   5.417   4.977   0.114
 1416TIP3    H2 4194   5.532   4.896   0.058
 1417TIP3   OH2 4195   5.345   3.672   1.871
 1417TIP3    H1 4196   5.410   3.633   1.813
 1417TIP3    H2 4197   5.287   3.599   1.894
 1418TIP3   OH2 4198   4.962   3.633   2.708
 1418TIP3    H1 4199   4.963   3.678   2.624
 1418TIP3    H2 4200   5.052   3.602   2.720
 1419TIP3   OH2 4201   6.757   6.027   5.504
 1419TIP3    H1 4202   6.826   5.963   5.491
 1419TIP3    H2 4203   6.803   6.110   5.514
 1420TIP3   OH2 4204   2.338   0.477   0.594
 1420TIP3    H1 4205   2.337   0.515   0.682
 1420TIP3    H2 4206   2.246   0.458   0.575
 1421TIP3   OH2 4207   5.556   0.263   2.671
 1421TIP3    H1 4208   5.474   0.311   2.664
 1421TIP3    H2 4209   5.550   0.196   2.603
 1422TIP3   OH2 4210   6.528   7.125   2.171
 1422TIP3    H1 4211   6.494   7.037   2.191
 1422TIP3    H2 4212   6.547   7.123   2.077
 1423TIP3   OH2 4213   3.285   4.772   3.630
 1423TIP3    H1 4214   3.311   4.685   3.661
 1423TIP3    H2 4215   3.333   4.833   3.686
 1424TIP3   OH2 4216   5.971   2.218   4.790
 1424TIP3    H1 4217   5.894   2.166   4.769
 1424TIP3    H2 4218   5.942   2.309   4.784
 1425TIP3   OH2 4219   5.246   3.194   0.153
 1425TIP3    H1 4220   5.284   3.271   0.112
 1425TIP3    H2 4221   5.313   3.165   0.216
 1426TIP3   OH2 4222   6.371   0.307   6.321
 1426TIP3    H1 4223   6.413   0.250   6.385
 1426TIP3    H2 4224   6.338   0.247   6.254
 1427TIP3   OH2 4225   2.948   4.652   2.681
 1427TIP3    H1 4226   2.908   4.706   2.749
 1427TIP3    H2 4227   3.032   4.693   2.662
 1428TIP3   OH2 4228   4.602   6.532   0.713
 1428TIP3    H1 4229   4.552   6.610   0.689
 1428TIP3    H2 4230   4.544   6.459   0.689
 1429TIP3   OH2 4231   2.724   1.857   1.906
 1429TIP3    H1 4232   2.716   1.768   1.874
 1429TIP3    H2 4233   2.665   1.861   1.982
 1430TIP3   OH2 4234   3.508   3.106   1.429
 1430TIP3    H1 4235   3.475   3.017   1.426
 1430TIP3    H2 4236   3.554   3.118   1.346
 1431TIP3   OH2 4237   2.527   5.320   0.451
 1431TIP3    H1 4238   2.557   5.231   0.434
 1431TIP3    H2 4239   2.578   5.350   0.526
 1432TIP3   OH2 4240   5.014   2.576   0.564
 1432TIP3    H1 4241   5.003   2.660   0.519
 1432TIP3    H2 4242   5.086   2.533   0.518
 1433TIP3   OH2 4243   6.478   6.051   4.672
 1433TIP3    H1 4244   6.478   6.058   4.577
 1433TIP3    H2 4245   6.520   5.967   4.691
 1434TIP3   OH2 4246   3.733   2.830   6.381
 1434TIP3    H1 4247   3.761   2.899   6.320
 1434TIP3    H2 4248   3.771   2.855   6.465
 1435TIP3   OH2 4249   6.977   7.216   4.687
 1435TIP3    H1 4250   6.974   7.190   4.595
 1435TIP3    H2 4251   7.015   7.140   4.732
 1436TIP3   OH2 4252   7.434   3.583   3.816
 1436TIP3    H1 4253   7.340   3.580   3.835
 1436TIP3    H2 4254   7.453   3.501   3.772
 1437TIP3   OH2 4255   6.158   2.721   3.677
 1437TIP3    H1 4256   6.184   2.687   3.762
 1437TIP3    H2 4257   6.207   2.803   3.667
 1438TIP3   OH2 4258   6.779   2.058   5.805
 1438TIP3    H1 4259   6.854   2.118   5.803
 1438TIP3    H2 4260   6.811   1.981   5.851
 1439TIP3   OH2 4261   0.119   1.983   2.199
 1439TIP3    H1 4262   0.050   1.939   2.149
 1439TIP3    H2 4263   0.077   2.008   2.282
 1440TIP3   OH2 4264   2.034   3.299   5.964
 1440TIP3    H1 4265   1.979   3.365   5.923
 1440TIP3    H2 4266   2.070   3.248   5.891
 1441TIP3   OH2 4267   4.558   2.348   1.871
 1441TIP3    H1 4268   4.481   2.299   1.899
 1441TIP3    H2 4269   4.616   2.282   1.833
 1442TIP3   OH2 4270   2.560   4.995   6.075
 1442TIP3    H1 4271   2.562   4.930   6.146
 1442TIP3    H2 4272   2.573   4.943   5.996
 1443TIP3   OH2 4273   0.425   3.132   0.303
 1443TIP3    H1 4274   0.437   3.148   0.209
 1443TIP3    H2 4275   0.346   3.078   0.308
 1444TIP3   OH2 4276   7.764   1.430   2.488
 1444TIP3    H1 4277   7.851   1.407   2.455
 1444TIP3    H2 4278   7.709   1.436   2.409
 1445TIP3   OH2 4279   3.097   2.384   1.214
 1445TIP3    H1 4280   3.041   2.308   1.233
 1445TIP3    H2 4281   3.041   2.442   1.162
 1446TIP3   OH2 4282   7.996   1.262   4.552
 1446TIP3    H1 4283   7.972   1.312   4.474
 1446TIP3    H2 4284   8.036   1.182   4.518
 1447TIP3   OH2 4285   1.602   5.373   3.637
 1447TIP3    H1 4286   1.512   5.355   3.662
 1447TIP3    H2 4287   1.605   5.360   3.542
 1448TIP3   OH2 4288   7.915   1.147   2.350
 1448TIP3    H1 4289   7.986   1.211   2.360
 1448TIP3    H2 4290   7.930   1.107   2.264
 1449TIP3   OH2 4291   5.245   3.585   5.562
 1449TIP3    H1 4292   5.217   3.568   5.652
 1449TIP3    H2 4293   5.294   3.507   5.537
 1450TIP3   OH2 4294   5.749   2.535   3.577
 1450TIP3    H1 4295   5.704   2.613   3.607
 1450TIP3    H2 4296   5.728   2.529   3.484
 1451TIP3   OH2 4297   3.600   0.024   1.976
 1451TIP3    H1 4298   3.689   0.037   2.007
 1451TIP3    H2 4299   3.550   0.098   2.013
 1452TIP3   OH2 4300   1.354   3.088   6.262
 1452TIP3    H1 4301   1.276   3.141   6.275
 1452TIP3    H2 4302   1.342   3.049   6.175
 1453TIP3   OH2 4303   5.682   4.231   0.158
 1453TIP3    H1 4304   5.641   4.299   0.105
 1453TIP3    H2 4305   5.648   4.149   0.122
 1454TIP3   OH2 4306   7.316   0.562   5.475
 1454TIP3    H1 4307   7.260   0.593   5.546
 1454TIP3    H2 4308   7.264   0.576   5.396
 1455TIP3   OH2 4309   0.542   3.845   1.355
 1455TIP3    H1 4310   0.597   3.781   1.310
 1455TIP3    H2 4311   0.466   3.794   1.384
 1456TIP3   OH2 4312   3.795   3.338   2.627
 1456TIP3    H1 4313   3.836   3.299   2.704
 1456TIP3    H2 4314   3.706   3.303   2.628
 1457TIP3   OH2 4315   0.072   2.972   2.314
 1457TIP3    H1 4316   0.103   3.008   2.397
 1457TIP3    H2 4317   0.092   3.041   2.250
 1458TIP3   OH2 4318   2.757   7.347   2.997
 1458TIP3    H1 4319   2.741   7.349   3.091
 1458TIP3    H2 4320   2.679   7.387   2.958
 1459TIP3   OH2 4321   0.548   0.253   5.441
 1459TIP3    H1 4322   0.464   0.281   5.476
 1459TIP3    H2 4323   0.570   0.174   5.491
 1460TIP3   OH2 4324   3.486   2.848   1.397
 1460TIP3    H1 4325   3.570   2.802   1.398
 1460TIP3    H2 4326   3.459   2.845   1.305
 1461TIP3   OH2 4327   1.598   3.354   1.080
 1461TIP3    H1 4328   1.614   3.281   1.020
 1461TIP3    H2 4329   1.535   3.320   1.144
 1462TIP3   OH2 4330   0.592   2.745   5.675
 1462TIP3    H1 4331   0.624   2.660   5.645
 1462TIP3    H2 4332   0.514   2.761   5.621
 1463TIP3   OH2 4333   4.223   0.411   3.707
 1463TIP3    H1 4334   4.221   0.470   3.782
 1463TIP3    H2 4335   4.132   0.407   3.677
 1464TIP3   OH2 4336   4.205   5.037   0.875
 1464TIP3    H1 4337   4.230   5.099   0.944
 1464TIP3    H2 4338   4.127   4.994   0.909
 1465TIP3   OH2 4339   1.387   1.085   6.623
 1465TIP3    H1 4340   1.473   1.123   6.644
 1465TIP3    H2 4341   1.347   1.068   6.708
 1466TIP3   OH2 4342   1.545   3.607   1.018
 1466TIP3    H1 4343   1.452   3.602   1.038
 1466TIP3    H2 4344   1.576   3.516   1.025
 1467TIP3   OH2 4345   3.159   4.227   5.895
 1467TIP3    H1 4346   3.116   4.313   5.894
 1467TIP3    H2 4347   3.087   4.165   5.887
 1468TIP3   OH2 4348   0.583   3.819   6.738
 1468TIP3    H1 4349   0.667   3.862   6.752
 1468TIP3    H2 4350   0.601   3.753   6.671
 1469TIP3   OH2 4351   2.259   7.012   4.595
 1469TIP3    H1 4352   2.263   6.986   4.503
 1469TIP3    H2 4353   2.271   7.107   4.593
 1470TIP3   OH2 4354   4.770   6.959   3.627
 1470TIP3    H1 4355   4.722   6.891   3.674
 1470TIP3    H2 4356   4.737   6.955   3.538
 1471TIP3   OH2 4357   0.304   2.684   1.159
 1471TIP3    H1 4358   0.281   2.667   1.250
 1471TIP3    H2 4359   0.356   2.608   1.133
 1472TIP3   OH2 4360   4.932   2.298   2.570
 1472TIP3    H1 4361   5.000   2.231   2.573
 1472TIP3    H2 4362   4.884   2.280   2.489
 1473TIP3   OH2 4363   3.465   3.138   2.438
 1473TIP3    H1 4364   3.428   3.056   2.404
 1473TIP3    H2 4365   3.501   3.114   2.523
 1474TIP3   OH2 4366   3.089   0.225   0.842
 1474TIP3    H1 4367   3.008   0.243   0.890
 1474TIP3    H2 4368   3.096   0.299   0.781
 1475TIP3   OH2 4369   0.324   1.891   2.404
 1475TIP3    H1 4370   0.264   1.918   2.334
 1475TIP3    H2 4371   0.404   1.867   2.358
 1476TIP3   OH2 4372   6.479   2.423   5.066
 1476TIP3    H1 4373   6.565   2.428   5.109
 1476TIP3    H2 4374   6.423   2.480   5.119
 1477TIP3   OH2 4375   0.566   4.193   0.349
 1477TIP3    H1 4376   0.567   4.131   0.276
 1477TIP3    H2 4377   0.643   4.248   0.335
 1478TIP3   OH2 4378   5.313   6.277   0.010
 1478TIP3    H1 4379   5.308   6.366  -0.025
 1478TIP3    H2 4380   5.242   6.272   0.073
 1479TIP3   OH2 4381   0.956   1.406   1.423
 1479TIP3    H1 4382   0.974   1.329   1.477
 1479TIP3    H2 4383   0.974   1.480   1.480
 1480TIP3   OH2 4384   5.891   2.777   3.797
 1480TIP3    H1 4385   5.869   2.717   3.869
 1480TIP3    H2 4386   5.979   2.750   3.769
 1481TIP3   OH2 4387   0.055   6.925   0.056
 1481TIP3    H1 4388   0.032   6.889   0.142
 1481TIP3    H2 4389   0.056   7.020   0.069
 1482TIP3   OH2 4390   2.656   6.296   2.599
 1482TIP3    H1 4391   2.583   6.236   2.592
 1482TIP3    H2 4392   2.723   6.260   2.541
 1483TIP3   OH2 4393   5.897   7.681   2.557
 1483TIP3    H1 4394   5.873   7.597   2.517
 1483TIP3    H2 4395   5.989   7.692   2.535
 1484TIP3   OH2 4396   1.062   4.344   3.999
 1484TIP3    H1 4397   1.001   4.346   4.073
 1484TIP3    H2 4398   1.070   4.435   3.972
 1485TIP3   OH2 4399   6.141   5.793   4.073
 1485TIP3    H1 4400   6.191   5.713   4.057
 1485TIP3    H2 4401   6.084   5.772   4.147
 1486TIP3   OH2 4402   2.433   1.794   5.130
 1486TIP3    H1 4403   2.446   1.826   5.041
 1486TIP3    H2 4404   2.359   1.846   5.163
 1487TIP3   OH2 4405   0.126   7.556   0.209
 1487TIP3    H1 4406   0.105   7.541   0.117
 1487TIP3    H2 4407   0.041   7.571   0.251
 1488TIP3   OH2 4408   5.991   2.736   4.751
 1488TIP3    H1 4409   5.929   2.778   4.690
 1488TIP3    H2 4410   6.068   2.792   4.748
 1489TIP3   OH2 4411   5.845   5.350   1.197
 1489TIP3    H1 4412   5.761   5.331   1.156
 1489TIP3    H2 4413   5.903   5.374   1.124
 1490TIP3   OH2 4414   5.064   2.818   5.133
 1490TIP3    H1 4415   5.143   2.826   5.185
 1490TIP3    H2 4416   5.075   2.736   5.085
 1491TIP3   OH2 4417   8.102   5.276   0.361
 1491TIP3    H1 4418   8.103   5.277   0.265
 1491TIP3    H2 4419   8.028   5.221   0.384
 1492TIP3   OH2 4420   0.180   4.246   1.231
 1492TIP3    H1 4421   0.229   4.178   1.277
 1492TIP3    H2 4422   0.109   4.200   1.188
 1493TIP3   OH2 4423   2.945   0.484   2.645
 1493TIP3    H1 4424   2.940   0.435   2.563
 1493TIP3    H2 4425   2.876   0.550   2.638
 1494TIP3   OH2 4426   4.322   7.846   0.628
 1494TIP3    H1 4427   4.369   7.929   0.622
 1494TIP3    H2 4428   4.330   7.808   0.541
 1495TIP3   OH2 4429   0.014   2.840   5.202
 1495TIP3    H1 4430   0.061   2.788   5.267
 1495TIP3    H2 4431  -0.053   2.780   5.168
 1496TIP3   OH2 4432   7.720   1.804   3.061
 1496TIP3    H1 4433   7.717   1.827   2.968
 1496TIP3    H2 4434   7.628   1.804   3.089
 1497TIP3   OH2 4435   7.750   1.185   3.473
 1497TIP3    H1 4436   7.794   1.102   3.457
 1497TIP3    H2 4437   7.727   1.217   3.385
 1498TIP3   OH2 4438   5.641   5.174   0.464
 1498TIP3    H1 4439   5.672   5.258   0.431
 1498TIP3    H2 4440   5.710   5.112   0.441
 1499TIP3   OH2 4441   1.698   3.243   4.155
 1499TIP3    H1 4442   1.647   3.164   4.172
 1499TIP3    H2 4443   1.643   3.314   4.188
 1500TIP3   OH2 4444   1.537   4.481   1.105
 1500TIP3    H1 4445   1.604   4.490   1.173
 1500TIP3    H2 4446   1.460   4.448   1.152
 1501TIP3   OH2 4447   8.033   2.721   5.321
 1501TIP3    H1 4448   8.064   2.661   5.253
 1501TIP3    H2 4449   8.014   2.802   5.275
 1502TIP3   OH2 4450   0.132   1.629   4.572
 1502TIP3    H1 4451   0.075   1.608   4.498
 1502TIP3    H2 4452   0.193   1.555   4.577
 1503TIP3   OH2 4453   2.054   4.243   0.636
 1503TIP3    H1 4454   2.021   4.268   0.722
 1503TIP3    H2 4455   2.130   4.187   0.655
 1504TIP3   OH2 4456   1.064   6.156   5.056
 1504TIP3    H1 4457   0.973   6.170   5.029
 1504TIP3    H2 4458   1.063   6.167   5.151
 1505TIP3   OH2 4459   0.582   1.408   6.054
 1505TIP3    H1 4460   0.621   1.449   5.977
 1505TIP3    H2 4461   0.510   1.467   6.079
 1506TIP3   OH2 4462   3.653   5.302   0.552
 1506TIP3    H1 4463   3.657   5.230   0.615
 1506TIP3    H2 4464   3.601   5.369   0.596
 1507TIP3   OH2 4465   1.229   0.633   6.286
 1507TIP3    H1 4466   1.142   0.643   6.249
 1507TIP3    H2 4467   1.287   0.626   6.210
 1508TIP3   OH2 4468   0.606   5.593   2.033
 1508TIP3    H1 4469   0.662   5.534   2.083
 1508TIP3    H2 4470   0.545   5.536   1.987
 1509TIP3   OH2 4471   1.787   5.442   6.536
 1509TIP3    H1 4472   1.823   5.406   6.617
 1509TIP3    H2 4473   1.855   5.428   6.471
 1510TIP3   OH2 4474   0.010   3.833   2.172
 1510TIP3    H1 4475   0.060   3.848   2.092
 1510TIP3    H2 4476  -0.077   3.868   2.153
 1511TIP3   OH2 4477   3.193   1.347   1.709
 1511TIP3    H1 4478   3.191   1.252   1.697
 1511TIP3    H2 4479   3.237   1.380   1.631
 1512TIP3   OH2 4480   1.692   0.152   6.587
 1512TIP3    H1 4481   1.614   0.109   6.623
 1512TIP3    H2 4482   1.760   0.136   6.652
 1513TIP3   OH2 4483   7.712   2.589   1.450
 1513TIP3    H1 4484   7.676   2.567   1.536
 1513TIP3    H2 4485   7.787   2.645   1.469
 1514TIP3   OH2 4486   0.116   6.465   0.809
 1514TIP3    H1 4487   0.144   6.531   0.872
 1514TIP3    H2 4488   0.188   6.461   0.746
 1515TIP3   OH2 4489   8.081   3.831   2.561
 1515TIP3    H1 4490   8.006   3.840   2.619
 1515TIP3    H2 4491   8.108   3.921   2.542
 1516TIP3   OH2 4492   0.549   3.919   5.485
 1516TIP3    H1 4493   0.594   3.835   5.486
 1516TIP3    H2 4494   0.482   3.910   5.417
 1517TIP3   OH2 4495   7.600   0.572   2.621
 1517TIP3    H1 4496   7.603   0.587   2.716
 1517TIP3    H2 4497   7.642   0.487   2.609
 1518TIP3   OH2 4498   3.654   0.091   4.845
 1518TIP3    H1 4499   3.718   0.053   4.905
 1518TIP3    H2 4500   3.648   0.029   4.773
 1519TIP3   OH2 4501   2.275   2.070   2.862
 1519TIP3    H1 4502   2.221   2.129   2.809
 1519TIP3    H2 4503   2.214   2.003   2.894
 1520TIP3   OH2 4504   1.121   3.385   4.942
 1520TIP3    H1 4505   1.060   3.342   4.882
 1520TIP3    H2 4506   1.207   3.350   4.919
 1521TIP3   OH2 4507   1.041   2.311   6.363
 1521TIP3    H1 4508   0.951   2.288   6.338
 1521TIP3    H2 4509   1.084   2.227   6.378
 1522TIP3   OH2 4510   0.086   6.691   0.267
 1522TIP3    H1 4511   0.132   6.742   0.334
 1522TIP3    H2 4512   0.156   6.642   0.223
 1523TIP3   OH2 4513   4.420   7.534   6.000
 1523TIP3    H1 4514   4.482   7.504   5.934
 1523TIP3    H2 4515   4.448   7.490   6.081
 1524TIP3   OH2 4516   5.768   2.674   5.618
 1524TIP3    H1 4517   5.822   2.646   5.544
 1524TIP3    H2 4518   5.704   2.603   5.628
 1525TIP3   OH2 4519   5.185   3.105   2.941
 1525TIP3    H1 4520   5.120   3.037   2.923
 1525TIP3    H2 4521   5.270   3.060   2.935
 1526TIP3   OH2 4522   6.245   5.906   6.275
 1526TIP3    H1 4523   6.265   5.841   6.208
 1526TIP3    H2 4524   6.288   5.873   6.354
 1527TIP3   OH2 4525   2.097   4.993   4.954
 1527TIP3    H1 4526   2.040   5.067   4.977
 1527TIP3    H2 4527   2.055   4.917   4.994
 1528TIP3   OH2 4528   2.127   2.200   6.123
 1528TIP3    H1 4529   2.110   2.266   6.191
 1528TIP3    H2 4530   2.064   2.130   6.142
 1529TIP3   OH2 4531   5.823   1.085   5.267
 1529TIP3    H1 4532   5.892   1.140   5.230
 1529TIP3    H2 4533   5.859   1.054   5.350
 1530TIP3   OH2 4534   2.427   2.745   0.643
 1530TIP3    H1 4535   2.396   2.735   0.553
 1530TIP3    H2 4536   2.458   2.835   0.647
 1531TIP3   OH2 4537   7.231   1.533   2.130
 1531TIP3    H1 4538   7.215   1.439   2.118
 1531TIP3    H2 4539   7.157   1.576   2.089
 1532TIP3   OH2 4540   7.301   4.010   6.538
 1532TIP3    H1 4541   7.332   3.922   6.517
 1532TIP3    H2 4542   7.219   3.996   6.586
 1533TIP3   OH2 4543   4.237   2.165   5.195
 1533TIP3    H1 4544   4.144   2.148   5.211
 1533TIP3    H2 4545   4.242   2.260   5.183
 1534TIP3   OH2 4546   5.880   6.377   6.212
 1534TIP3    H1 4547   5.937   6.323   6.267
 1534TIP3    H2 4548   5.920   6.373   6.125
 1535TIP3   OH2 4549   3.270   1.728   2.678
 1535TIP3    H1 4550   3.303   1.713   2.767
 1535TIP3    H2 4551   3.181   1.759   2.691
 1536TIP3   OH2 4552   3.107   5.235   4.530
 1536TIP3    H1 4553   3.036   5.216   4.469
 1536TIP3    H2 4554   3.098   5.170   4.600
 1537TIP3   OH2 4555   4.217   4.872   2.988
 1537TIP3    H1 4556   4.137   4.857   3.039
 1537TIP3    H2 4557   4.266   4.937   3.038
 1538TIP3   OH2 4558   1.916   5.928   4.242
 1538TIP3    H1 4559   1.917   6.004   4.301
 1538TIP3    H2 4560   1.920   5.852   4.300
 1539TIP3   OH2 4561   3.236   6.363   5.819
 1539TIP3    H1 4562   3.260   6.326   5.904
 1539TIP3    H2 4563   3.142   6.350   5.812
 1540TIP3   OH2 4564   6.261   2.276   4.633
 1540TIP3    H1 4565   6.236   2.201   4.686
 1540TIP3    H2 4566   6.240   2.352   4.687
 1541TIP3   OH2 4567   1.460   3.923   1.729
 1541TIP3    H1 4568   1.480   3.866   1.655
 1541TIP3    H2 4569   1.445   4.009   1.690
 1542TIP3   OH2 4570   6.259   6.052   2.988
 1542TIP3    H1 4571   6.243   5.958   2.993
 1542TIP3    H2 4572   6.265   6.070   2.894
 1543TIP3   OH2 4573   3.877   5.451   0.430
 1543TIP3    H1 4574   3.904   5.500   0.508
 1543TIP3    H2 4575   3.799   5.404   0.457
 1544TIP3   OH2 4576   6.965   3.563   6.316
 1544TIP3    H1 4577   6.878   3.535   6.287
 1544TIP3    H2 4578   7.005   3.484   6.352
 1545TIP3   OH2 4579   1.915   4.608   1.985
 1545TIP3    H1 4580   1.999   4.624   1.942
 1545TIP3    H2 4581   1.883   4.695   2.009
 1546TIP3   OH2 4582   6.102   0.029   0.988
 1546TIP3    H1 4583   6.131   0.085   0.916
 1546TIP3    H2 4584   6.042   0.084   1.039
 1547TIP3   OH2 4585   6.585   6.386   1.847
 1547TIP3    H1 4586   6.530   6.417   1.919
 1547TIP3    H2 4587   6.626   6.465   1.813
 1548TIP3   OH2 4588   0.939   1.502   5.372
 1548TIP3    H1 4589   0.994   1.576   5.395
 1548TIP3    H2 4590   0.942   1.444   5.448
 1549TIP3   OH2 4591   7.125   6.236   2.520
 1549TIP3    H1 4592   7.139   6.304   2.586
 1549TIP3    H2 4593   7.094   6.160   2.570
 1550TIP3   OH2 4594   2.181   7.687   0.824
 1550TIP3    H1 4595   2.176   7.593   0.844
 1550TIP3    H2 4596   2.113   7.702   0.759
 1551TIP3   OH2 4597   1.599   6.255   2.165
 1551TIP3    H1 4598   1.648   6.187   2.211
 1551TIP3    H2 4599   1.666   6.315   2.132
 1552TIP3   OH2 4600   7.674   1.818   4.092
 1552TIP3    H1 4601   7.741   1.775   4.039
 1552TIP3    H2 4602   7.662   1.904   4.051
 1553TIP3   OH2 4603   1.102   2.455   2.418
 1553TIP3    H1 4604   1.086   2.539   2.375
 1553TIP3    H2 4605   1.020   2.407   2.409
 1554TIP3   OH2 4606   4.845   1.526   4.561
 1554TIP3    H1 4607   4.837   1.441   4.520
 1554TIP3    H2 4608   4.912   1.572   4.509
 1555TIP3   OH2 4609   1.673   0.965   3.918
 1555TIP3    H1 4610   1.678   0.877   3.955
 1555TIP3    H2 4611   1.663   0.951   3.824
 1556TIP3   OH2 4612   8.237   4.031   1.136
 1556TIP3    H1 4613   8.146   4.051   1.156
 1556TIP3    H2 4614   8.233   3.950   1.084
 1557TIP3   OH2 4615   7.283   3.820   2.570
 1557TIP3    H1 4616   7.289   3.755   2.640
 1557TIP3    H2 4617   7.374   3.846   2.553
 1558TIP3   OH2 4618   5.499   7.077   2.399
 1558TIP3    H1 4619   5.547   7.141   2.346
 1558TIP3    H2 4620   5.453   7.022   2.336
 1559TIP3   OH2 4621   8.266   5.656   2.197
 1559TIP3    H1 4622   8.299   5.609   2.120
 1559TIP3    H2 4623   8.343   5.665   2.254
 1560TIP3   OH2 4624   6.409   6.918   4.580
 1560TIP3    H1 4625   6.500   6.948   4.574
 1560TIP3    H2 4626   6.390   6.918   4.674
 1561TIP3   OH2 4627   1.704   0.124   2.631
 1561TIP3    H1 4628   1.694   0.213   2.599
 1561TIP3    H2 4629   1.746   0.134   2.717
 1562TIP3   OH2 4630   8.163   2.140   3.061
 1562TIP3    H1 4631   8.248   2.141   3.105
 1562TIP3    H2 4632   8.120   2.062   3.094
 1563TIP3   OH2 4633   2.229   4.841   1.668
 1563TIP3    H1 4634   2.305   4.877   1.623
 1563TIP3    H2 4635   2.193   4.915   1.716
 1564TIP3   OH2 4636   3.417   5.167   2.266
 1564TIP3    H1 4637   3.434   5.230   2.336
 1564TIP3    H2 4638   3.456   5.208   2.188
 1565TIP3   OH2 4639   0.220   2.266   5.955
 1565TIP3    H1 4640   0.297   2.300   6.001
 1565TIP3    H2 4641   0.162   2.341   5.945
 1566TIP3   OH2 4642   0.415   0.522   3.346
 1566TIP3    H1 4643   0.327   0.525   3.310
 1566TIP3    H2 4644   0.436   0.614   3.366
 1567TIP3   OH2 4645   5.351   6.518   6.330
 1567TIP3    H1 4646   5.274   6.567   6.358
 1567TIP3    H2 4647   5.345   6.518   6.234
 1568TIP3   OH2 4648   7.732   7.131   2.684
 1568TIP3    H1 4649   7.686   7.128   2.768
 1568TIP3    H2 4650   7.667   7.166   2.623
 1569TIP3   OH2 4651   7.318   1.113   5.240
 1569TIP3    H1 4652   7.332   1.151   5.327
 1569TIP3    H2 4653   7.240   1.157   5.207
 1570TIP3   OH2 4654   6.560   7.585   6.322
 1570TIP3    H1 4655   6.607   7.614   6.401
 1570TIP3    H2 4656   6.536   7.667   6.278
 1571TIP3   OH2 4657   0.128   1.799   0.771
 1571TIP3    H1 4658   0.075   1.806   0.850
 1571TIP3    H2 4659   0.217   1.782   0.804
 1572TIP3   OH2 4660   4.073   1.629   3.248
 1572TIP3    H1 4661   4.036   1.594   3.329
 1572TIP3    H2 4662   4.096   1.552   3.196
 1573TIP3   OH2 4663   2.001   7.577   3.286
 1573TIP3    H1 4664   1.962   7.646   3.339
 1573TIP3    H2 4665   2.056   7.624   3.223
 1574TIP3   OH2 4666   3.243   7.258   2.734
 1574TIP3    H1 4667   3.264   7.174   2.775
 1574TIP3    H2 4668   3.156   7.281   2.769
 1575TIP3   OH2 4669   5.043   5.137   1.002
 1575TIP3    H1 4670   5.042   5.222   0.956
 1575TIP3    H2 4671   4.953   5.105   0.994
 1576TIP3   OH2 4672   0.141   6.269   1.818
 1576TIP3    H1 4673   0.207   6.310   1.873
 1576TIP3    H2 4674   0.059   6.280   1.866
 1577TIP3   OH2 4675   0.742   2.018   5.972
 1577TIP3    H1 4676   0.661   2.058   6.002
 1577TIP3    H2 4677   0.742   2.031   5.877
 1578TIP3   OH2 4678   1.824   2.774   3.166
 1578TIP3    H1 4679   1.814   2.770   3.262
 1578TIP3    H2 4680   1.912   2.807   3.152
 1579TIP3   OH2 4681   5.857   0.604   5.191
 1579TIP3    H1 4682   5.780   0.647   5.154
 1579TIP3    H2 4683   5.863   0.637   5.280
 1580TIP3   OH2 4684   2.615   5.169   2.908
 1580TIP3    H1 4685   2.539   5.193   2.961
 1580TIP3    H2 4686   2.656   5.098   2.957
 1581TIP3   OH2 4687   3.393   0.153   4.923
 1581TIP3    H1 4688   3.439   0.140   5.006
 1581TIP3    H2 4689   3.458   0.135   4.855
 1582TIP3   OH2 4690   0.778   1.754   1.387
 1582TIP3    H1 4691   0.684   1.769   1.375
 1582TIP3    H2 4692   0.796   1.675   1.336
 1583TIP3   OH2 4693   6.441   3.934   3.099
 1583TIP3    H1 4694   6.526   3.935   3.143
 1583TIP3    H2 4695   6.402   4.019   3.119
 1584TIP3   OH2 4696   6.744   2.949   4.019
 1584TIP3    H1 4697   6.705   2.926   3.935
 1584TIP3    H2 4698   6.832   2.979   3.997
 1585TIP3   OH2 4699   4.209   6.571   6.689
 1585TIP3    H1 4700   4.275   6.637   6.710
 1585TIP3    H2 4701   4.254   6.487   6.702
 1586TIP3   OH2 4702   1.752   7.752   0.881
 1586TIP3    H1 4703   1.747   7.657   0.892
 1586TIP3    H2 4704   1.684   7.787   0.938
 1587TIP3   OH2 4705   7.876   5.100   0.232
 1587TIP3    H1 4706   7.822   5.168   0.272
 1587TIP3    H2 4707   7.864   5.024   0.289
 1588TIP3   OH2 4708  -0.027   1.494   0.836
 1588TIP3    H1 4709   0.031   1.474   0.762
 1588TIP3    H2 4710  -0.027   1.414   0.889
 1589TIP3   OH2 4711   7.866   1.996   3.849
 1589TIP3    H1 4712   7.824   1.941   3.784
 1589TIP3    H2 4713   7.953   1.957   3.861
 1590TIP3   OH2 4714   6.785   4.552   3.773
 1590TIP3    H1 4715   6.730   4.599   3.710
 1590TIP3    H2 4716   6.868   4.541   3.727
 1591TIP3   OH2 4717   2.566   7.641   2.249
 1591TIP3    H1 4718   2.533   7.640   2.339
 1591TIP3    H2 4719   2.538   7.726   2.214
 1592TIP3   OH2 4720   2.670   2.959   0.354
 1592TIP3    H1 4721   2.718   2.918   0.282
 1592TIP3    H2 4722   2.682   2.900   0.428
 1593TIP3   OH2 4723   6.459   6.464   6.094
 1593TIP3    H1 4724   6.366   6.442   6.089
 1593TIP3    H2 4725   6.468   6.510   6.178
 1594TIP3   OH2 4726   6.530   1.381   3.488
 1594TIP3    H1 4727   6.595   1.311   3.494
 1594TIP3    H2 4728   6.456   1.340   3.441
 1595TIP3   OH2 4729   6.789   3.843   1.359
 1595TIP3    H1 4730   6.765   3.750   1.353
 1595TIP3    H2 4731   6.823   3.864   1.272
 1596TIP3   OH2 4732   2.067   1.972   6.485
 1596TIP3    H1 4733   2.153   1.968   6.444
 1596TIP3    H2 4734   2.066   2.056   6.531
 1597TIP3   OH2 4735   3.496   5.489   2.456
 1597TIP3    H1 4736   3.407   5.524   2.455
 1597TIP3    H2 4737   3.487   5.399   2.487
 1598TIP3   OH2 4738   5.484   5.715   2.226
 1598TIP3    H1 4739   5.507   5.799   2.187
 1598TIP3    H2 4740   5.562   5.689   2.274
 1599TIP3   OH2 4741   0.078   5.344   4.053
 1599TIP3    H1 4742   0.053   5.427   4.013
 1599TIP3    H2 4743   0.155   5.364   4.106
 1600TIP3   OH2 4744   8.215   0.351   1.231
 1600TIP3    H1 4745   8.159   0.362   1.154
 1600TIP3    H2 4746   8.281   0.287   1.203
 1601TIP3   OH2 4747   3.581   5.631   5.309
 1601TIP3    H1 4748   3.568   5.587   5.224
 1601TIP3    H2 4749   3.587   5.724   5.287
 1602TIP3   OH2 4750   7.525   1.657   3.791
 1602TIP3    H1 4751   7.495   1.737   3.748
 1602TIP3    H2 4752   7.482   1.657   3.876
 1603TIP3   OH2 4753   1.731   2.336   3.823
 1603TIP3    H1 4754   1.740   2.430   3.839
 1603TIP3    H2 4755   1.800   2.316   3.759
 1604TIP3   OH2 4756   6.191   5.707   1.373
 1604TIP3    H1 4757   6.102   5.673   1.364
 1604TIP3    H2 4758   6.215   5.686   1.463
 1605TIP3   OH2 4759   2.830   1.091   1.363
 1605TIP3    H1 4760   2.834   1.070   1.456
 1605TIP3    H2 4761   2.774   1.169   1.359
 1606TIP3   OH2 4762   0.059   1.234   6.200
 1606TIP3    H1 4763   0.055   1.142   6.174
 1606TIP3    H2 4764  -0.011   1.276   6.151
 1607TIP3   OH2 4765   7.394   7.765   3.208
 1607TIP3    H1 4766   7.458   7.807   3.266
 1607TIP3    H2 4767   7.345   7.839   3.170
 1608TIP3   OH2 4768   5.136   2.651   2.910
 1608TIP3    H1 4769   5.201   2.593   2.949
 1608TIP3    H2 4770   5.061   2.594   2.891
 1609TIP3   OH2 4771   2.885   2.048   5.550
 1609TIP3    H1 4772   2.852   2.100   5.623
 1609TIP3    H2 4773   2.874   1.957   5.578
 1610TIP3   OH2 4774   0.825   1.493   1.194
 1610TIP3    H1 4775   0.892   1.470   1.258
 1610TIP3    H2 4776   0.872   1.494   1.110
 1611TIP3   OH2 4777   2.160   3.858   1.584
 1611TIP3    H1 4778   2.089   3.857   1.648
 1611TIP3    H2 4779   2.233   3.899   1.630
 1612TIP3   OH2 4780   4.749   7.348   2.823
 1612TIP3    H1 4781   4.807   7.271   2.819
 1612TIP3    H2 4782   4.726   7.355   2.915
 1613TIP3   OH2 4783   5.316   6.261   2.523
 1613TIP3    H1 4784   5.379   6.276   2.593
 1613TIP3    H2 4785   5.359   6.294   2.444
 1614TIP3   OH2 4786   3.013   6.035   2.005
 1614TIP3    H1 4787   3.069   5.958   2.005
 1614TIP3    H2 4788   2.946   6.017   1.939
 1615TIP3   OH2 4789   2.477   3.369   0.400
 1615TIP3    H1 4790   2.550   3.371   0.462
 1615TIP3    H2 4791   2.453   3.460   0.388
 1616TIP3   OH2 4792   5.037   5.127   4.276
 1616TIP3    H1 4793   4.946   5.118   4.303
 1616TIP3    H2 4794   5.054   5.050   4.222
 1617TIP3   OH2 4795   8.212   6.206   3.070
 1617TIP3    H1 4796   8.211   6.302   3.060
 1617TIP3    H2 4797   8.265   6.175   2.996
 1618TIP3   OH2 4798   4.901   0.865   4.401
 1618TIP3    H1 4799   4.843   0.788   4.397
 1618TIP3    H2 4800   4.969   0.847   4.336
 1619TIP3   OH2 4801   7.624   4.631   2.375
 1619TIP3    H1 4802   7.602   4.546   2.413
 1619TIP3    H2 4803   7.720   4.634   2.378
 1620TIP3   OH2 4804   4.735   1.507   0.973
 1620TIP3    H1 4805   4.768   1.444   0.910
 1620TIP3    H2 4806   4.764   1.474   1.058
 1621TIP3   OH2 4807   7.341   4.805   3.085
 1621TIP3    H1 4808   7.353   4.739   3.153
 1621TIP3    H2 4809   7.408   4.871   3.104
 1622TIP3   OH2 4810   2.630   5.553   1.572
 1622TIP3    H1 4811   2.637   5.470   1.619
 1622TIP3    H2 4812   2.552   5.595   1.609
 1623TIP3   OH2 4813   6.193   7.299   0.260
 1623TIP3    H1 4814   6.220   7.325   0.349
 1623TIP3    H2 4815   6.202   7.379   0.208
 1624TIP3   OH2 4816   7.146   3.050   2.174
 1624TIP3    H1 4817   7.203   3.091   2.109
 1624TIP3    H2 4818   7.198   3.050   2.255
 1625TIP3   OH2 4819   8.144   3.513   4.627
 1625TIP3    H1 4820   8.073   3.449   4.627
 1625TIP3    H2 4821   8.206   3.480   4.691
 1626TIP3   OH2 4822   7.942   6.178   0.934
 1626TIP3    H1 4823   8.035   6.157   0.948
 1626TIP3    H2 4824   7.939   6.212   0.844
 1627TIP3   OH2 4825   6.983   4.296   2.439
 1627TIP3    H1 4826   7.043   4.363   2.406
 1627TIP3    H2 4827   6.984   4.228   2.372
 1628TIP3   OH2 4828   5.311   1.481   3.613
 1628TIP3    H1 4829   5.300   1.571   3.584
 1628TIP3    H2 4830   5.334   1.488   3.706
 1629TIP3   OH2 4831   4.113   2.929   0.569
 1629TIP3    H1 4832   4.043   2.994   0.570
 1629TIP3    H2 4833   4.073   2.850   0.532
 1630TIP3   OH2 4834   5.532   1.202   3.350
 1630TIP3    H1 4835   5.600   1.256   3.390
 1630TIP3    H2 4836   5.475   1.177   3.423
 1631TIP3   OH2 4837   2.058   7.249   3.229
 1631TIP3    H1 4838   1.998   7.282   3.297
 1631TIP3    H2 4839   2.001   7.202   3.168
 1632TIP3   OH2 4840   4.580   1.333   1.389
 1632TIP3    H1 4841   4.486   1.350   1.384
 1632TIP3    H2 4842   4.615   1.364   1.306
 1633TIP3   OH2 4843   0.766   4.044   2.653
 1633TIP3    H1 4844   0.750   4.126   2.605
 1633TIP3    H2 4845   0.808   4.072   2.735
 1634TIP3   OH2 4846   0.445   3.035   0.589
 1634TIP3    H1 4847   0.386   3.022   0.515
 1634TIP3    H2 4848   0.405   3.104   0.641
 1635TIP3   OH2 4849   7.710   5.917   6.176
 1635TIP3    H1 4850   7.784   5.977   6.184
 1635TIP3    H2 4851   7.633   5.974   6.170
 1636TIP3   OH2 4852   0.677   0.413   3.314
 1636TIP3    H1 4853   0.696   0.346   3.379
 1636TIP3    H2 4854   0.590   0.446   3.338
 1637TIP3   OH2 4855   2.076   7.702   0.430
 1637TIP3    H1 4856   2.014   7.765   0.468
 1637TIP3    H2 4857   2.162   7.742   0.444
 1638TIP3   OH2 4858   5.143   3.873   1.964
 1638TIP3    H1 4859   5.120   3.875   1.871
 1638TIP3    H2 4860   5.210   3.804   1.971
 1639TIP3   OH2 4861   1.305   4.685   3.406
 1639TIP3    H1 4862   1.309   4.645   3.320
 1639TIP3    H2 4863   1.212   4.690   3.426
 1640TIP3   OH2 4864   4.197   7.068   5.216
 1640TIP3    H1 4865   4.183   7.146   5.162
 1640TIP3    H2 4866   4.241   7.100   5.294
 1641TIP3   OH2 4867   4.676   1.909   1.390
 1641TIP3    H1 4868   4.743   1.933   1.453
 1641TIP3    H2 4869   4.707   1.945   1.307
 1642TIP3   OH2 4870   6.019   1.312   1.804
 1642TIP3    H1 4871   6.071   1.242   1.766
 1642TIP3    H2 4872   6.068   1.339   1.882
 1643TIP3   OH2 4873   1.278   0.893   5.535
 1643TIP3    H1 4874   1.370   0.896   5.509
 1643TIP3    H2 4875   1.269   0.808   5.578
 1644TIP3   OH2 4876   3.434   6.532   5.458
 1644TIP3    H1 4877   3.437   6.570   5.546
 1644TIP3    H2 4878   3.466   6.602   5.401
 1645TIP3   OH2 4879   2.702   6.185   0.422
 1645TIP3    H1 4880   2.632   6.243   0.392
 1645TIP3    H2 4881   2.745   6.156   0.342
 1646TIP3   OH2 4882   0.191   2.203   4.690
 1646TIP3    H1 4883   0.246   2.207   4.768
 1646TIP3    H2 4884   0.245   2.158   4.625
 1647TIP3   OH2 4885   3.197   0.983   4.674
 1647TIP3    H1 4886   3.203   1.034   4.755
 1647TIP3    H2 4887   3.286   0.979   4.641
 1648TIP3   OH2 4888   2.221   1.296   0.281
 1648TIP3    H1 4889   2.233   1.235   0.354
 1648TIP3    H2 4890   2.308   1.303   0.241
 1649TIP3   OH2 4891   6.473   3.898   4.910
 1649TIP3    H1 4892   6.466   3.992   4.926
 1649TIP3    H2 4893   6.430   3.886   4.825
 1650TIP3   OH2 4894   5.598   2.682   0.794
 1650TIP3    H1 4895   5.640   2.758   0.835
 1650TIP3    H2 4896   5.651   2.664   0.717
 1651TIP3   OH2 4897   4.732   1.976   3.388
 1651TIP3    H1 4898   4.675   2.039   3.343
 1651TIP3    H2 4899   4.672   1.925   3.443
 1652TIP3   OH2 4900   1.897   7.128   6.088
 1652TIP3    H1 4901   1.962   7.058   6.088
 1652TIP3    H2 4902   1.886   7.151   5.996
 1653TIP3   OH2 4903   6.799   0.739   0.653
 1653TIP3    H1 4904   6.811   0.826   0.692
 1653TIP3    H2 4905   6.753   0.755   0.571
 1654TIP3   OH2 4906   2.540   7.020   4.623
 1654TIP3    H1 4907   2.448   6.992   4.628
 1654TIP3    H2 4908   2.536   7.115   4.619
 1655TIP3   OH2 4909   6.331   0.428   4.523
 1655TIP3    H1 4910   6.241   0.428   4.491
 1655TIP3    H2 4911   6.379   0.376   4.459
 1656TIP3   OH2 4912   0.326   1.601   1.983
 1656TIP3    H1 4913   0.375   1.565   1.909
 1656TIP3    H2 4914   0.264   1.533   2.007
 1657TIP3   OH2 4915   3.127   5.338   0.448
 1657TIP3    H1 4916   3.211   5.353   0.406
 1657TIP3    H2 4917   3.066   5.394   0.400
 1658TIP3   OH2 4918   6.728   5.675   2.217
 1658TIP3    H1 4919   6.632   5.676   2.216
 1658TIP3    H2 4920   6.754   5.692   2.126
 1659TIP3   OH2 4921   1.107   2.210   5.036
 1659TIP3    H1 4922   1.166   2.252   5.099
 1659TIP3    H2 4923   1.020   2.223   5.073
 1660TIP3   OH2 4924   6.724   5.669   5.768
 1660TIP3    H1 4925   6.698   5.761   5.757
 1660TIP3    H2 4926   6.653   5.619   5.726
 1661TIP3   OH2 4927   7.731   1.347   2.923
 1661TIP3    H1 4928   7.636   1.351   2.926
 1661TIP3    H2 4929   7.761   1.427   2.965
 1662TIP3   OH2 4930   0.677   3.601   5.587
 1662TIP3    H1 4931   0.718   3.601   5.673
 1662TIP3    H2 4932   0.747   3.628   5.527
 1663TIP3   OH2 4933   5.080   6.319   2.092
 1663TIP3    H1 4934   5.133   6.360   2.024
 1663TIP3    H2 4935   4.989   6.334   2.065
 1664TIP3   OH2 4936   7.802   5.627   5.277
 1664TIP3    H1 4937   7.772   5.697   5.336
 1664TIP3    H2 4938   7.779   5.658   5.190
 1665TIP3   OH2 4939   5.367   0.677   4.742
 1665TIP3    H1 4940   5.452   0.717   4.760
 1665TIP3    H2 4941   5.386   0.583   4.734
 1666TIP3   OH2 4942   5.836   1.484   5.773
 1666TIP3    H1 4943   5.768   1.481   5.705
 1666TIP3    H2 4944   5.836   1.396   5.811
 1667TIP3   OH2 4945   6.711   2.423   5.251
 1667TIP3    H1 4946   6.776   2.441   5.183
 1667TIP3    H2 4947   6.756   2.440   5.333
 1668TIP3   OH2 4948   6.283   6.578   5.087
 1668TIP3    H1 4949   6.290   6.550   4.996
 1668TIP3    H2 4950   6.252   6.668   5.083
 1669TIP3   OH2 4951   0.702   5.398   6.077
 1669TIP3    H1 4952   0.746   5.483   6.080
 1669TIP3    H2 4953   0.773   5.334   6.078
 1670TIP3   OH2 4954   4.675   5.033   4.757
 1670TIP3    H1 4955   4.697   4.977   4.831
 1670TIP3    H2 4956   4.589   5.070   4.779
 1671TIP3   OH2 4957   0.191   3.788   2.889
 1671TIP3    H1 4958   0.221   3.850   2.956
 1671TIP3    H2 4959   0.152   3.716   2.938
 1672TIP3   OH2 4960   2.378   5.247   1.827
 1672TIP3    H1 4961   2.344   5.212   1.745
 1672TIP3    H2 4962   2.463   5.283   1.805
 1673TIP3   OH2 4963   1.057   2.951   3.837
 1673TIP3    H1 4964   0.992   2.881   3.826
 1673TIP3    H2 4965   1.083   2.974   3.748
 1674TIP3   OH2 4966   7.361   4.452   2.870
 1674TIP3    H1 4967   7.399   4.490   2.791
 1674TIP3    H2 4968   7.434   4.446   2.931
 1675TIP3   OH2 4969   0.155   6.176   4.917
 1675TIP3    H1 4970   0.109   6.222   4.987
 1675TIP3    H2 4971   0.196   6.246   4.866
 1676TIP3   OH2 4972   2.097   6.667   5.131
 1676TIP3    H1 4973   2.086   6.613   5.053
 1676TIP3    H2 4974   2.143   6.745   5.101
 1677TIP3   OH2 4975   4.485   2.415   2.995
 1677TIP3    H1 4976   4.561   2.465   3.025
 1677TIP3    H2 4977   4.411   2.474   3.007
 1678TIP3   OH2 4978   7.693   1.027   2.922
 1678TIP3    H1 4979   7.777   1.050   2.962
 1678TIP3    H2 4980   7.634   1.015   2.997
 1679TIP3   OH2 4981   4.475   3.053   1.588
 1679TIP3    H1 4982   4.456   3.017   1.674
 1679TIP3    H2 4983   4.475   3.147   1.600
 1680TIP3   OH2 4984   7.162   7.051   2.696
 1680TIP3    H1 4985   7.147   7.046   2.602
 1680TIP3    H2 4986   7.247   7.096   2.704
 1681TIP3   OH2 4987   5.424   4.715   4.752
 1681TIP3    H1 4988   5.447   4.691   4.662
 1681TIP3    H2 4989   5.469   4.798   4.768
 1682TIP3   OH2 4990   3.496   6.226   0.534
 1682TIP3    H1 4991   3.565   6.279   0.493
 1682TIP3    H2 4992   3.421   6.285   0.539
 1683TIP3   OH2 4993   5.931   4.234   4.407
 1683TIP3    H1 4994   5.997   4.271   4.467
 1683TIP3    H2 4995   5.914   4.147   4.442
 1684TIP3   OH2 4996   5.421   3.229   2.702
 1684TIP3    H1 4997   5.480   3.273   2.764
 1684TIP3    H2 4998   5.448   3.137   2.704
 1685TIP3   OH2 4999   7.840   1.312   0.057
 1685TIP3    H1 5000   7.757   1.353   0.034
 1685TIP3    H2 5001   7.857   1.341   0.147
 1686TIP3   OH2 5002   6.797   6.542   4.264
 1686TIP3    H1 5003   6.714   6.535   4.217
 1686TIP3    H2 5004   6.823   6.634   4.253
 1687TIP3   OH2 5005   1.015   2.630   0.011
 1687TIP3    H1 5006   1.001   2.632   0.106
 1687TIP3    H2 5007   0.928   2.616  -0.026
 1688TIP3   OH2 5008   4.609   3.303   2.039
 1688TIP3    H1 5009   4.561   3.345   1.967
 1688TIP3    H2 5010   4.644   3.223   2.000
 1689TIP3   OH2 5011   2.837   0.997   5.435
 1689TIP3    H1 5012   2.863   1.089   5.440
 1689TIP3    H2 5013   2.902   0.950   5.487
 1690TIP3   OH2 5014   7.296   0.252   3.475
 1690TIP3    H1 5015   7.285   0.167   3.517
 1690TIP3    H2 5016   7.227   0.255   3.408
 1691TIP3   OH2 5017   1.534   6.730   5.576
 1691TIP3    H1 5018   1.505   6.811   5.616
 1691TIP3    H2 5019   1.502   6.661   5.635
 1692TIP3   OH2 5020   6.863   6.769   2.227
 1692TIP3    H1 5021   6.934   6.748   2.167
 1692TIP3    H2 5022   6.791   6.712   2.200
 1693TIP3   OH2 5023   0.636   2.003   2.100
 1693TIP3    H1 5024   0.674   2.005   2.012
 1693TIP3    H2 5025   0.541   2.004   2.085
 1694TIP3   OH2 5026   5.268   2.238   1.405
 1694TIP3    H1 5027   5.359   2.218   1.382
 1694TIP3    H2 5028   5.223   2.244   1.321
 1695TIP3   OH2 5029   0.862   6.977   1.471
 1695TIP3    H1 5030   0.822   6.905   1.520
 1695TIP3    H2 5031   0.843   7.055   1.523
 1696TIP3   OH2 5032   5.392   1.009   1.888
 1696TIP3    H1 5033   5.458   0.947   1.856
 1696TIP3    H2 5034   5.419   1.093   1.851
 1697TIP3   OH2 5035   0.785   4.370   0.311
 1697TIP3    H1 5036   0.745   4.457   0.319
 1697TIP3    H2 5037   0.827   4.370   0.225
 1698TIP3   OH2 5038   6.497   2.218   4.502
 1698TIP3    H1 5039   6.430   2.257   4.558
 1698TIP3    H2 5040   6.485   2.123   4.512
 1699TIP3   OH2 5041   2.478   7.433   6.405
 1699TIP3    H1 5042   2.541   7.412   6.336
 1699TIP3    H2 5043   2.478   7.356   6.462
 1700TIP3   OH2 5044   7.515   0.176   0.510
 1700TIP3    H1 5045   7.541   0.227   0.586
 1700TIP3    H2 5046   7.580   0.107   0.503
 1701TIP3   OH2 5047   0.222   2.484   2.831
 1701TIP3    H1 5048   0.227   2.401   2.879
 1701TIP3    H2 5049   0.267   2.466   2.748
 1702TIP3   OH2 5050   3.644   6.974   6.024
 1702TIP3    H1 5051   3.605   6.918   6.092
 1702TIP3    H2 5052   3.639   6.921   5.944
 1703TIP3   OH2 5053   4.456   5.024   0.758
 1703TIP3    H1 5054   4.375   5.019   0.808
 1703TIP3    H2 5055   4.475   4.933   0.733
 1704TIP3   OH2 5056   7.006   6.182   3.823
 1704TIP3    H1 5057   7.029   6.272   3.844
 1704TIP3    H2 5058   7.059   6.160   3.746
 1705TIP3   OH2 5059   5.235   3.738   5.852
 1705TIP3    H1 5060   5.196   3.793   5.920
 1705TIP3    H2 5061   5.234   3.793   5.774
 1706TIP3   OH2 5062   3.288   7.501   2.204
 1706TIP3    H1 5063   3.293   7.596   2.201
 1706TIP3    H2 5064   3.377   7.472   2.185
 1707TIP3   OH2 5065   5.089   2.832   1.644
 1707TIP3    H1 5066   5.174   2.869   1.621
 1707TIP3    H2 5067   5.093   2.818   1.738
 1708TIP3   OH2 5068   3.068   5.742   1.900
 1708TIP3    H1 5069   3.149   5.782   1.932
 1708TIP3    H2 5070   3.013   5.734   1.977
 1709TIP3   OH2 5071   1.071   4.215   0.963
 1709TIP3    H1 5072   1.120   4.262   0.895
 1709TIP3    H2 5073   1.030   4.143   0.917
 1710TIP3   OH2 5074   8.068   7.760   6.355
 1710TIP3    H1 5075   8.110   7.712   6.284
 1710TIP3    H2 5076   7.981   7.783   6.321
 1711TIP3   OH2 5077   7.432   2.868   3.787
 1711TIP3    H1 5078   7.400   2.925   3.717
 1711TIP3    H2 5079   7.527   2.881   3.786
 1712TIP3   OH2 5080   2.363   3.069   3.623
 1712TIP3    H1 5081   2.392   3.005   3.689
 1712TIP3    H2 5082   2.397   3.035   3.540
 1713TIP3   OH2 5083   2.649   0.198   1.792
 1713TIP3    H1 5084   2.555   0.216   1.785
 1713TIP3    H2 5085   2.655   0.103   1.790
 1714TIP3   OH2 5086   7.835  -0.002   4.227
 1714TIP3    H1 5087   7.746  -0.016   4.261
 1714TIP3    H2 5088   7.822   0.050   4.147
 1715TIP3   OH2 5089   1.981   3.837   0.574
 1715TIP3    H1 5090   2.052   3.804   0.518
 1715TIP3    H2 5091   1.916   3.767   0.573
 1716TIP3   OH2 5092   7.968   2.876   2.245
 1716TIP3    H1 5093   7.948   2.908   2.333
 1716TIP3    H2 5094   7.895   2.905   2.191
 1717TIP3   OH2 5095   3.735   5.559   2.951
 1717TIP3    H1 5096   3.731   5.544   3.046
 1717TIP3    H2 5097   3.652   5.525   2.918
 1718TIP3   OH2 5098   2.409   6.527   3.225
 1718TIP3    H1 5099   2.485   6.513   3.169
 1718TIP3    H2 5100   2.434   6.491   3.310
 1719TIP3   OH2 5101   4.367   5.924   5.954
 1719TIP3    H1 5102   4.448   5.892   5.994
 1719TIP3    H2 5103   4.336   5.850   5.901
 1720TIP3   OH2 5104   0.452   2.446   5.158
 1720TIP3    H1 5105   0.511   2.372   5.144
 1720TIP3    H2 5106   0.392   2.417   5.227
 1721TIP3   OH2 5107   5.105   4.980   1.984
 1721TIP3    H1 5108   5.188   4.942   2.013
 1721TIP3    H2 5109   5.041   4.951   2.050
 1722TIP3   OH2 5110   1.656   6.251   5.766
 1722TIP3    H1 5111   1.661   6.207   5.682
 1722TIP3    H2 5112   1.705   6.194   5.826
 1723TIP3   OH2 5113   1.428   3.326   4.901
 1723TIP3    H1 5114   1.474   3.256   4.947
 1723TIP3    H2 5115   1.483   3.345   4.825
 1724TIP3   OH2 5116   6.394   6.516   3.534
 1724TIP3    H1 5117   6.417   6.522   3.442
 1724TIP3    H2 5118   6.408   6.424   3.556
 1725TIP3   OH2 5119   8.285   3.380   2.841
 1725TIP3    H1 5120   8.196   3.413   2.856
 1725TIP3    H2 5121   8.341   3.439   2.891
 1726TIP3   OH2 5122   8.025   4.941   5.728
 1726TIP3    H1 5123   8.016   5.036   5.729
 1726TIP3    H2 5124   8.111   4.924   5.765
 1727TIP3   OH2 5125   5.284   2.332   3.186
 1727TIP3    H1 5126   5.354   2.371   3.239
 1727TIP3    H2 5127   5.205   2.344   3.238
 1728TIP3   OH2 5128   5.192   2.982   6.341
 1728TIP3    H1 5129   5.264   2.997   6.280
 1728TIP3    H2 5130   5.120   2.951   6.286
 1729TIP3   OH2 5131   5.705   6.780   1.351
 1729TIP3    H1 5132   5.645   6.706   1.353
 1729TIP3    H2 5133   5.649   6.857   1.356
 1730TIP3   OH2 5134   3.372   7.477   0.435
 1730TIP3    H1 5135   3.285   7.465   0.472
 1730TIP3    H2 5136   3.426   7.506   0.509
 1731TIP3   OH2 5137   6.898   2.062   3.002
 1731TIP3    H1 5138   6.863   2.117   3.072
 1731TIP3    H2 5139   6.913   1.977   3.043
 1732TIP3   OH2 5140   7.059   1.165   4.569
 1732TIP3    H1 5141   7.088   1.174   4.479
 1732TIP3    H2 5142   7.133   1.195   4.621
 1733TIP3   OH2 5143   3.476   5.521   2.826
 1733TIP3    H1 5144   3.470   5.526   2.730
 1733TIP3    H2 5145   3.424   5.595   2.857
 1734TIP3   OH2 5146   2.255   1.642   6.631
 1734TIP3    H1 5147   2.181   1.667   6.686
 1734TIP3    H2 5148   2.314   1.717   6.636
 1735TIP3   OH2 5149   0.084   1.563   4.906
 1735TIP3    H1 5150   0.004   1.599   4.866
 1735TIP3    H2 5151   0.056   1.480   4.944
 1736TIP3   OH2 5152   2.650   4.297   4.849
 1736TIP3    H1 5153   2.614   4.240   4.918
 1736TIP3    H2 5154   2.596   4.376   4.854
 1737TIP3   OH2 5155   5.831   5.273   2.347
 1737TIP3    H1 5156   5.918   5.289   2.310
 1737TIP3    H2 5157   5.846   5.274   2.442
 1738TIP3   OH2 5158   5.142   0.227   0.315
 1738TIP3    H1 5159   5.057   0.269   0.301
 1738TIP3    H2 5160   5.196   0.259   0.243
 1739TIP3   OH2 5161   5.692   7.683   4.132
 1739TIP3    H1 5162   5.784   7.686   4.157
 1739TIP3    H2 5163   5.691   7.652   4.042
 1740TIP3   OH2 5164   4.223   7.828   6.618
 1740TIP3    H1 5165   4.259   7.845   6.705
 1740TIP3    H2 5166   4.299   7.800   6.566
 1741TIP3   OH2 5167   6.844   4.797   1.125
 1741TIP3    H1 5168   6.879   4.713   1.097
 1741TIP3    H2 5169   6.913   4.860   1.103
 1742TIP3   OH2 5170   1.195   3.465   0.822
 1742TIP3    H1 5171   1.271   3.523   0.814
 1742TIP3    H2 5172   1.210   3.418   0.904
 1743TIP3   OH2 5173   4.922   5.965   1.952
 1743TIP3    H1 5174   4.985   5.973   2.023
 1743TIP3    H2 5175   4.884   5.877   1.964
 1744TIP3   OH2 5176   0.779   6.178   1.422
 1744TIP3    H1 5177   0.794   6.084   1.414
 1744TIP3    H2 5178   0.690   6.185   1.458
 1745TIP3   OH2 5179   5.582   7.281   5.115
 1745TIP3    H1 5180   5.501   7.316   5.076
 1745TIP3    H2 5181   5.552   7.213   5.175
 1746TIP3   OH2 5182   2.358   0.988   5.144
 1746TIP3    H1 5183   2.362   1.059   5.209
 1746TIP3    H2 5184   2.411   1.019   5.071
 1747TIP3   OH2 5185   4.802   3.239   4.692
 1747TIP3    H1 5186   4.737   3.259   4.759
 1747TIP3    H2 5187   4.784   3.148   4.668
 1748TIP3   OH2 5188   4.891   7.311   2.520
 1748TIP3    H1 5189   4.854   7.339   2.604
 1748TIP3    H2 5190   4.815   7.289   2.466
 1749TIP3   OH2 5191   5.549   1.664   2.913
 1749TIP3    H1 5192   5.633   1.702   2.887
 1749TIP3    H2 5193   5.506   1.643   2.830
 1750TIP3   OH2 5194   0.674   7.136   6.125
 1750TIP3    H1 5195   0.753   7.147   6.071
 1750TIP3    H2 5196   0.622   7.213   6.107
 1751TIP3   OH2 5197   4.457   6.426   1.996
 1751TIP3    H1 5198   4.529   6.478   1.961
 1751TIP3    H2 5199   4.439   6.465   2.082
 1752TIP3   OH2 5200   0.636   3.849   2.019
 1752TIP3    H1 5201   0.588   3.901   2.083
 1752TIP3    H2 5202   0.631   3.759   2.053
 1753TIP3   OH2 5203   5.052   7.720   1.578
 1753TIP3    H1 5204   5.065   7.767   1.496
 1753TIP3    H2 5205   5.141   7.705   1.611
 1754TIP3   OH2 5206   3.355   1.248   2.921
 1754TIP3    H1 5207   3.321   1.190   2.989
 1754TIP3    H2 5208   3.351   1.196   2.840
 1755TIP3   OH2 5209   0.525   5.343   4.845
 1755TIP3    H1 5210   0.605   5.303   4.810
 1755TIP3    H2 5211   0.529   5.327   4.939
 1756TIP3   OH2 5212   5.638   2.766   1.855
 1756TIP3    H1 5213   5.693   2.746   1.779
 1756TIP3    H2 5214   5.597   2.683   1.878
 1757TIP3   OH2 5215   3.376   5.369   0.283
 1757TIP3    H1 5216   3.405   5.457   0.259
 1757TIP3    H2 5217   3.455   5.315   0.278
 1758TIP3   OH2 5218   0.377   4.459   0.552
 1758TIP3    H1 5219   0.424   4.482   0.632
 1758TIP3    H2 5220   0.285   4.459   0.577
 1759TIP3   OH2 5221   4.770   1.832   5.558
 1759TIP3    H1 5222   4.695   1.863   5.506
 1759TIP3    H2 5223   4.808   1.762   5.505
 1760TIP3   OH2 5224   3.985   0.692   3.350
 1760TIP3    H1 5225   4.058   0.637   3.322
 1760TIP3    H2 5226   3.933   0.704   3.270
 1761TIP3   OH2 5227   2.199   3.516   1.078
 1761TIP3    H1 5228   2.217   3.606   1.105
 1761TIP3    H2 5229   2.103   3.511   1.072
 1762TIP3   OH2 5230   7.691   6.673   4.506
 1762TIP3    H1 5231   7.627   6.738   4.475
 1762TIP3    H2 5232   7.701   6.693   4.599
 1763TIP3   OH2 5233   6.695   0.049   4.374
 1763TIP3    H1 5234   6.720  -0.001   4.451
 1763TIP3    H2 5235   6.638  -0.009   4.324
 1764TIP3   OH2 5236   0.995   7.398   4.230
 1764TIP3    H1 5237   1.074   7.451   4.235
 1764TIP3    H2 5238   1.016   7.319   4.279
 1765TIP3   OH2 5239   1.311   4.703   4.995
 1765TIP3    H1 5240   1.247   4.647   4.951
 1765TIP3    H2 5241   1.395   4.662   4.976
 1766TIP3   OH2 5242   6.702   1.691   2.379
 1766TIP3    H1 5243   6.616   1.695   2.337
 1766TIP3    H2 5244   6.687   1.723   2.468
 1767TIP3   OH2 5245   5.969   5.096   1.734
 1767TIP3    H1 5246   5.928   5.015   1.763
 1767TIP3    H2 5247   6.063   5.082   1.748
 1768TIP3   OH2 5248   1.423   6.942   3.967
 1768TIP3    H1 5249   1.513   6.916   3.986
 1768TIP3    H2 5250   1.376   6.927   4.049
 1769TIP3   OH2 5251   5.031   3.945   0.155
 1769TIP3    H1 5252   5.012   3.853   0.178
 1769TIP3    H2 5253   4.978   3.996   0.217
 1770TIP3   OH2 5254   1.428   6.104   5.965
 1770TIP3    H1 5255   1.364   6.034   5.974
 1770TIP3    H2 5256   1.513   6.060   5.964
 1771TIP3   OH2 5257   6.744   4.082   0.771
 1771TIP3    H1 5258   6.653   4.052   0.762
 1771TIP3    H2 5259   6.737   4.175   0.791
 1772TIP3   OH2 5260   1.098   6.756   2.351
 1772TIP3    H1 5261   1.144   6.758   2.435
 1772TIP3    H2 5262   1.148   6.815   2.295
 1773TIP3   OH2 5263   1.068   4.873   6.482
 1773TIP3    H1 5264   1.120   4.829   6.548
 1773TIP3    H2 5265   0.980   4.878   6.520
 1774TIP3   OH2 5266   0.863   7.237   1.547
 1774TIP3    H1 5267   0.844   7.314   1.601
 1774TIP3    H2 5268   0.877   7.272   1.459
 1775TIP3   OH2 5269   6.462   6.969   2.846
 1775TIP3    H1 5270   6.516   6.993   2.921
 1775TIP3    H2 5271   6.382   7.019   2.857
 1776TIP3   OH2 5272   3.193   1.130   1.995
 1776TIP3    H1 5273   3.107   1.172   1.989
 1776TIP3    H2 5274   3.253   1.200   2.020
 1777TIP3   OH2 5275   0.685   6.040   6.281
 1777TIP3    H1 5276   0.702   5.946   6.286
 1777TIP3    H2 5277   0.710   6.073   6.367
 1778TIP3   OH2 5278   8.184   3.396   0.616
 1778TIP3    H1 5279   8.199   3.420   0.707
 1778TIP3    H2 5280   8.176   3.301   0.617
 1779TIP3   OH2 5281   5.095   5.354   5.132
 1779TIP3    H1 5282   5.176   5.399   5.109
 1779TIP3    H2 5283   5.037   5.423   5.162
 1780TIP3   OH2 5284   0.418   5.208   3.357
 1780TIP3    H1 5285   0.456   5.153   3.425
 1780TIP3    H2 5286   0.377   5.280   3.406
 1781TIP3   OH2 5287   3.574   6.287   1.314
 1781TIP3    H1 5288   3.480   6.282   1.329
 1781TIP3    H2 5289   3.613   6.237   1.386
 1782TIP3   OH2 5290   3.580   5.563   0.265
 1782TIP3    H1 5291   3.630   5.632   0.223
 1782TIP3    H2 5292   3.592   5.577   0.359
 1783TIP3   OH2 5293   3.883   3.485   6.604
 1783TIP3    H1 5294   3.798   3.458   6.638
 1783TIP3    H2 5295   3.871   3.489   6.509
 1784TIP3   OH2 5296   6.751   2.291   0.937
 1784TIP3    H1 5297   6.827   2.336   0.900
 1784TIP3    H2 5298   6.787   2.211   0.976
 1785TIP3   OH2 5299   2.918   2.170   1.216
 1785TIP3    H1 5300   2.866   2.125   1.150
 1785TIP3    H2 5301   2.854   2.218   1.269
 1786TIP3   OH2 5302   7.698   2.276   0.484
 1786TIP3    H1 5303   7.759   2.297   0.554
 1786TIP3    H2 5304   7.716   2.185   0.462
 1787TIP3   OH2 5305   5.986   2.594   5.407
 1787TIP3    H1 5306   6.007   2.678   5.449
 1787TIP3    H2 5307   6.000   2.529   5.475
 1788TIP3   OH2 5308   1.130   5.065   3.951
 1788TIP3    H1 5309   1.077   4.999   3.996
 1788TIP3    H2 5310   1.071   5.106   3.889
 1789TIP3   OH2 5311   6.587   3.268   1.415
 1789TIP3    H1 5312   6.674   3.230   1.407
 1789TIP3    H2 5313   6.602   3.362   1.423
 1790TIP3   OH2 5314   2.894   3.692   6.246
 1790TIP3    H1 5315   2.890   3.732   6.159
 1790TIP3    H2 5316   2.814   3.639   6.252
 1791TIP3   OH2 5317   3.243   6.674   1.834
 1791TIP3    H1 5318   3.267   6.582   1.829
 1791TIP3    H2 5319   3.189   6.681   1.912
 1792TIP3   OH2 5320   2.648   1.041   5.141
 1792TIP3    H1 5321   2.657   0.953   5.178
 1792TIP3    H2 5322   2.640   1.098   5.217
 1793TIP3   OH2 5323   4.856   1.912   1.669
 1793TIP3    H1 5324   4.924   1.859   1.627
 1793TIP3    H2 5325   4.787   1.850   1.691
 1794TIP3   OH2 5326   1.349   4.928   3.044
 1794TIP3    H1 5327   1.261   4.900   3.020
 1794TIP3    H2 5328   1.338   4.974   3.127
 1795TIP3   OH2 5329   5.448   2.131   5.918
 1795TIP3    H1 5330   5.419   2.051   5.874
 1795TIP3    H2 5331   5.422   2.119   6.009
 1796TIP3   OH2 5332   3.160   3.825   2.143
 1796TIP3    H1 5333   3.134   3.736   2.168
 1796TIP3    H2 5334   3.082   3.878   2.160
 1797TIP3   OH2 5335   2.806   1.259   0.912
 1797TIP3    H1 5336   2.898   1.285   0.906
 1797TIP3    H2 5337   2.758   1.327   0.865
 1798TIP3   OH2 5338   2.328   1.122   2.479
 1798TIP3    H1 5339   2.351   1.035   2.447
 1798TIP3    H2 5340   2.236   1.114   2.506
 1799TIP3   OH2 5341   5.151   0.200   4.676
 1799TIP3    H1 5342   5.094   0.164   4.608
 1799TIP3    H2 5343   5.205   0.126   4.704
 1800TIP3   OH2 5344   5.376   7.092   1.570
 1800TIP3    H1 5345   5.469   7.069   1.562
 1800TIP3    H2 5346   5.371   7.144   1.650
 1801TIP3   OH2 5347   1.106   3.853   0.749
 1801TIP3    H1 5348   1.039   3.922   0.752
 1801TIP3    H2 5349   1.093   3.803   0.829
 1802TIP3   OH2 5350   7.566   0.766   2.073
 1802TIP3    H1 5351   7.485   0.715   2.061
 1802TIP3    H2 5352   7.578   0.811   1.990
 1803TIP3   OH2 5353   4.152   4.005   0.805
 1803TIP3    H1 5354   4.145   3.913   0.831
 1803TIP3    H2 5355   4.138   4.053   0.886
 1804TIP3   OH2 5356   4.623   4.406   1.026
 1804TIP3    H1 5357   4.565   4.470   1.068
 1804TIP3    H2 5358   4.595   4.322   1.063
 1805TIP3   OH2 5359   1.131   5.339   2.454
 1805TIP3    H1 5360   1.100   5.329   2.544
 1805TIP3    H2 5361   1.208   5.395   2.461
 1806TIP3   OH2 5362   1.583   3.832   1.492
 1806TIP3    H1 5363   1.543   3.745   1.482
 1806TIP3    H2 5364   1.671   3.814   1.525
 1807TIP3   OH2 5365   6.010   2.341   6.765
 1807TIP3    H1 5366   6.056   2.291   6.698
 1807TIP3    H2 5367   5.918   2.317   6.755
 1808TIP3   OH2 5368   6.033   2.854   6.608
 1808TIP3    H1 5369   5.962   2.802   6.647
 1808TIP3    H2 5370   6.092   2.789   6.570
 1809TIP3   OH2 5371   0.311   1.052   2.316
 1809TIP3    H1 5372   0.246   1.082   2.253
 1809TIP3    H2 5373   0.295   0.958   2.324
 1810TIP3   OH2 5374   2.742   7.860   6.279
 1810TIP3    H1 5375   2.731   7.796   6.349
 1810TIP3    H2 5376   2.767   7.807   6.203
 1811TIP3   OH2 5377   4.112   4.731   4.522
 1811TIP3    H1 5378   4.047   4.777   4.575
 1811TIP3    H2 5379   4.094   4.638   4.538
 1812TIP3   OH2 5380   2.474   1.143   3.678
 1812TIP3    H1 5381   2.450   1.226   3.719
 1812TIP3    H2 5382   2.415   1.079   3.718
 1813TIP3   OH2 5383   0.674   4.180   4.811
 1813TIP3    H1 5384   0.670   4.263   4.765
 1813TIP3    H2 5385   0.750   4.135   4.773
 1814TIP3   OH2 5386   6.016   5.953   4.441
 1814TIP3    H1 5387   5.977   5.906   4.514
 1814TIP3    H2 5388   6.018   5.888   4.370
 1815TIP3   OH2 5389   4.467   7.362   4.007
 1815TIP3    H1 5390   4.540   7.422   3.992
 1815TIP3    H2 5391   4.389   7.415   3.992
 1816TIP3   OH2 5392   5.798   0.217   0.889
 1816TIP3    H1 5393   5.879   0.227   0.939
 1816TIP3    H2 5394   5.751   0.299   0.905
 1817TIP3   OH2 5395   0.573   6.103   2.554
 1817TIP3    H1 5396   0.628   6.169   2.596
 1817TIP3    H2 5397   0.632   6.053   2.498
 1818TIP3   OH2 5398   5.709   1.576   0.593
 1818TIP3    H1 5399   5.752   1.631   0.528
 1818TIP3    H2 5400   5.750   1.600   0.676
 1819TIP3   OH2 5401   7.937   6.559   4.911
 1819TIP3    H1 5402   7.932   6.499   4.836
 1819TIP3    H2 5403   7.968   6.642   4.873
 1820TIP3   OH2 5404   3.294   4.958   4.725
 1820TIP3    H1 5405   3.378   5.002   4.711
 1820TIP3    H2 5406   3.312   4.891   4.791
 1821TIP3   OH2 5407   7.789   5.852   0.476
 1821TIP3    H1 5408   7.736   5.778   0.505
 1821TIP3    H2 5409   7.874   5.814   0.453
 1822TIP3   OH2 5410   3.495   2.955   0.404
 1822TIP3    H1 5411   3.427   3.019   0.426
 1822TIP3    H2 5412   3.573   2.988   0.449
 1823TIP3   OH2 5413   4.592   1.006   5.059
 1823TIP3    H1 5414   4.560   1.000   5.148
 1823TIP3    H2 5415   4.589   0.917   5.025
 1824TIP3   OH2 5416   6.887   6.984   0.981
 1824TIP3    H1 5417   6.933   6.954   0.902
 1824TIP3    H2 5418   6.900   7.079   0.981
 1825TIP3   OH2 5419   3.147   6.258   4.253
 1825TIP3    H1 5420   3.192   6.247   4.337
 1825TIP3    H2 5421   3.111   6.172   4.234
 1826TIP3   OH2 5422   1.447   3.170   1.862
 1826TIP3    H1 5423   1.383   3.150   1.794
 1826TIP3    H2 5424   1.472   3.085   1.897
 1827TIP3   OH2 5425   2.900   2.243   1.569
 1827TIP3    H1 5426   2.995   2.230   1.580
 1827TIP3    H2 5427   2.861   2.161   1.599
 1828TIP3   OH2 5428   6.420   3.287   5.073
 1828TIP3    H1 5429   6.435   3.348   5.145
 1828TIP3    H2 5430   6.401   3.343   4.998
 1829TIP3   OH2 5431   7.475   3.862   2.787
 1829TIP3    H1 5432   7.418   3.883   2.862
 1829TIP3    H2 5433   7.438   3.783   2.749
 1830TIP3   OH2 5434   2.267   0.783   5.400
 1830TIP3    H1 5435   2.314   0.718   5.347
 1830TIP3    H2 5436   2.196   0.813   5.343
 1831TIP3   OH2 5437   2.705   5.169   0.949
 1831TIP3    H1 5438   2.694   5.167   1.044
 1831TIP3    H2 5439   2.689   5.079   0.921
 1832TIP3   OH2 5440   1.234   3.011   2.837
 1832TIP3    H1 5441   1.257   2.919   2.820
 1832TIP3    H2 5442   1.147   3.022   2.798
 1833TIP3   OH2 5443   0.638   3.545   2.170
 1833TIP3    H1 5444   0.563   3.534   2.227
 1833TIP3    H2 5445   0.712   3.558   2.229
 1834TIP3   OH2 5446   0.943   3.781   1.924
 1834TIP3    H1 5447   0.973   3.734   2.002
 1834TIP3    H2 5448   0.851   3.756   1.915
 1835TIP3   OH2 5449   2.834   5.293   6.642
 1835TIP3    H1 5450   2.788   5.211   6.623
 1835TIP3    H2 5451   2.826   5.303   6.737
 1836TIP3   OH2 5452   7.460   5.573   3.927
 1836TIP3    H1 5453   7.508   5.653   3.946
 1836TIP3    H2 5454   7.528   5.509   3.905
 1837TIP3   OH2 5455   0.562   7.017   6.336
 1837TIP3    H1 5456   0.596   7.057   6.255
 1837TIP3    H2 5457   0.631   7.033   6.400
 1838TIP3   OH2 5458   7.680   0.229   1.572
 1838TIP3    H1 5459   7.678   0.230   1.668
 1838TIP3    H2 5460   7.773   0.217   1.551
 1839TIP3   OH2 5461   1.018   0.470   2.203
 1839TIP3    H1 5462   1.087   0.419   2.247
 1839TIP3    H2 5463   0.962   0.500   2.275
 1840TIP3   OH2 5464   4.529   6.662   2.229
 1840TIP3    H1 5465   4.623   6.656   2.211
 1840TIP3    H2 5466   4.490   6.691   2.146
 1841TIP3   OH2 5467   1.381   3.461   2.268
 1841TIP3    H1 5468   1.354   3.393   2.207
 1841TIP3    H2 5469   1.344   3.434   2.352
 1842TIP3   OH2 5470   2.849   6.243   3.986
 1842TIP3    H1 5471   2.913   6.306   3.953
 1842TIP3    H2 5472   2.844   6.175   3.919
 1843TIP3   OH2 5473   5.421   2.408   0.490
 1843TIP3    H1 5474   5.374   2.343   0.438
 1843TIP3    H2 5475   5.353   2.461   0.532
 1844TIP3   OH2 5476   7.182   4.120   1.964
 1844TIP3    H1 5477   7.161   4.164   1.882
 1844TIP3    H2 5478   7.267   4.080   1.950
 1845TIP3   OH2 5479   2.229   0.283   1.339
 1845TIP3    H1 5480   2.317   0.257   1.312
 1845TIP3    H2 5481   2.232   0.379   1.342
 1846TIP3   OH2 5482   5.676   4.381   4.308
 1846TIP3    H1 5483   5.771   4.395   4.313
 1846TIP3    H2 5484   5.645   4.396   4.397
 1847TIP3   OH2 5485   3.410   3.975   2.712
 1847TIP3    H1 5486   3.373   3.890   2.688
 1847TIP3    H2 5487   3.398   3.981   2.806
 1848TIP3   OH2 5488   5.689   2.934   4.176
 1848TIP3    H1 5489   5.776   2.909   4.206
 1848TIP3    H2 5490   5.654   2.989   4.245
 1849TIP3   OH2 5491   5.616   1.225   2.721
 1849TIP3    H1 5492   5.635   1.164   2.650
 1849TIP3    H2 5493   5.667   1.192   2.795
 1850TIP3   OH2 5494   6.856   6.315   5.472
 1850TIP3    H1 5495   6.792   6.293   5.405
 1850TIP3    H2 5496   6.918   6.373   5.429
 1851TIP3   OH2 5497   0.718   2.532   5.255
 1851TIP3    H1 5498   0.749   2.599   5.193
 1851TIP3    H2 5499   0.631   2.509   5.223
 1852TIP3   OH2 5500   4.364   4.327   1.410
 1852TIP3    H1 5501   4.440   4.369   1.452
 1852TIP3    H2 5502   4.369   4.355   1.319
 1853TIP3   OH2 5503   7.558   6.832   3.019
 1853TIP3    H1 5504   7.596   6.779   2.949
 1853TIP3    H2 5505   7.547   6.919   2.980
 1854TIP3   OH2 5506   7.464   4.781   2.154
 1854TIP3    H1 5507   7.507   4.769   2.069
 1854TIP3    H2 5508   7.499   4.864   2.187
 1855TIP3   OH2 5509   5.274   5.963   3.921
 1855TIP3    H1 5510   5.331   6.028   3.880
 1855TIP3    H2 5511   5.240   5.912   3.848
 1856TIP3   OH2 5512   8.044   4.712   1.975
 1856TIP3    H1 5513   8.013   4.717   1.885
 1856TIP3    H2 5514   8.030   4.800   2.010
 1857TIP3   OH2 5515   1.483   1.200   0.964
 1857TIP3    H1 5516   1.457   1.278   0.915
 1857TIP3    H2 5517   1.438   1.208   1.048
 1858TIP3   OH2 5518   4.201   2.477   5.499
 1858TIP3    H1 5519   4.257   2.528   5.558
 1858TIP3    H2 5520   4.144   2.542   5.458
 1859TIP3   OH2 5521   3.865   0.746   6.559
 1859TIP3    H1 5522   3.780   0.759   6.516
 1859TIP3    H2 5523   3.857   0.794   6.641
 1860TIP3   OH2 5524   3.177   7.510   5.077
 1860TIP3    H1 5525   3.214   7.457   5.147
 1860TIP3    H2 5526   3.254   7.542   5.029
 1861TIP3   OH2 5527   2.931   1.722   4.961
 1861TIP3    H1 5528   2.844   1.707   4.924
 1861TIP3    H2 5529   2.950   1.814   4.941
 1862TIP3   OH2 5530   1.710   1.497   0.505
 1862TIP3    H1 5531   1.690   1.428   0.568
 1862TIP3    H2 5532   1.754   1.451   0.434
 1863TIP3   OH2 5533   4.071   0.480   6.330
 1863TIP3    H1 5534   3.986   0.476   6.286
 1863TIP3    H2 5535   4.130   0.430   6.273
 1864TIP3   OH2 5536   6.721   5.520   4.422
 1864TIP3    H1 5537   6.660   5.452   4.450
 1864TIP3    H2 5538   6.670   5.574   4.361
 1865TIP3   OH2 5539   1.405   6.707   1.527
 1865TIP3    H1 5540   1.486   6.667   1.495
 1865TIP3    H2 5541   1.425   6.731   1.618
 1866TIP3   OH2 5542   3.100   6.485   1.573
 1866TIP3    H1 5543   3.021   6.536   1.595
 1866TIP3    H2 5544   3.149   6.542   1.514
 1867TIP3   OH2 5545   6.361   0.187   3.425
 1867TIP3    H1 5546   6.436   0.196   3.366
 1867TIP3    H2 5547   6.354   0.093   3.441
 1868TIP3   OH2 5548   8.092   2.284   2.841
 1868TIP3    H1 5549   7.997   2.291   2.838
 1868TIP3    H2 5550   8.110   2.230   2.918
 1869TIP3   OH2 5551   3.205   0.858   1.024
 1869TIP3    H1 5552   3.283   0.903   0.993
 1869TIP3    H2 5553   3.202   0.877   1.118
 1870TIP3   OH2 5554   6.470   1.457   1.225
 1870TIP3    H1 5555   6.388   1.415   1.247
 1870TIP3    H2 5556   6.464   1.545   1.263
 1871TIP3   OH2 5557   5.348   7.409   0.204
 1871TIP3    H1 5558   5.302   7.419   0.120
 1871TIP3    H2 5559   5.433   7.452   0.190
 1872TIP3   OH2 5560   1.475   6.071   3.475
 1872TIP3    H1 5561   1.433   6.110   3.398
 1872TIP3    H2 5562   1.487   6.144   3.536
 1873TIP3   OH2 5563   6.929   4.341   0.306
 1873TIP3    H1 5564   6.997   4.283   0.273
 1873TIP3    H2 5565   6.919   4.318   0.398
 1874TIP3   OH2 5566   4.209   6.709   0.854
 1874TIP3    H1 5567   4.294   6.732   0.817
 1874TIP3    H2 5568   4.163   6.663   0.783
 1875TIP3   OH2 5569   7.867   7.517   3.347
 1875TIP3    H1 5570   7.867   7.432   3.390
 1875TIP3    H2 5571   7.865   7.497   3.253
 1876TIP3   OH2 5572   5.588   1.039   6.223
 1876TIP3    H1 5573   5.638   0.995   6.155
 1876TIP3    H2 5574   5.643   1.033   6.301
 1877TIP3   OH2 5575   6.937   1.684   0.325
 1877TIP3    H1 5576   6.870   1.638   0.275
 1877TIP3    H2 5577   6.896   1.767   0.349
 1878TIP3   OH2 5578   7.837   1.772   2.302
 1878TIP3    H1 5579   7.909   1.736   2.353
 1878TIP3    H2 5580   7.774   1.701   2.296
 1879TIP3   OH2 5581   5.862   5.620   5.963
 1879TIP3    H1 5582   5.948   5.661   5.971
 1879TIP3    H2 5583   5.805   5.688   5.926
 1880TIP3   OH2 5584   1.306   3.012   2.560
 1880TIP3    H1 5585   1.215   3.028   2.587
 1880TIP3    H2 5586   1.339   2.947   2.622
 1881TIP3   OH2 5587   7.457   2.058   3.073
 1881TIP3    H1 5588   7.432   2.136   3.024
 1881TIP3    H2 5589   7.405   1.988   3.035
 1882TIP3   OH2 5590   5.064   1.861   5.418
 1882TIP3    H1 5591   5.010   1.867   5.339
 1882TIP3    H2 5592   5.081   1.952   5.443
 1883TIP3   OH2 5593   1.750   6.410   0.555
 1883TIP3    H1 5594   1.754   6.424   0.460
 1883TIP3    H2 5595   1.780   6.492   0.593
 1884TIP3   OH2 5596   7.203   1.187   2.878
 1884TIP3    H1 5597   7.128   1.199   2.819
 1884TIP3    H2 5598   7.279   1.191   2.820
 1885TIP3   OH2 5599   5.047   1.727   1.542
 1885TIP3    H1 5600   5.050   1.736   1.447
 1885TIP3    H2 5601   5.128   1.680   1.564
 1886TIP3   OH2 5602   4.918   1.984   3.652
 1886TIP3    H1 5603   5.009   2.005   3.631
 1886TIP3    H2 5604   4.875   1.978   3.566
 1887TIP3   OH2 5605   3.566   3.100   2.690
 1887TIP3    H1 5606   3.595   3.069   2.775
 1887TIP3    H2 5607   3.502   3.169   2.709
 1888TIP3   OH2 5608   7.783   3.516   2.737
 1888TIP3    H1 5609   7.871   3.549   2.757
 1888TIP3    H2 5610   7.748   3.488   2.821
 1889TIP3   OH2 5611   4.447   5.156   6.752
 1889TIP3    H1 5612   4.502   5.233   6.741
 1889TIP3    H2 5613   4.471   5.099   6.679
 1890TIP3   OH2 5614   2.420   1.795   0.606
 1890TIP3    H1 5615   2.447   1.716   0.560
 1890TIP3    H2 5616   2.446   1.781   0.697
 1891TIP3   OH2 5617   4.763   5.335   3.028
 1891TIP3    H1 5618   4.855   5.335   3.056
 1891TIP3    H2 5619   4.755   5.258   2.971
 1892TIP3   OH2 5620   5.285   6.224   0.963
 1892TIP3    H1 5621   5.226   6.157   0.999
 1892TIP3    H2 5622   5.226   6.292   0.930
 1893TIP3   OH2 5623   3.361   4.196   0.188
 1893TIP3    H1 5624   3.309   4.157   0.117
 1893TIP3    H2 5625   3.315   4.169   0.268
 1894TIP3   OH2 5626   6.748   1.898   3.720
 1894TIP3    H1 5627   6.717   1.809   3.737
 1894TIP3    H2 5628   6.814   1.913   3.788
 1895TIP3   OH2 5629   6.958   3.534   5.583
 1895TIP3    H1 5630   6.905   3.537   5.662
 1895TIP3    H2 5631   6.943   3.446   5.547
 1896TIP3   OH2 5632   6.485   2.255   3.776
 1896TIP3    H1 5633   6.396   2.276   3.806
 1896TIP3    H2 5634   6.513   2.183   3.832
 1897TIP3   OH2 5635   0.486   4.524   6.316
 1897TIP3    H1 5636   0.473   4.618   6.309
 1897TIP3    H2 5637   0.397   4.488   6.321
 1898TIP3   OH2 5638   3.373   3.617   4.124
 1898TIP3    H1 5639   3.384   3.523   4.114
 1898TIP3    H2 5640   3.459   3.654   4.102
 1899TIP3   OH2 5641   6.661   4.181   5.716
 1899TIP3    H1 5642   6.599   4.122   5.672
 1899TIP3    H2 5643   6.747   4.139   5.702
 1900TIP3   OH2 5644   0.311   3.312   2.727
 1900TIP3    H1 5645   0.372   3.358   2.784
 1900TIP3    H2 5646   0.242   3.281   2.786
 1901TIP3   OH2 5647   2.529   4.814   4.409
 1901TIP3    H1 5648   2.613   4.846   4.374
 1901TIP3    H2 5649   2.473   4.891   4.411
 1902TIP3   OH2 5650   6.984   2.220   5.809
 1902TIP3    H1 5651   7.061   2.207   5.754
 1902TIP3    H2 5652   6.973   2.315   5.813
 1903TIP3   OH2 5653   7.212   1.391   5.690
 1903TIP3    H1 5654   7.257   1.376   5.773
 1903TIP3    H2 5655   7.151   1.463   5.708
 1904TIP3   OH2 5656   1.583   6.468   1.873
 1904TIP3    H1 5657   1.647   6.520   1.825
 1904TIP3    H2 5658   1.622   6.381   1.880
 1905TIP3   OH2 5659   3.931   0.445   6.579
 1905TIP3    H1 5660   3.932   0.539   6.594
 1905TIP3    H2 5661   3.956   0.435   6.487
 1906TIP3   OH2 5662   6.577   0.534   1.980
 1906TIP3    H1 5663   6.663   0.502   2.009
 1906TIP3    H2 5664   6.522   0.456   1.980
 1907TIP3   OH2 5665   4.639   5.318   1.720
 1907TIP3    H1 5666   4.654   5.272   1.638
 1907TIP3    H2 5667   4.708   5.288   1.778
 1908TIP3   OH2 5668   1.875   1.697   5.655
 1908TIP3    H1 5669   1.783   1.699   5.681
 1908TIP3    H2 5670   1.922   1.674   5.735
 1909TIP3   OH2 5671   6.920   0.619   4.911
 1909TIP3    H1 5672   7.005   0.575   4.903
 1909TIP3    H2 5673   6.941   0.705   4.947
 1910TIP3   OH2 5674   6.909   5.503   6.192
 1910TIP3    H1 5675   6.875   5.499   6.281
 1910TIP3    H2 5676   6.840   5.547   6.142
 1911TIP3   OH2 5677   2.389   2.528   1.915
 1911TIP3    H1 5678   2.427   2.459   1.969
 1911TIP3    H2 5679   2.402   2.609   1.965
 1912TIP3   OH2 5680   3.579   1.035   4.375
 1912TIP3    H1 5681   3.519   0.962   4.357
 1912TIP3    H2 5682   3.629   1.045   4.294
 1913TIP3   OH2 5683   4.773   2.211   2.363
 1913TIP3    H1 5684   4.765   2.149   2.290
 1913TIP3    H2 5685   4.758   2.297   2.324
 1914TIP3   OH2 5686   0.318   7.543   4.881
 1914TIP3    H1 5687   0.242   7.506   4.837
 1914TIP3    H2 5688   0.321   7.634   4.854
 1915TIP3   OH2 5689   4.992   6.355   2.375
 1915TIP3    H1 5690   5.048   6.322   2.305
 1915TIP3    H2 5691   4.903   6.336   2.346
 1916TIP3   OH2 5692   6.670   7.800   2.155
 1916TIP3    H1 5693   6.614   7.840   2.089
 1916TIP3    H2 5694   6.628   7.716   2.175
 1917TIP3   OH2 5695   1.394   2.900   6.488
 1917TIP3    H1 5696   1.477   2.864   6.521
 1917TIP3    H2 5697   1.421   2.967   6.425
 1918TIP3   OH2 5698   6.207   3.961   6.286
 1918TIP3    H1 5699   6.241   3.917   6.364
 1918TIP3    H2 5700   6.282   3.972   6.229
 1919TIP3   OH2 5701   2.338   6.653   4.214
 1919TIP3    H1 5702   2.300   6.583   4.161
 1919TIP3    H2 5703   2.398   6.698   4.155
 1920TIP3   OH2 5704   5.190   1.810   0.402
 1920TIP3    H1 5705   5.184   1.777   0.492
 1920TIP3    H2 5706   5.283   1.827   0.389
 1921TIP3   OH2 5707   8.195   7.151   0.560
 1921TIP3    H1 5708   8.165   7.219   0.620
 1921TIP3    H2 5709   8.287   7.137   0.582
 1922TIP3   OH2 5710   6.780   7.788   6.606
 1922TIP3    H1 5711   6.812   7.776   6.517
 1922TIP3    H2 5712   6.836   7.732   6.659
 1923TIP3   OH2 5713   4.980   3.725   4.364
 1923TIP3    H1 5714   4.950   3.798   4.310
 1923TIP3    H2 5715   5.009   3.765   4.446
 1924TIP3   OH2 5716   4.065   7.281   6.079
 1924TIP3    H1 5717   4.096   7.255   5.993
 1924TIP3    H2 5718   4.130   7.247   6.140
 1925TIP3   OH2 5719   5.365   5.765   5.335
 1925TIP3    H1 5720   5.329   5.682   5.302
 1925TIP3    H2 5721   5.395   5.744   5.423
 1926TIP3   OH2 5722   0.285   2.125   6.221
 1926TIP3    H1 5723   0.216   2.107   6.285
 1926TIP3    H2 5724   0.302   2.219   6.228
 1927TIP3   OH2 5725   6.699   6.992   0.702
 1927TIP3    H1 5726   6.685   7.057   0.633
 1927TIP3    H2 5727   6.793   6.995   0.719
 1928TIP3   OH2 5728   5.093   6.067   3.103
 1928TIP3    H1 5729   5.062   6.135   3.042
 1928TIP3    H2 5730   5.082   6.106   3.190
 1929TIP3   OH2 5731   6.363   6.890   6.434
 1929TIP3    H1 5732   6.355   6.835   6.512
 1929TIP3    H2 5733   6.298   6.959   6.448
 1930TIP3   OH2 5734   5.233   6.128   5.436
 1930TIP3    H1 5735   5.323   6.160   5.439
 1930TIP3    H2 5736   5.233   6.048   5.487
 1931TIP3   OH2 5737   0.256   0.207   3.159
 1931TIP3    H1 5738   0.205   0.126   3.153
 1931TIP3    H2 5739   0.322   0.199   3.089
 1932TIP3   OH2 5740   2.891   3.969   2.833
 1932TIP3    H1 5741   2.820   4.026   2.863
 1932TIP3    H2 5742   2.971   4.011   2.865
 1933TIP3   OH2 5743   2.729   3.791   5.199
 1933TIP3    H1 5744   2.770   3.854   5.259
 1933TIP3    H2 5745   2.673   3.737   5.255
 1934TIP3   OH2 5746   4.357   5.142   1.405
 1934TIP3    H1 5747   4.354   5.080   1.333
 1934TIP3    H2 5748   4.305   5.100   1.474
 1935TIP3   OH2 5749   5.228   3.875   5.629
 1935TIP3    H1 5750   5.137   3.900   5.617
 1935TIP3    H2 5751   5.250   3.823   5.552
 1936TIP3   OH2 5752   8.281   2.253   1.423
 1936TIP3    H1 5753   8.242   2.166   1.422
 1936TIP3    H2 5754   8.343   2.253   1.350
 1937TIP3   OH2 5755   8.160   4.834   4.061
 1937TIP3    H1 5756   8.181   4.745   4.090
 1937TIP3    H2 5757   8.242   4.866   4.024
 1938TIP3   OH2 5758   7.770   4.982   1.802
 1938TIP3    H1 5759   7.696   4.928   1.830
 1938TIP3    H2 5760   7.760   5.064   1.850
 1939TIP3   OH2 5761   5.810   0.611   6.779
 1939TIP3    H1 5762   5.884   0.561   6.815
 1939TIP3    H2 5763   5.756   0.545   6.735
 1940TIP3   OH2 5764   6.144   3.927   5.368
 1940TIP3    H1 5765   6.198   3.973   5.304
 1940TIP3    H2 5766   6.082   3.993   5.399
 1941TIP3   OH2 5767   7.108   7.604   0.321
 1941TIP3    H1 5768   7.203   7.607   0.332
 1941TIP3    H2 5769   7.095   7.559   0.238
 1942TIP3   OH2 5770   7.324   2.148   2.408
 1942TIP3    H1 5771   7.267   2.129   2.333
 1942TIP3    H2 5772   7.270   2.202   2.465
 1943TIP3   OH2 5773   2.662   1.245   5.365
 1943TIP3    H1 5774   2.617   1.324   5.395
 1943TIP3    H2 5775   2.753   1.271   5.356
 1944TIP3   OH2 5776   3.557   2.231   2.671
 1944TIP3    H1 5777   3.617   2.306   2.668
 1944TIP3    H2 5778   3.605   2.163   2.718
 1945TIP3   OH2 5779   2.624   2.960   2.987
 1945TIP3    H1 5780   2.565   3.032   3.012
 1945TIP3    H2 5781   2.647   2.977   2.896
 1946TIP3   OH2 5782   5.176   7.033   2.739
 1946TIP3    H1 5783   5.185   7.053   2.832
 1946TIP3    H2 5784   5.261   6.997   2.714
 1947TIP3   OH2 5785   5.926   0.072   0.678
 1947TIP3    H1 5786   5.843   0.091   0.721
 1947TIP3    H2 5787   5.963   0.158   0.658
 1948TIP3   OH2 5788   4.650   4.643   0.521
 1948TIP3    H1 5789   4.697   4.581   0.576
 1948TIP3    H2 5790   4.718   4.701   0.487
 1949TIP3   OH2 5791   2.777   0.289   2.865
 1949TIP3    H1 5792   2.817   0.358   2.919
 1949TIP3    H2 5793   2.851   0.244   2.825
 1950TIP3   OH2 5794   1.761   3.365   3.896
 1950TIP3    H1 5795   1.751   3.315   3.977
 1950TIP3    H2 5796   1.778   3.455   3.926
 1951TIP3   OH2 5797   3.734   4.528   4.936
 1951TIP3    H1 5798   3.797   4.506   4.867
 1951TIP3    H2 5799   3.731   4.449   4.991
 1952TIP3   OH2 5800   6.128   0.648   2.258
 1952TIP3    H1 5801   6.040   0.619   2.233
 1952TIP3    H2 5802   6.141   0.612   2.346
 1953TIP3   OH2 5803   4.653   6.562   6.310
 1953TIP3    H1 5804   4.732   6.569   6.363
 1953TIP3    H2 5805   4.586   6.609   6.360
 1954TIP3   OH2 5806   4.264   7.651   6.219
 1954TIP3    H1 5807   4.176   7.662   6.256
 1954TIP3    H2 5808   4.313   7.606   6.287
 1955TIP3   OH2 5809   3.971   2.132   5.280
 1955TIP3    H1 5810   3.911   2.122   5.206
 1955TIP3    H2 5811   3.929   2.195   5.338
 1956TIP3   OH2 5812   8.199   3.848   0.522
 1956TIP3    H1 5813   8.293   3.844   0.541
 1956TIP3    H2 5814   8.184   3.776   0.460
 1957TIP3   OH2 5815   5.340   3.429   4.994
 1957TIP3    H1 5816   5.310   3.467   5.077
 1957TIP3    H2 5817   5.302   3.341   4.993
 1958TIP3   OH2 5818   7.570   2.230   3.286
 1958TIP3    H1 5819   7.577   2.323   3.264
 1958TIP3    H2 5820   7.577   2.185   3.202
 1959TIP3   OH2 5821   4.550   3.508   1.847
 1959TIP3    H1 5822   4.544   3.577   1.781
 1959TIP3    H2 5823   4.515   3.548   1.926
 1960TIP3   OH2 5824   7.076   5.205   0.783
 1960TIP3    H1 5825   7.171   5.201   0.772
 1960TIP3    H2 5826   7.045   5.117   0.761
 1961TIP3   OH2 5827   5.955   2.328   2.957
 1961TIP3    H1 5828   6.042   2.319   2.997
 1961TIP3    H2 5829   5.900   2.267   3.005
 1962TIP3   OH2 5830   4.112   0.047   6.313
 1962TIP3    H1 5831   4.127  -0.012   6.239
 1962TIP3    H2 5832   4.026   0.022   6.347
 1963TIP3   OH2 5833   2.938   6.271   5.109
 1963TIP3    H1 5834   3.022   6.236   5.138
 1963TIP3    H2 5835   2.959   6.356   5.071
 1964TIP3   OH2 5836   8.137   0.429   0.273
 1964TIP3    H1 5837   8.177   0.373   0.207
 1964TIP3    H2 5838   8.044   0.429   0.251
 1965TIP3   OH2 5839   1.402   0.856   1.580
 1965TIP3    H1 5840   1.342   0.896   1.517
 1965TIP3    H2 5841   1.368   0.767   1.592
 1966TIP3   OH2 5842   0.063   5.651   0.237
 1966TIP3    H1 5843  -0.024   5.633   0.201
 1966TIP3    H2 5844   0.070   5.747   0.236
 1967TIP3   OH2 5845   1.351   0.791   4.326
 1967TIP3    H1 5846   1.419   0.725   4.322
 1967TIP3    H2 5847   1.314   0.782   4.414
 1968TIP3   OH2 5848   4.848   0.420   2.175
 1968TIP3    H1 5849   4.842   0.397   2.083
 1968TIP3    H2 5850   4.884   0.508   2.176
 1969TIP3   OH2 5851   7.930   4.600   2.974
 1969TIP3    H1 5852   7.890   4.656   2.908
 1969TIP3    H2 5853   7.860   4.542   3.003
 1970TIP3   OH2 5854   6.595   2.582   2.243
 1970TIP3    H1 5855   6.521   2.576   2.182
 1970TIP3    H2 5856   6.558   2.557   2.328
 1971TIP3   OH2 5857   2.986   1.089   4.517
 1971TIP3    H1 5858   2.945   1.124   4.596
 1971TIP3    H2 5859   3.061   1.039   4.550
 1972TIP3   OH2 5860   5.149   3.782   0.904
 1972TIP3    H1 5861   5.141   3.834   0.983
 1972TIP3    H2 5862   5.100   3.830   0.838
 1973TIP3   OH2 5863   5.405   5.962   4.155
 1973TIP3    H1 5864   5.415   6.057   4.161
 1973TIP3    H2 5865   5.361   5.948   4.071
 1974TIP3   OH2 5866   3.251   1.352   6.193
 1974TIP3    H1 5867   3.256   1.339   6.098
 1974TIP3    H2 5868   3.161   1.381   6.208
 1975TIP3   OH2 5869   0.258   4.128   5.245
 1975TIP3    H1 5870   0.308   4.047   5.245
 1975TIP3    H2 5871   0.324   4.197   5.252
 1976TIP3   OH2 5872   0.905   4.721   4.396
 1976TIP3    H1 5873   0.942   4.634   4.379
 1976TIP3    H2 5874   0.973   4.782   4.369
 1977TIP3   OH2 5875   2.101   3.765   4.895
 1977TIP3    H1 5876   2.185   3.752   4.938
 1977TIP3    H2 5877   2.076   3.678   4.865
 1978TIP3   OH2 5878   0.318   1.858   2.687
 1978TIP3    H1 5879   0.354   1.888   2.604
 1978TIP3    H2 5880   0.230   1.828   2.666
 1979TIP3   OH2 5881   0.841   1.901   6.627
 1979TIP3    H1 5882   0.807   1.816   6.598
 1979TIP3    H2 5883   0.765   1.959   6.624
 1980TIP3   OH2 5884   1.786   4.536   3.674
 1980TIP3    H1 5885   1.852   4.515   3.740
 1980TIP3    H2 5886   1.725   4.462   3.676
 1981TIP3   OH2 5887   2.621   0.543   5.302
 1981TIP3    H1 5888   2.566   0.533   5.379
 1981TIP3    H2 5889   2.595   0.471   5.244
 1982TIP3   OH2 5890   4.593   7.780   1.525
 1982TIP3    H1 5891   4.600   7.734   1.608
 1982TIP3    H2 5892   4.509   7.752   1.489
 1983TIP3   OH2 5893   1.040   5.095   1.098
 1983TIP3    H1 5894   1.067   5.030   1.032
 1983TIP3    H2 5895   0.948   5.110   1.079
 1984TIP3   OH2 5896   5.381   1.729   4.327
 1984TIP3    H1 5897   5.355   1.640   4.305
 1984TIP3    H2 5898   5.424   1.762   4.248
 1985TIP3   OH2 5899   3.889   7.114   1.804
 1985TIP3    H1 5900   3.907   7.039   1.859
 1985TIP3    H2 5901   3.963   7.117   1.742
 1986TIP3   OH2 5902   1.058   0.061   5.104
 1986TIP3    H1 5903   1.112  -0.019   5.111
 1986TIP3    H2 5904   0.970   0.032   5.126
 1987TIP3   OH2 5905   2.181   7.661   3.963
 1987TIP3    H1 5906   2.254   7.636   4.019
 1987TIP3    H2 5907   2.127   7.582   3.958
 1988TIP3   OH2 5908   1.830   6.071   4.645
 1988TIP3    H1 5909   1.795   6.073   4.734
 1988TIP3    H2 5910   1.917   6.032   4.654
 1989TIP3   OH2 5911   0.750   2.048   5.682
 1989TIP3    H1 5912   0.807   2.086   5.615
 1989TIP3    H2 5913   0.664   2.042   5.639
 1990TIP3   OH2 5914   3.180   3.647   5.940
 1990TIP3    H1 5915   3.111   3.659   5.875
 1990TIP3    H2 5916   3.260   3.676   5.898
 1991TIP3   OH2 5917   1.170   6.891   5.105
 1991TIP3    H1 5918   1.151   6.827   5.173
 1991TIP3    H2 5919   1.261   6.873   5.079
 1992TIP3   OH2 5920   5.978   0.231   3.035
 1992TIP3    H1 5921   5.965   0.266   2.946
 1992TIP3    H2 5922   5.892   0.196   3.059
 1993TIP3   OH2 5923   7.734   3.461   1.041
 1993TIP3    H1 5924   7.771   3.374   1.029
 1993TIP3    H2 5925   7.674   3.472   0.967
 1994TIP3   OH2 5926   8.202   2.322   6.573
 1994TIP3    H1 5927   8.196   2.298   6.481
 1994TIP3    H2 5928   8.290   2.359   6.583
 1995TIP3   OH2 5929   5.445   3.971   1.356
 1995TIP3    H1 5930   5.528   3.969   1.404
 1995TIP3    H2 5931   5.453   4.047   1.298
 1996TIP3   OH2 5932   5.108   5.800   1.404
 1996TIP3    H1 5933   5.160   5.743   1.461
 1996TIP3    H2 5934   5.020   5.762   1.408
 1997TIP3   OH2 5935   7.425   0.381   6.650
 1997TIP3    H1 5936   7.484   0.307   6.637
 1997TIP3    H2 5937   7.361   0.350   6.715
 1998TIP3   OH2 5938   3.974   6.821   5.884
 1998TIP3    H1 5939   4.008   6.771   5.810
 1998TIP3    H2 5940   4.051   6.854   5.929
 1999TIP3   OH2 5941   6.213   3.653   2.963
 1999TIP3    H1 5942   6.160   3.733   2.974
 1999TIP3    H2 5943   6.240   3.630   3.051
 2000TIP3   OH2 5944   2.235   0.071   1.570
 2000TIP3    H1 5945   2.220   0.118   1.488
 2000TIP3    H2 5946   2.156   0.019   1.582
 2001TIP3   OH2 5947   7.729   0.307   3.434
 2001TIP3    H1 5948   7.652   0.286   3.488
 2001TIP3    H2 5949   7.747   0.226   3.386
 2002TIP3   OH2 5950   2.085   3.005   1.042
 2002TIP3    H1 5951   2.084   2.910   1.054
 2002TIP3    H2 5952   2.148   3.020   0.972
 2003TIP3   OH2 5953   4.421   7.512   5.555
 2003TIP3    H1 5954   4.498   7.481   5.507
 2003TIP3    H2 5955   4.386   7.582   5.501
 2004TIP3   OH2 5956   6.653   4.991   1.679
 2004TIP3    H1 5957   6.728   5.050   1.671
 2004TIP3    H2 5958   6.650   4.969   1.772
 2005TIP3   OH2 5959   6.330   6.213   6.230
 2005TIP3    H1 5960   6.325   6.153   6.156
 2005TIP3    H2 5961   6.261   6.183   6.289
 2006TIP3   OH2 5962   3.983   4.284   0.400
 2006TIP3    H1 5963   3.895   4.291   0.363
 2006TIP3    H2 5964   3.977   4.326   0.485
 2007TIP3   OH2 5965   7.960   4.125   4.972
 2007TIP3    H1 5966   7.942   4.142   5.065
 2007TIP3    H2 5967   7.873   4.124   4.931
 2008TIP3   OH2 5968   1.155   7.316   0.332
 2008TIP3    H1 5969   1.151   7.221   0.335
 2008TIP3    H2 5970   1.066   7.345   0.350
 2009TIP3   OH2 5971   4.310   1.754   0.191
 2009TIP3    H1 5972   4.259   1.703   0.127
 2009TIP3    H2 5973   4.277   1.844   0.181
 2010TIP3   OH2 5974   7.193   5.693   0.706
 2010TIP3    H1 5975   7.135   5.635   0.657
 2010TIP3    H2 5976   7.164   5.781   0.683
 2011TIP3   OH2 5977   1.170   5.241   4.399
 2011TIP3    H1 5978   1.255   5.226   4.358
 2011TIP3    H2 5979   1.191   5.269   4.488
 2012TIP3   OH2 5980   6.770   3.053   4.301
 2012TIP3    H1 5981   6.701   3.119   4.310
 2012TIP3    H2 5982   6.787   3.048   4.207
 2013TIP3   OH2 5983   2.954   1.056   0.057
 2013TIP3    H1 5984   2.883   1.083  -0.002
 2013TIP3    H2 5985   2.937   0.963   0.073
 2014TIP3   OH2 5986   4.424   2.200   4.864
 2014TIP3    H1 5987   4.514   2.191   4.832
 2014TIP3    H2 5988   4.417   2.136   4.935
 2015TIP3   OH2 5989   6.209   1.011   4.362
 2015TIP3    H1 5990   6.288   0.962   4.340
 2015TIP3    H2 5991   6.239   1.100   4.380
 2016TIP3   OH2 5992   2.362   4.899   0.864
 2016TIP3    H1 5993   2.390   4.962   0.930
 2016TIP3    H2 5994   2.331   4.823   0.915
 2017TIP3   OH2 5995   6.223   7.054   2.043
 2017TIP3    H1 5996   6.277   7.010   2.109
 2017TIP3    H2 5997   6.284   7.071   1.970
 2018TIP3   OH2 5998   6.267   5.527   0.724
 2018TIP3    H1 5999   6.284   5.433   0.723
 2018TIP3    H2 6000   6.313   5.558   0.802
 2019TIP3   OH2 6001   2.855   6.097   3.187
 2019TIP3    H1 6002   2.900   6.140   3.260
 2019TIP3    H2 6003   2.787   6.044   3.229
 2020TIP3   OH2 6004   0.193   5.873   2.852
 2020TIP3    H1 6005   0.119   5.816   2.873
 2020TIP3    H2 6006   0.258   5.814   2.812
 2021TIP3   OH2 6007   4.356   0.557   3.917
 2021TIP3    H1 6008   4.404   0.551   4.000
 2021TIP3    H2 6009   4.358   0.651   3.895
 2022TIP3   OH2 6010   6.797   4.810   3.890
 2022TIP3    H1 6011   6.848   4.741   3.848
 2022TIP3    H2 6012   6.745   4.848   3.819
 2023TIP3   OH2 6013   2.970   0.533   1.617
 2023TIP3    H1 6014   2.959   0.582   1.535
 2023TIP3    H2 6015   3.050   0.484   1.605
 2024TIP3   OH2 6016   4.219   1.698   4.166
 2024TIP3    H1 6017   4.230   1.793   4.170
 2024TIP3    H2 6018   4.231   1.677   4.073
 2025TIP3   OH2 6019   7.221   2.591   0.632
 2025TIP3    H1 6020   7.282   2.632   0.693
 2025TIP3    H2 6021   7.265   2.511   0.603
 2026TIP3   OH2 6022   2.201   3.706   5.188
 2026TIP3    H1 6023   2.105   3.704   5.189
 2026TIP3    H2 6024   2.226   3.621   5.152
 2027TIP3   OH2 6025   7.861   0.774   4.030
 2027TIP3    H1 6026   7.809   0.701   4.063
 2027TIP3    H2 6027   7.940   0.734   3.995
 2028TIP3   OH2 6028   7.509   6.860   0.254
 2028TIP3    H1 6029   7.509   6.955   0.255
 2028TIP3    H2 6030   7.425   6.835   0.293
 2029TIP3   OH2 6031   8.202   7.681   0.297
 2029TIP3    H1 6032   8.192   7.609   0.359
 2029TIP3    H2 6033   8.218   7.758   0.352
 2030TIP3   OH2 6034   7.195   2.146   1.632
 2030TIP3    H1 6035   7.172   2.237   1.613
 2030TIP3    H2 6036   7.112   2.098   1.621
 2031TIP3   OH2 6037   1.151   5.284   4.692
 2031TIP3    H1 6038   1.177   5.198   4.724
 2031TIP3    H2 6039   1.058   5.290   4.711
 2032TIP3   OH2 6040   6.347   0.136   4.631
 2032TIP3    H1 6041   6.396   0.062   4.668
 2032TIP3    H2 6042   6.365   0.208   4.691
 2033TIP3   OH2 6043   2.435   1.980   4.872
 2033TIP3    H1 6044   2.471   2.007   4.787
 2033TIP3    H2 6045   2.490   2.024   4.937
 2034TIP3   OH2 6046   0.651   5.346   3.261
 2034TIP3    H1 6047   0.612   5.419   3.212
 2034TIP3    H2 6048   0.591   5.272   3.245
 2035TIP3   OH2 6049   6.814   4.238   2.931
 2035TIP3    H1 6050   6.892   4.247   2.876
 2035TIP3    H2 6051   6.746   4.206   2.872
 2036TIP3   OH2 6052   5.511   3.779   5.891
 2036TIP3    H1 6053   5.418   3.800   5.881
 2036TIP3    H2 6054   5.533   3.729   5.812
 2037TIP3   OH2 6055   3.109   6.796   1.630
 2037TIP3    H1 6056   3.086   6.728   1.566
 2037TIP3    H2 6057   3.184   6.761   1.677
 2038TIP3   OH2 6058   2.711   2.997   0.987
 2038TIP3    H1 6059   2.618   2.976   0.992
 2038TIP3    H2 6060   2.718   3.085   1.023
 2039TIP3   OH2 6061   4.394   0.656   2.279
 2039TIP3    H1 6062   4.451   0.578   2.283
 2039TIP3    H2 6063   4.327   0.639   2.345
 2040TIP3   OH2 6064   5.852   4.284   3.635
 2040TIP3    H1 6065   5.855   4.247   3.723
 2040TIP3    H2 6066   5.895   4.369   3.643
 2041TIP3   OH2 6067   6.104   4.118   0.178
 2041TIP3    H1 6068   6.019   4.145   0.214
 2041TIP3    H2 6069   6.109   4.162   0.093
 2042TIP3   OH2 6070   4.027   1.763   1.631
 2042TIP3    H1 6071   3.995   1.819   1.701
 2042TIP3    H2 6072   4.000   1.674   1.656
 2043TIP3   OH2 6073   4.530   1.963   5.433
 2043TIP3    H1 6074   4.465   1.897   5.454
 2043TIP3    H2 6075   4.482   2.046   5.434
 2044TIP3   OH2 6076   5.754   2.241   1.791
 2044TIP3    H1 6077   5.761   2.148   1.772
 2044TIP3    H2 6078   5.675   2.269   1.744
 2045TIP3   OH2 6079   8.251   3.389   0.893
 2045TIP3    H1 6080   8.189   3.381   0.966
 2045TIP3    H2 6081   8.295   3.472   0.909
 2046TIP3   OH2 6082   3.792   7.664   0.954
 2046TIP3    H1 6083   3.776   7.573   0.932
 2046TIP3    H2 6084   3.776   7.712   0.873
 2047TIP3   OH2 6085   7.614   3.778   3.845
 2047TIP3    H1 6086   7.587   3.847   3.905
 2047TIP3    H2 6087   7.540   3.718   3.842
 2048TIP3   OH2 6088   3.067   0.118   6.339
 2048TIP3    H1 6089   2.975   0.134   6.320
 2048TIP3    H2 6090   3.080   0.152   6.428
 2049TIP3   OH2 6091   3.528   3.080   6.283
 2049TIP3    H1 6092   3.610   3.110   6.321
 2049TIP3    H2 6093   3.470   3.156   6.287
 2050TIP3   OH2 6094   0.755   1.882   0.708
 2050TIP3    H1 6095   0.736   1.887   0.615
 2050TIP3    H2 6096   0.723   1.964   0.744
 2051TIP3   OH2 6097   5.227   0.123   5.152
 2051TIP3    H1 6098   5.186   0.171   5.080
 2051TIP3    H2 6099   5.245   0.036   5.116
 2052TIP3   OH2 6100   6.681   6.332   5.258
 2052TIP3    H1 6101   6.641   6.417   5.277
 2052TIP3    H2 6102   6.615   6.286   5.205
 2053TIP3   OH2 6103   0.278   5.858   6.329
 2053TIP3    H1 6104   0.269   5.780   6.384
 2053TIP3    H2 6105   0.188   5.890   6.318
 2054TIP3   OH2 6106   6.334   2.726   5.652
 2054TIP3    H1 6107   6.404   2.759   5.710
 2054TIP3    H2 6108   6.262   2.705   5.712
 2055TIP3   OH2 6109   4.115   2.872   1.155
 2055TIP3    H1 6110   4.196   2.911   1.124
 2055TIP3    H2 6111   4.132   2.853   1.247
 2056TIP3   OH2 6112   0.790   0.619   3.181
 2056TIP3    H1 6113   0.719   0.574   3.228
 2056TIP3    H2 6114   0.870   0.576   3.211
 2057TIP3   OH2 6115   3.309   6.232   3.642
 2057TIP3    H1 6116   3.358   6.299   3.595
 2057TIP3    H2 6117   3.218   6.259   3.637
 2058TIP3   OH2 6118   7.795   5.903   2.739
 2058TIP3    H1 6119   7.821   5.862   2.656
 2058TIP3    H2 6120   7.800   5.997   2.722
 2059TIP3   OH2 6121   1.123   4.226   5.538
 2059TIP3    H1 6122   1.207   4.182   5.553
 2059TIP3    H2 6123   1.138   4.316   5.568
 2060TIP3   OH2 6124   6.127   6.582   3.598
 2060TIP3    H1 6125   6.071   6.540   3.532
 2060TIP3    H2 6126   6.207   6.530   3.596
 2061TIP3   OH2 6127   8.037   1.246   5.137
 2061TIP3    H1 6128   8.026   1.183   5.065
 2061TIP3    H2 6129   7.979   1.213   5.206
 2062TIP3   OH2 6130   0.271   2.375   3.302
 2062TIP3    H1 6131   0.245   2.433   3.230
 2062TIP3    H2 6132   0.366   2.386   3.307
 2063TIP3   OH2 6133   0.994   2.868   3.408
 2063TIP3    H1 6134   0.902   2.845   3.417
 2063TIP3    H2 6135   0.999   2.958   3.441
 2064TIP3   OH2 6136   1.474   3.332   0.713
 2064TIP3    H1 6137   1.411   3.360   0.780
 2064TIP3    H2 6138   1.507   3.414   0.675
 2065TIP3   OH2 6139   2.353   2.214   0.467
 2065TIP3    H1 6140   2.291   2.149   0.436
 2065TIP3    H2 6141   2.305   2.263   0.534
 2066TIP3   OH2 6142   3.170   4.253   5.065
 2066TIP3    H1 6143   3.262   4.251   5.038
 2066TIP3    H2 6144   3.121   4.237   4.985
 2067TIP3   OH2 6145   4.593   2.981   6.417
 2067TIP3    H1 6146   4.657   3.030   6.364
 2067TIP3    H2 6147   4.643   2.908   6.454
 2068TIP3   OH2 6148   7.894   1.824   5.355
 2068TIP3    H1 6149   7.864   1.815   5.446
 2068TIP3    H2 6150   7.819   1.800   5.302
 2069TIP3   OH2 6151   8.012   0.690   0.348
 2069TIP3    H1 6152   8.085   0.663   0.404
 2069TIP3    H2 6153   8.030   0.648   0.264
 2070TIP3   OH2 6154   2.596   0.867   5.452
 2070TIP3    H1 6155   2.681   0.912   5.448
 2070TIP3    H2 6156   2.598   0.807   5.377
 2071TIP3   OH2 6157   0.285   5.058   2.580
 2071TIP3    H1 6158   0.361   5.080   2.527
 2071TIP3    H2 6159   0.268   5.137   2.632
 2072TIP3   OH2 6160   3.891   3.070   0.428
 2072TIP3    H1 6161   3.845   2.997   0.386
 2072TIP3    H2 6162   3.883   3.142   0.366
 2073TIP3   OH2 6163   5.626   4.309   4.764
 2073TIP3    H1 6164   5.669   4.394   4.761
 2073TIP3    H2 6165   5.611   4.293   4.857
 2074TIP3   OH2 6166   4.703   4.364   2.830
 2074TIP3    H1 6167   4.651   4.287   2.808
 2074TIP3    H2 6168   4.792   4.342   2.803
 2075TIP3   OH2 6169   7.628   6.669   6.556
 2075TIP3    H1 6170   7.667   6.600   6.502
 2075TIP3    H2 6171   7.701   6.729   6.574
 2076TIP3   OH2 6172   1.807   2.832   2.199
 2076TIP3    H1 6173   1.768   2.917   2.222
 2076TIP3    H2 6174   1.733   2.772   2.193
 2077TIP3   OH2 6175   2.984   7.487   3.701
 2077TIP3    H1 6176   2.936   7.405   3.687
 2077TIP3    H2 6177   2.940   7.529   3.775
 2078TIP3   OH2 6178   2.815   6.180   5.717
 2078TIP3    H1 6179   2.737   6.227   5.689
 2078TIP3    H2 6180   2.831   6.211   5.806
 2079TIP3   OH2 6181   7.099   4.254   1.654
 2079TIP3    H1 6182   7.154   4.332   1.649
 2079TIP3    H2 6183   7.016   4.284   1.690
 2080TIP3   OH2 6184   0.709   4.012   5.033
 2080TIP3    H1 6185   0.775   4.059   5.084
 2080TIP3    H2 6186   0.706   4.058   4.949
 2081TIP3   OH2 6187   7.041   2.708   4.550
 2081TIP3    H1 6188   7.041   2.726   4.645
 2081TIP3    H2 6189   6.964   2.754   4.517
 2082TIP3   OH2 6190   8.129   3.004   2.046
 2082TIP3    H1 6191   8.129   2.950   2.125
 2082TIP3    H2 6192   8.175   3.084   2.071
 2083TIP3   OH2 6193   2.058   0.675   5.652
 2083TIP3    H1 6194   2.120   0.698   5.722
 2083TIP3    H2 6195   2.032   0.758   5.614
 2084TIP3   OH2 6196   2.952   1.194   6.091
 2084TIP3    H1 6197   2.986   1.282   6.106
 2084TIP3    H2 6198   2.886   1.182   6.159
 2085TIP3   OH2 6199   0.494   4.110   3.324
 2085TIP3    H1 6200   0.574   4.140   3.367
 2085TIP3    H2 6201   0.509   4.125   3.231
 2086TIP3   OH2 6202   4.894   4.408   2.514
 2086TIP3    H1 6203   4.799   4.407   2.499
 2086TIP3    H2 6204   4.906   4.354   2.592
 2087TIP3   OH2 6205   3.379   0.843   6.724
 2087TIP3    H1 6206   3.383   0.869   6.816
 2087TIP3    H2 6207   3.450   0.892   6.682
 2088TIP3   OH2 6208   5.417   5.654   6.504
 2088TIP3    H1 6209   5.451   5.617   6.423
 2088TIP3    H2 6210   5.372   5.581   6.547
 2089TIP3   OH2 6211   0.555   4.618   1.020
 2089TIP3    H1 6212   0.549   4.536   1.069
 2089TIP3    H2 6213   0.645   4.649   1.035
 2090TIP3   OH2 6214   3.615   4.962   5.859
 2090TIP3    H1 6215   3.605   4.955   5.764
 2090TIP3    H2 6216   3.704   4.997   5.871
 2091TIP3   OH2 6217   5.059   7.079   3.453
 2091TIP3    H1 6218   5.040   7.023   3.528
 2091TIP3    H2 6219   5.033   7.167   3.482
 2092TIP3   OH2 6220   4.279   5.280   2.822
 2092TIP3    H1 6221   4.209   5.219   2.847
 2092TIP3    H2 6222   4.358   5.227   2.824
 2093TIP3   OH2 6223   6.942   7.660   5.269
 2093TIP3    H1 6224   6.857   7.676   5.311
 2093TIP3    H2 6225   7.006   7.686   5.335
 2094TIP3   OH2 6226   2.771   4.625   4.603
 2094TIP3    H1 6227   2.788   4.720   4.599
 2094TIP3    H2 6228   2.686   4.615   4.560
 2095TIP3   OH2 6229   1.590   1.955   3.531
 2095TIP3    H1 6230   1.618   1.984   3.444
 2095TIP3    H2 6231   1.494   1.958   3.527
 2096TIP3   OH2 6232   0.494   5.948   4.223
 2096TIP3    H1 6233   0.477   5.878   4.286
 2096TIP3    H2 6234   0.446   6.023   4.257
 2097TIP3   OH2 6235   5.452   6.265   5.259
 2097TIP3    H1 6236   5.510   6.334   5.227
 2097TIP3    H2 6237   5.371   6.276   5.209
 2098TIP3   OH2 6238   1.175   5.039   5.110
 2098TIP3    H1 6239   1.109   5.076   5.170
 2098TIP3    H2 6240   1.257   5.079   5.137
 2099TIP3   OH2 6241   2.228   4.933   4.718
 2099TIP3    H1 6242   2.267   5.006   4.669
 2099TIP3    H2 6243   2.186   4.973   4.793
 2100TIP3   OH2 6244   5.666   4.590   5.275
 2100TIP3    H1 6245   5.749   4.613   5.317
 2100TIP3    H2 6246   5.660   4.495   5.282
 2101TIP3   OH2 6247   4.236   0.060   6.609
 2101TIP3    H1 6248   4.237   0.137   6.553
 2101TIP3    H2 6249   4.147   0.026   6.601
 2102TIP3   OH2 6250   6.238   6.392   4.794
 2102TIP3    H1 6251   6.329   6.368   4.779
 2102TIP3    H2 6252   6.223   6.467   4.736
 2103TIP3   OH2 6253   5.576   1.954   1.912
 2103TIP3    H1 6254   5.589   2.012   1.837
 2103TIP3    H2 6255   5.494   1.983   1.951
 2104TIP3   OH2 6256   6.200   3.135   0.226
 2104TIP3    H1 6257   6.185   3.064   0.289
 2104TIP3    H2 6258   6.175   3.214   0.273
 2105TIP3   OH2 6259   3.748   4.237   1.753
 2105TIP3    H1 6260   3.815   4.261   1.689
 2105TIP3    H2 6261   3.786   4.163   1.800
 2106TIP3   OH2 6262   3.514   5.348   4.446
 2106TIP3    H1 6263   3.480   5.264   4.414
 2106TIP3    H2 6264   3.437   5.396   4.475
 2107TIP3   OH2 6265   5.321   1.642   2.723
 2107TIP3    H1 6266   5.319   1.728   2.765
 2107TIP3    H2 6267   5.257   1.648   2.653
 2108TIP3   OH2 6268   0.478   6.880   1.409
 2108TIP3    H1 6269   0.401   6.922   1.373
 2108TIP3    H2 6270   0.489   6.801   1.356
 2109TIP3   OH2 6271   4.762   2.507   2.247
 2109TIP3    H1 6272   4.708   2.529   2.171
 2109TIP3    H2 6273   4.839   2.563   2.240
 2110TIP3   OH2 6274   1.924   4.675   5.313
 2110TIP3    H1 6275   1.908   4.749   5.254
 2110TIP3    H2 6276   1.929   4.714   5.400
 2111TIP3   OH2 6277   5.678   2.266   5.000
 2111TIP3    H1 6278   5.618   2.265   5.075
 2111TIP3    H2 6279   5.624   2.241   4.925
 2112TIP3   OH2 6280   3.147   4.288   4.186
 2112TIP3    H1 6281   3.126   4.351   4.254
 2112TIP3    H2 6282   3.136   4.336   4.104
 2113TIP3   OH2 6283   6.482   3.384   6.057
 2113TIP3    H1 6284   6.497   3.458   5.997
 2113TIP3    H2 6285   6.389   3.389   6.078
 2114TIP3   OH2 6286   4.316   3.480   0.089
 2114TIP3    H1 6287   4.326   3.506   0.181
 2114TIP3    H2 6288   4.321   3.562   0.040
 2115TIP3   OH2 6289   1.043   4.604   5.332
 2115TIP3    H1 6290   0.995   4.644   5.405
 2115TIP3    H2 6291   1.088   4.678   5.291
 2116TIP3   OH2 6292   6.804   6.265   3.584
 2116TIP3    H1 6293   6.832   6.351   3.554
 2116TIP3    H2 6294   6.712   6.277   3.609
 2117TIP3   OH2 6295   3.161   3.791   2.671
 2117TIP3    H1 6296   3.070   3.787   2.642
 2117TIP3    H2 6297   3.209   3.739   2.606
 2118TIP3   OH2 6298   5.231   7.633   4.331
 2118TIP3    H1 6299   5.210   7.573   4.260
 2118TIP3    H2 6300   5.183   7.713   4.310
 2119TIP3   OH2 6301   5.007   5.467   1.135
 2119TIP3    H1 6302   5.009   5.419   1.052
 2119TIP3    H2 6303   4.950   5.415   1.192
 2120TIP3   OH2 6304   6.763   4.891   2.776
 2120TIP3    H1 6305   6.712   4.951   2.722
 2120TIP3    H2 6306   6.795   4.825   2.714
 2121TIP3   OH2 6307   6.335   5.008   4.413
 2121TIP3    H1 6308   6.345   5.009   4.318
 2121TIP3    H2 6309   6.244   4.983   4.428
 2122TIP3   OH2 6310   0.242   7.008   0.369
 2122TIP3    H1 6311   0.253   6.929   0.422
 2122TIP3    H2 6312   0.148   7.012   0.349
 2123TIP3   OH2 6313   4.523   5.538   5.131
 2123TIP3    H1 6314   4.589   5.479   5.094
 2123TIP3    H2 6315   4.574   5.608   5.170
 2124TIP3   OH2 6316   5.689   4.641   6.664
 2124TIP3    H1 6317   5.656   4.561   6.704
 2124TIP3    H2 6318   5.781   4.646   6.689
 2125TIP3   OH2 6319   8.188   0.755   1.857
 2125TIP3    H1 6320   8.275   0.753   1.899
 2125TIP3    H2 6321   8.129   0.783   1.927
 2126TIP3   OH2 6322   5.523   7.446   4.288
 2126TIP3    H1 6323   5.491   7.502   4.217
 2126TIP3    H2 6324   5.585   7.500   4.336
 2127TIP3   OH2 6325   6.677   3.446   6.382
 2127TIP3    H1 6326   6.703   3.355   6.400
 2127TIP3    H2 6327   6.592   3.438   6.339
 2128TIP3   OH2 6328   4.155   2.058   5.662
 2128TIP3    H1 6329   4.080   2.047   5.719
 2128TIP3    H2 6330   4.133   2.008   5.583
 2129TIP3   OH2 6331   7.413   2.346   0.528
 2129TIP3    H1 6332   7.361   2.374   0.454
 2129TIP3    H2 6333   7.495   2.315   0.490
 2130TIP3   OH2 6334   0.266   0.786   2.389
 2130TIP3    H1 6335   0.195   0.741   2.343
 2130TIP3    H2 6336   0.257   0.758   2.480
 2131TIP3   OH2 6337   5.080   3.811   3.014
 2131TIP3    H1 6338   5.064   3.720   3.040
 2131TIP3    H2 6339   5.121   3.851   3.090
 2132TIP3   OH2 6340   6.463   4.018   3.831
 2132TIP3    H1 6341   6.378   4.053   3.860
 2132TIP3    H2 6342   6.445   3.926   3.809
 2133TIP3   OH2 6343   6.000   0.404   0.430
 2133TIP3    H1 6344   6.017   0.411   0.337
 2133TIP3    H2 6345   5.911   0.368   0.436
 2134TIP3   OH2 6346   5.619   4.742   1.724
 2134TIP3    H1 6347   5.605   4.647   1.722
 2134TIP3    H2 6348   5.640   4.765   1.634
 2135TIP3   OH2 6349   7.366   3.143   3.099
 2135TIP3    H1 6350   7.409   3.228   3.107
 2135TIP3    H2 6351   7.362   3.127   3.005
 2136TIP3   OH2 6352   1.856   3.733   1.558
 2136TIP3    H1 6353   1.893   3.650   1.527
 2136TIP3    H2 6354   1.906   3.800   1.512
 2137TIP3   OH2 6355   5.746   1.250   1.828
 2137TIP3    H1 6356   5.838   1.273   1.817
 2137TIP3    H2 6357   5.747   1.178   1.892
 2138TIP3   OH2 6358   0.760   2.166   4.549
 2138TIP3    H1 6359   0.838   2.201   4.592
 2138TIP3    H2 6360   0.784   2.078   4.522
 2139TIP3   OH2 6361   7.850   0.079   1.023
 2139TIP3    H1 6362   7.946   0.077   1.019
 2139TIP3    H2 6363   7.826   0.166   0.993
 2140TIP3   OH2 6364   4.931   5.334   0.253
 2140TIP3    H1 6365   4.895   5.407   0.303
 2140TIP3    H2 6366   4.859   5.306   0.196
 2141TIP3   OH2 6367   3.003   2.453   1.848
 2141TIP3    H1 6368   3.038   2.369   1.877
 2141TIP3    H2 6369   3.055   2.476   1.772
 2142TIP3   OH2 6370   7.108   4.885   1.665
 2142TIP3    H1 6371   7.014   4.888   1.645
 2142TIP3    H2 6372   7.144   4.963   1.623
 2143TIP3   OH2 6373   2.003   2.733   6.224
 2143TIP3    H1 6374   1.917   2.694   6.215
 2143TIP3    H2 6375   2.038   2.698   6.305
 2144TIP3   OH2 6376   0.420   3.949   5.023
 2144TIP3    H1 6377   0.486   4.016   5.006
 2144TIP3    H2 6378   0.443   3.877   4.963
 2145TIP3   OH2 6379   3.080   4.783   5.292
 2145TIP3    H1 6380   3.051   4.693   5.308
 2145TIP3    H2 6381   3.132   4.778   5.212
 2146TIP3   OH2 6382   5.002   7.279   5.492
 2146TIP3    H1 6383   5.015   7.327   5.410
 2146TIP3    H2 6384   4.907   7.285   5.508
 2147TIP3   OH2 6385   6.423   4.439   0.707
 2147TIP3    H1 6386   6.370   4.449   0.628
 2147TIP3    H2 6387   6.507   4.407   0.675
 2148TIP3   OH2 6388   4.464   7.314   1.216
 2148TIP3    H1 6389   4.465   7.273   1.302
 2148TIP3    H2 6390   4.451   7.242   1.155
 2149TIP3   OH2 6391   1.559   2.999   4.210
 2149TIP3    H1 6392   1.481   2.999   4.155
 2149TIP3    H2 6393   1.558   2.913   4.252
 2150TIP3   OH2 6394   1.210   1.845   0.915
 2150TIP3    H1 6395   1.240   1.936   0.913
 2150TIP3    H2 6396   1.258   1.802   0.845
 2151TIP3   OH2 6397   6.009   5.674   4.289
 2151TIP3    H1 6398   5.983   5.615   4.218
 2151TIP3    H2 6399   5.931   5.681   4.344
 2152TIP3   OH2 6400   4.408   6.399   1.354
 2152TIP3    H1 6401   4.416   6.490   1.325
 2152TIP3    H2 6402   4.320   6.372   1.326
 2153TIP3   OH2 6403   7.623   0.627   0.239
 2153TIP3    H1 6404   7.636   0.716   0.209
 2153TIP3    H2 6405   7.540   0.600   0.199
 2154TIP3   OH2 6406   5.764   0.462   0.612
 2154TIP3    H1 6407   5.767   0.498   0.701
 2154TIP3    H2 6408   5.683   0.412   0.608
 2155TIP3   OH2 6409   0.851   0.724   5.592
 2155TIP3    H1 6410   0.847   0.710   5.686
 2155TIP3    H2 6411   0.786   0.792   5.574
 2156TIP3   OH2 6412   1.254   5.722   6.513
 2156TIP3    H1 6413   1.194   5.781   6.467
 2156TIP3    H2 6414   1.325   5.779   6.544
 2157TIP3   OH2 6415   4.041   0.823   3.991
 2157TIP3    H1 6416   4.004   0.909   4.011
 2157TIP3    H2 6417   4.021   0.810   3.899
 2158TIP3   OH2 6418   4.207   4.037   6.282
 2158TIP3    H1 6419   4.177   4.022   6.192
 2158TIP3    H2 6420   4.295   3.999   6.285
 2159TIP3   OH2 6421   3.295   7.639   4.808
 2159TIP3    H1 6422   3.300   7.727   4.844
 2159TIP3    H2 6423   3.355   7.639   4.734
 2160TIP3   OH2 6424   6.308   7.727   6.738
 2160TIP3    H1 6425   6.382   7.746   6.796
 2160TIP3    H2 6426   6.333   7.769   6.655
 2161TIP3   OH2 6427   4.038   3.202   1.994
 2161TIP3    H1 6428   4.012   3.294   2.001
 2161TIP3    H2 6429   3.956   3.154   2.008
 2162TIP3   OH2 6430   6.447   1.281   3.091
 2162TIP3    H1 6431   6.496   1.363   3.085
 2162TIP3    H2 6432   6.515   1.213   3.089
 2163TIP3   OH2 6433   5.348   3.131   5.297
 2163TIP3    H1 6434   5.410   3.109   5.367
 2163TIP3    H2 6435   5.314   3.216   5.322
 2164TIP3   OH2 6436   2.653   1.770   3.225
 2164TIP3    H1 6437   2.638   1.849   3.277
 2164TIP3    H2 6438   2.591   1.706   3.259
 2165TIP3   OH2 6439   5.338   2.868   0.408
 2165TIP3    H1 6440   5.254   2.832   0.378
 2165TIP3    H2 6441   5.399   2.795   0.401
 2166TIP3   OH2 6442   3.451   4.797   2.655
 2166TIP3    H1 6443   3.514   4.810   2.726
 2166TIP3    H2 6444   3.483   4.853   2.584
 2167TIP3   OH2 6445   4.816   6.539   3.419
 2167TIP3    H1 6446   4.831   6.555   3.326
 2167TIP3    H2 6447   4.726   6.569   3.434
 2168TIP3   OH2 6448   3.086   3.601   4.078
 2168TIP3    H1 6449   3.167   3.644   4.106
 2168TIP3    H2 6450   3.076   3.626   3.986
 2169TIP3   OH2 6451   3.342   6.423   5.208
 2169TIP3    H1 6452   3.258   6.469   5.216
 2169TIP3    H2 6453   3.368   6.404   5.298
 2170TIP3   OH2 6454   5.901   7.407   2.473
 2170TIP3    H1 6455   5.996   7.409   2.483
 2170TIP3    H2 6456   5.878   7.315   2.482
 2171TIP3   OH2 6457   0.246   7.490   6.022
 2171TIP3    H1 6458   0.159   7.453   6.015
 2171TIP3    H2 6459   0.260   7.535   5.939
 2172TIP3   OH2 6460   7.567   6.249   5.621
 2172TIP3    H1 6461   7.498   6.254   5.688
 2172TIP3    H2 6462   7.540   6.177   5.564
 2173TIP3   OH2 6463   1.734   4.750   0.320
 2173TIP3    H1 6464   1.753   4.686   0.389
 2173TIP3    H2 6465   1.640   4.766   0.327
 2174TIP3   OH2 6466   4.316   2.787   0.149
 2174TIP3    H1 6467   4.293   2.859   0.090
 2174TIP3    H2 6468   4.297   2.821   0.237
 2175TIP3   OH2 6469   4.319   5.428   3.645
 2175TIP3    H1 6470   4.411   5.437   3.620
 2175TIP3    H2 6471   4.270   5.453   3.567
 2176TIP3   OH2 6472   2.505   0.275   4.458
 2176TIP3    H1 6473   2.532   0.220   4.531
 2176TIP3    H2 6474   2.414   0.297   4.478
 2177TIP3   OH2 6475   2.853   4.917   3.969
 2177TIP3    H1 6476   2.848   4.823   3.951
 2177TIP3    H2 6477   2.782   4.955   3.915
 2178TIP3   OH2 6478   3.078   5.396   2.931
 2178TIP3    H1 6479   3.051   5.461   2.865
 2178TIP3    H2 6480   3.041   5.314   2.900
 2179TIP3   OH2 6481   2.527   7.079   3.200
 2179TIP3    H1 6482   2.570   7.161   3.221
 2179TIP3    H2 6483   2.434   7.096   3.218
 2180TIP3   OH2 6484   6.934   7.410   4.241
 2180TIP3    H1 6485   6.977   7.334   4.281
 2180TIP3    H2 6486   7.000   7.445   4.181
 2181TIP3   OH2 6487   1.321   2.992   4.827
 2181TIP3    H1 6488   1.333   2.917   4.886
 2181TIP3    H2 6489   1.410   3.018   4.803
 2182TIP3   OH2 6490   7.755   6.324   3.437
 2182TIP3    H1 6491   7.680   6.383   3.450
 2182TIP3    H2 6492   7.790   6.311   3.525
 2183TIP3   OH2 6493   7.127   7.500   4.071
 2183TIP3    H1 6494   7.212   7.539   4.051
 2183TIP3    H2 6495   7.068   7.533   4.003
 2184TIP3   OH2 6496   8.108   6.427   3.761
 2184TIP3    H1 6497   8.023   6.385   3.746
 2184TIP3    H2 6498   8.151   6.371   3.825
 2185TIP3   OH2 6499   2.260   5.820   6.560
 2185TIP3    H1 6500   2.266   5.741   6.506
 2185TIP3    H2 6501   2.242   5.891   6.497
 2186TIP3   OH2 6502   7.156   1.097   4.306
 2186TIP3    H1 6503   7.170   1.002   4.306
 2186TIP3    H2 6504   7.243   1.133   4.321
 2187TIP3   OH2 6505   1.085   2.397   4.374
 2187TIP3    H1 6506   1.006   2.420   4.324
 2187TIP3    H2 6507   1.150   2.377   4.307
 2188TIP3   OH2 6508   0.087   7.218   2.568
 2188TIP3    H1 6509   0.116   7.283   2.503
 2188TIP3    H2 6510   0.105   7.133   2.527
 2189TIP3   OH2 6511   2.928   6.810   3.100
 2189TIP3    H1 6512   2.916   6.809   3.195
 2189TIP3    H2 6513   2.926   6.903   3.076
 2190TIP3   OH2 6514   7.825   2.713   6.198
 2190TIP3    H1 6515   7.856   2.745   6.283
 2190TIP3    H2 6516   7.796   2.624   6.215
 2191TIP3   OH2 6517   5.837   2.031   3.726
 2191TIP3    H1 6518   5.786   1.949   3.726
 2191TIP3    H2 6519   5.873   2.037   3.637
 2192TIP3   OH2 6520   3.988   6.114   4.669
 2192TIP3    H1 6521   4.042   6.160   4.733
 2192TIP3    H2 6522   3.940   6.184   4.623
 2193TIP3   OH2 6523   5.086   6.099   5.208
 2193TIP3    H1 6524   5.134   6.125   5.286
 2193TIP3    H2 6525   5.137   6.026   5.172
 2194TIP3   OH2 6526   1.988   6.171   4.053
 2194TIP3    H1 6527   1.939   6.106   4.103
 2194TIP3    H2 6528   2.004   6.243   4.115
 2195TIP3   OH2 6529   0.707   1.254   4.824
 2195TIP3    H1 6530   0.687   1.341   4.790
 2195TIP3    H2 6531   0.629   1.229   4.873
 2196TIP3   OH2 6532   3.396   0.489   2.931
 2196TIP3    H1 6533   3.306   0.511   2.905
 2196TIP3    H2 6534   3.404   0.523   3.020
 2197TIP3   OH2 6535   3.473   4.229   2.636
 2197TIP3    H1 6536   3.489   4.137   2.617
 2197TIP3    H2 6537   3.524   4.247   2.715
 2198TIP3   OH2 6538   7.487   6.590   5.742
 2198TIP3    H1 6539   7.402   6.554   5.717
 2198TIP3    H2 6540   7.548   6.555   5.677
 2199TIP3   OH2 6541   1.744   0.604   5.548
 2199TIP3    H1 6542   1.825   0.612   5.598
 2199TIP3    H2 6543   1.734   0.510   5.532
 2200TIP3   OH2 6544   2.775   4.890   4.263
 2200TIP3    H1 6545   2.821   4.969   4.292
 2200TIP3    H2 6546   2.804   4.877   4.173
 2201TIP3   OH2 6547   3.525   7.030   1.005
 2201TIP3    H1 6548   3.616   7.015   1.030
 2201TIP3    H2 6549   3.513   7.125   1.013
 2202TIP3   OH2 6550   6.525   2.177   5.859
 2202TIP3    H1 6551   6.483   2.111   5.914
 2202TIP3    H2 6552   6.590   2.128   5.808
 2203TIP3   OH2 6553   5.141   7.486   2.031
 2203TIP3    H1 6554   5.095   7.437   1.963
 2203TIP3    H2 6555   5.101   7.458   2.113
 2204TIP3   OH2 6556   5.547   7.090   0.428
 2204TIP3    H1 6557   5.453   7.105   0.418
 2204TIP3    H2 6558   5.583   7.176   0.448
 2205TIP3   OH2 6559   5.479   7.350   0.721
 2205TIP3    H1 6560   5.508   7.354   0.630
 2205TIP3    H2 6561   5.432   7.432   0.735
 2206TIP3   OH2 6562   1.440   6.304   6.565
 2206TIP3    H1 6563   1.404   6.392   6.574
 2206TIP3    H2 6564   1.506   6.312   6.496
 2207TIP3   OH2 6565   2.699   6.498   6.007
 2207TIP3    H1 6566   2.732   6.513   5.918
 2207TIP3    H2 6567   2.749   6.559   6.062
 2208TIP3   OH2 6568   2.190   2.031   0.341
 2208TIP3    H1 6569   2.110   2.081   0.356
 2208TIP3    H2 6570   2.160   1.940   0.330
 2209TIP3   OH2 6571   0.346   6.384   1.997
 2209TIP3    H1 6572   0.295   6.458   2.031
 2209TIP3    H2 6573   0.416   6.425   1.946
 2210TIP3   OH2 6574   3.938   1.952   1.807
 2210TIP3    H1 6575   3.845   1.973   1.814
 2210TIP3    H2 6576   3.976   1.985   1.888
 2211TIP3   OH2 6577   8.071   6.669   2.994
 2211TIP3    H1 6578   8.105   6.745   3.040
 2211TIP3    H2 6579   8.002   6.704   2.938
 2212TIP3   OH2 6580   7.317   7.137   3.204
 2212TIP3    H1 6581   7.262   7.204   3.162
 2212TIP3    H2 6582   7.255   7.083   3.252
 2213TIP3   OH2 6583   2.488   4.649   2.819
 2213TIP3    H1 6584   2.464   4.686   2.903
 2213TIP3    H2 6585   2.405   4.618   2.782
 2214TIP3   OH2 6586   0.485   6.393   3.517
 2214TIP3    H1 6587   0.411   6.335   3.497
 2214TIP3    H2 6588   0.535   6.397   3.435
 2215TIP3   OH2 6589   2.977   6.189   2.950
 2215TIP3    H1 6590   2.938   6.167   3.034
 2215TIP3    H2 6591   3.056   6.135   2.945
 2216TIP3   OH2 6592   5.703   3.447   3.280
 2216TIP3    H1 6593   5.729   3.367   3.236
 2216TIP3    H2 6594   5.616   3.467   3.244
 2217TIP3   OH2 6595   3.295   7.509   3.279
 2217TIP3    H1 6596   3.267   7.498   3.369
 2217TIP3    H2 6597   3.339   7.428   3.257
 2218TIP3   OH2 6598   4.568   7.453   4.887
 2218TIP3    H1 6599   4.494   7.419   4.937
 2218TIP3    H2 6600   4.639   7.391   4.907
 2219TIP3   OH2 6601   3.149   6.683   1.382
 2219TIP3    H1 6602   3.240   6.709   1.369
 2219TIP3    H2 6603   3.131   6.622   1.310
 2220TIP3   OH2 6604   5.901   5.611   3.708
 2220TIP3    H1 6605   5.983   5.632   3.664
 2220TIP3    H2 6606   5.870   5.695   3.742
 2221TIP3   OH2 6607   7.135   6.687   1.362
 2221TIP3    H1 6608   7.042   6.710   1.359
 2221TIP3    H2 6609   7.181   6.770   1.346
 2222TIP3   OH2 6610   7.859   1.552   6.578
 2222TIP3    H1 6611   7.931   1.547   6.515
 2222TIP3    H2 6612   7.873   1.477   6.636
 2223TIP3   OH2 6613   1.318   5.054   0.318
 2223TIP3    H1 6614   1.263   5.044   0.395
 2223TIP3    H2 6615   1.268   5.016   0.247
 2224TIP3   OH2 6616   2.416   5.083   0.205
 2224TIP3    H1 6617   2.363   5.058   0.281
 2224TIP3    H2 6618   2.499   5.111   0.242
 2225TIP3   OH2 6619   1.483   3.945   5.925
 2225TIP3    H1 6620   1.392   3.965   5.902
 2225TIP3    H2 6621   1.529   3.946   5.841
 2226TIP3   OH2 6622   4.715   6.768   3.062
 2226TIP3    H1 6623   4.651   6.700   3.085
 2226TIP3    H2 6624   4.799   6.732   3.089
 2227TIP3   OH2 6625   6.593   6.080   2.765
 2227TIP3    H1 6626   6.581   5.996   2.809
 2227TIP3    H2 6627   6.688   6.093   2.765
 2228TIP3   OH2 6628   3.187   6.176   1.664
 2228TIP3    H1 6629   3.272   6.147   1.696
 2228TIP3    H2 6630   3.142   6.096   1.638
 2229TIP3   OH2 6631   3.162   1.578   5.857
 2229TIP3    H1 6632   3.066   1.588   5.854
 2229TIP3    H2 6633   3.187   1.616   5.941
 2230TIP3   OH2 6634   6.132   0.937   1.344
 2230TIP3    H1 6635   6.220   0.937   1.307
 2230TIP3    H2 6636   6.086   1.007   1.299
 2231TIP3   OH2 6637   1.533   4.435   5.331
 2231TIP3    H1 6638   1.536   4.354   5.280
 2231TIP3    H2 6639   1.439   4.451   5.345
 2232TIP3   OH2 6640   7.023   6.073   5.806
 2232TIP3    H1 6641   7.043   5.979   5.795
 2232TIP3    H2 6642   6.929   6.075   5.823
 2233TIP3   OH2 6643   3.792   5.268   0.888
 2233TIP3    H1 6644   3.735   5.213   0.834
 2233TIP3    H2 6645   3.818   5.211   0.961
 2234TIP3   OH2 6646   7.924   2.931   1.883
 2234TIP3    H1 6647   7.989   2.906   1.949
 2234TIP3    H2 6648   7.908   3.024   1.900
 2235TIP3   OH2 6649   2.863   3.804   4.411
 2235TIP3    H1 6650   2.902   3.838   4.330
 2235TIP3    H2 6651   2.917   3.728   4.433
 2236TIP3   OH2 6652   7.772   3.066   5.307
 2236TIP3    H1 6653   7.733   3.149   5.282
 2236TIP3    H2 6654   7.700   3.017   5.348
 2237TIP3   OH2 6655   6.943   6.297   2.257
 2237TIP3    H1 6656   6.988   6.277   2.340
 2237TIP3    H2 6657   6.852   6.273   2.273
 2238TIP3   OH2 6658   2.672   1.657   4.883
 2238TIP3    H1 6659   2.697   1.565   4.879
 2238TIP3    H2 6660   2.579   1.658   4.861
 2239TIP3   OH2 6661   1.917   1.785   4.115
 2239TIP3    H1 6662   1.844   1.839   4.145
 2239TIP3    H2 6663   1.882   1.696   4.113
 2240TIP3   OH2 6664   1.139   1.413   3.333
 2240TIP3    H1 6665   1.082   1.337   3.321
 2240TIP3    H2 6666   1.080   1.483   3.361
 2241TIP3   OH2 6667   5.789   5.493   0.851
 2241TIP3    H1 6668   5.806   5.567   0.910
 2241TIP3    H2 6669   5.742   5.430   0.905
 2242TIP3   OH2 6670   0.740   3.292   3.289
 2242TIP3    H1 6671   0.684   3.325   3.359
 2242TIP3    H2 6672   0.774   3.371   3.246
 2243TIP3   OH2 6673   6.024   1.954   1.907
 2243TIP3    H1 6674   5.966   1.997   1.844
 2243TIP3    H2 6675   5.970   1.943   1.986
 2244TIP3   OH2 6676   4.597   0.421   3.364
 2244TIP3    H1 6677   4.554   0.376   3.436
 2244TIP3    H2 6678   4.528   0.438   3.300
 2245TIP3   OH2 6679   6.449   2.702   3.963
 2245TIP3    H1 6680   6.502   2.701   4.043
 2245TIP3    H2 6681   6.480   2.626   3.914
 2246TIP3   OH2 6682   1.363   6.219   4.646
 2246TIP3    H1 6683   1.292   6.250   4.702
 2246TIP3    H2 6684   1.378   6.129   4.673
 2247TIP3   OH2 6685   1.641   5.241   2.488
 2247TIP3    H1 6686   1.687   5.316   2.527
 2247TIP3    H2 6687   1.702   5.168   2.498
 2248TIP3   OH2 6688   5.813   2.729   2.220
 2248TIP3    H1 6689   5.815   2.825   2.220
 2248TIP3    H2 6690   5.903   2.703   2.199
 2249TIP3   OH2 6691   2.921   5.018   5.313
 2249TIP3    H1 6692   2.976   5.096   5.315
 2249TIP3    H2 6693   2.983   4.946   5.327
 2250TIP3   OH2 6694   3.493   2.670   0.696
 2250TIP3    H1 6695   3.548   2.598   0.728
 2250TIP3    H2 6696   3.415   2.666   0.750
 2251TIP3   OH2 6697   4.040   6.331   6.336
 2251TIP3    H1 6698   4.017   6.392   6.406
 2251TIP3    H2 6699   4.118   6.286   6.369
 2252TIP3   OH2 6700   3.418   0.351   5.590
 2252TIP3    H1 6701   3.423   0.279   5.652
 2252TIP3    H2 6702   3.378   0.423   5.639
 2253TIP3   OH2 6703   8.104   7.324   1.652
 2253TIP3    H1 6704   8.091   7.243   1.702
 2253TIP3    H2 6705   8.024   7.332   1.599
 2254TIP3   OH2 6706   2.333   1.334   2.145
 2254TIP3    H1 6707   2.291   1.348   2.060
 2254TIP3    H2 6708   2.280   1.386   2.206
 2255TIP3   OH2 6709   7.623   3.206   0.173
 2255TIP3    H1 6710   7.540   3.197   0.126
 2255TIP3    H2 6711   7.602   3.261   0.248
 2256TIP3   OH2 6712   5.654   4.306   3.436
 2256TIP3    H1 6713   5.731   4.317   3.490
 2256TIP3    H2 6714   5.581   4.301   3.498
 2257TIP3   OH2 6715   7.456   0.767   1.475
 2257TIP3    H1 6716   7.485   0.845   1.428
 2257TIP3    H2 6717   7.362   0.780   1.487
 2258TIP3   OH2 6718   3.886   0.523   3.998
 2258TIP3    H1 6719   3.938   0.497   4.074
 2258TIP3    H2 6720   3.949   0.564   3.939
 2259TIP3   OH2 6721   1.776   1.142   3.026
 2259TIP3    H1 6722   1.731   1.175   2.948
 2259TIP3    H2 6723   1.760   1.209   3.092
 2260TIP3   OH2 6724   4.776   5.525   0.438
 2260TIP3    H1 6725   4.715   5.452   0.432
 2260TIP3    H2 6726   4.724   5.602   0.413
 2261TIP3   OH2 6727   1.430   3.716   5.548
 2261TIP3    H1 6728   1.381   3.787   5.504
 2261TIP3    H2 6729   1.388   3.636   5.516
 2262TIP3   OH2 6730   5.560   4.136   0.431
 2262TIP3    H1 6731   5.626   4.123   0.363
 2262TIP3    H2 6732   5.610   4.144   0.512
 2263TIP3   OH2 6733   0.783   6.323   4.036
 2263TIP3    H1 6734   0.791   6.415   4.011
 2263TIP3    H2 6735   0.872   6.297   4.061
 2264TIP3   OH2 6736   4.566   4.072   2.324
 2264TIP3    H1 6737   4.582   4.081   2.418
 2264TIP3    H2 6738   4.568   4.162   2.291
 2265TIP3   OH2 6739   0.767   4.911   3.763
 2265TIP3    H1 6740   0.812   4.917   3.679
 2265TIP3    H2 6741   0.836   4.916   3.828
 2266TIP3   OH2 6742   5.553   5.969   0.610
 2266TIP3    H1 6743   5.599   5.922   0.540
 2266TIP3    H2 6744   5.584   5.929   0.691
 2267TIP3   OH2 6745   3.149   7.201   3.820
 2267TIP3    H1 6746   3.090   7.226   3.891
 2267TIP3    H2 6747   3.091   7.181   3.746
 2268TIP3   OH2 6748   4.410   1.956   3.112
 2268TIP3    H1 6749   4.503   1.977   3.112
 2268TIP3    H2 6750   4.405   1.864   3.085
 2269TIP3   OH2 6751   6.380   4.242   0.916
 2269TIP3    H1 6752   6.462   4.215   0.957
 2269TIP3    H2 6753   6.397   4.330   0.883
 2270TIP3   OH2 6754   1.253   6.988   3.339
 2270TIP3    H1 6755   1.208   7.066   3.373
 2270TIP3    H2 6756   1.183   6.924   3.327
 2271TIP3   OH2 6757   6.536   2.949   4.460
 2271TIP3    H1 6758   6.546   2.864   4.501
 2271TIP3    H2 6759   6.541   2.931   4.366
 2272TIP3   OH2 6760   0.321   5.046   1.755
 2272TIP3    H1 6761   0.257   5.103   1.713
 2272TIP3    H2 6762   0.340   5.088   1.839
 2273TIP3   OH2 6763   1.150   6.524   2.713
 2273TIP3    H1 6764   1.225   6.464   2.705
 2273TIP3    H2 6765   1.079   6.468   2.745
 2274TIP3   OH2 6766   5.755   0.980   6.471
 2274TIP3    H1 6767   5.795   0.939   6.548
 2274TIP3    H2 6768   5.664   0.995   6.497
 2275TIP3   OH2 6769   6.105   4.024   0.461
 2275TIP3    H1 6770   6.159   4.077   0.519
 2275TIP3    H2 6771   6.164   4.001   0.389
 2276TIP3   OH2 6772   8.027   6.566   5.889
 2276TIP3    H1 6773   8.086   6.519   5.948
 2276TIP3    H2 6774   7.943   6.569   5.934
 2277TIP3   OH2 6775   1.606   7.212   2.629
 2277TIP3    H1 6776   1.573   7.144   2.570
 2277TIP3    H2 6777   1.658   7.164   2.694
 2278TIP3   OH2 6778   5.391   5.029   4.184
 2278TIP3    H1 6779   5.316   4.970   4.182
 2278TIP3    H2 6780   5.398   5.056   4.275
 2279TIP3   OH2 6781   5.432   4.875   0.793
 2279TIP3    H1 6782   5.419   4.965   0.822
 2279TIP3    H2 6783   5.366   4.825   0.842
 2280TIP3   OH2 6784   0.140   5.384   5.673
 2280TIP3    H1 6785   0.111   5.295   5.655
 2280TIP3    H2 6786   0.236   5.379   5.673
 2281TIP3   OH2 6787   4.873   7.160   0.872
 2281TIP3    H1 6788   4.921   7.240   0.896
 2281TIP3    H2 6789   4.941   7.093   0.867
 2282TIP3   OH2 6790   4.774   5.933   3.937
 2282TIP3    H1 6791   4.804   5.958   4.024
 2282TIP3    H2 6792   4.680   5.949   3.938
 2283TIP3   OH2 6793   3.471   2.937   6.622
 2283TIP3    H1 6794   3.558   2.932   6.583
 2283TIP3    H2 6795   3.473   3.017   6.674
 2284TIP3   OH2 6796   0.954   0.082   0.980
 2284TIP3    H1 6797   0.891   0.013   1.001
 2284TIP3    H2 6798   0.916   0.126   0.904
 2285TIP3   OH2 6799   2.482   6.509   2.642
 2285TIP3    H1 6800   2.413   6.517   2.576
 2285TIP3    H2 6801   2.534   6.433   2.613
 2286TIP3   OH2 6802   6.493   0.327   4.791
 2286TIP3    H1 6803   6.579   0.344   4.830
 2286TIP3    H2 6804   6.501   0.360   4.701
 2287TIP3   OH2 6805   7.214   1.235   2.156
 2287TIP3    H1 6806   7.253   1.165   2.104
 2287TIP3    H2 6807   7.246   1.219   2.245
 2288TIP3   OH2 6808   5.217   3.045   5.644
 2288TIP3    H1 6809   5.292   3.045   5.585
 2288TIP3    H2 6810   5.171   2.964   5.624
 2289TIP3   OH2 6811   3.123   7.202   5.239
 2289TIP3    H1 6812   3.161   7.119   5.268
 2289TIP3    H2 6813   3.196   7.263   5.240
 2290TIP3   OH2 6814   5.816   2.421   3.266
 2290TIP3    H1 6815   5.872   2.483   3.219
 2290TIP3    H2 6816   5.871   2.389   3.337
 2291TIP3   OH2 6817   7.552   6.788   1.894
 2291TIP3    H1 6818   7.459   6.771   1.880
 2291TIP3    H2 6819   7.571   6.862   1.836
 2292TIP3   OH2 6820   5.342   2.405   4.698
 2292TIP3    H1 6821   5.334   2.320   4.656
 2292TIP3    H2 6822   5.327   2.468   4.628
 2293TIP3   OH2 6823   1.728   3.406   3.251
 2293TIP3    H1 6824   1.820   3.395   3.223
 2293TIP3    H2 6825   1.680   3.417   3.169
 2294TIP3   OH2 6826   6.148   1.854   2.484
 2294TIP3    H1 6827   6.059   1.824   2.466
 2294TIP3    H2 6828   6.187   1.866   2.397
 2295TIP3   OH2 6829   5.106   3.844   0.534
 2295TIP3    H1 6830   5.167   3.845   0.461
 2295TIP3    H2 6831   5.129   3.922   0.586
 2296TIP3   OH2 6832   2.028   2.559   2.896
 2296TIP3    H1 6833   2.039   2.555   2.801
 2296TIP3    H2 6834   1.942   2.597   2.909
 2297TIP3   OH2 6835   2.018   2.436   5.073
 2297TIP3    H1 6836   2.042   2.358   5.023
 2297TIP3    H2 6837   2.094   2.455   5.128
 2298TIP3   OH2 6838   7.659   7.664   0.646
 2298TIP3    H1 6839   7.670   7.619   0.730
 2298TIP3    H2 6840   7.706   7.746   0.656
 2299TIP3   OH2 6841   4.140   4.644   1.681
 2299TIP3    H1 6842   4.141   4.697   1.761
 2299TIP3    H2 6843   4.230   4.612   1.673
 2300TIP3   OH2 6844   6.285   6.802   0.414
 2300TIP3    H1 6845   6.234   6.877   0.443
 2300TIP3    H2 6846   6.224   6.749   0.363
 2301TIP3   OH2 6847   1.059   1.455   6.613
 2301TIP3    H1 6848   1.019   1.447   6.699
 2301TIP3    H2 6849   1.091   1.367   6.593
 2302TIP3   OH2 6850   3.522   7.298   5.499
 2302TIP3    H1 6851   3.610   7.336   5.494
 2302TIP3    H2 6852   3.498   7.305   5.591
 2303TIP3   OH2 6853   0.701   1.477   2.744
 2303TIP3    H1 6854   0.611   1.452   2.767
 2303TIP3    H2 6855   0.725   1.417   2.673
 2304TIP3   OH2 6856   2.077   0.596   4.142
 2304TIP3    H1 6857   2.112   0.569   4.227
 2304TIP3    H2 6858   2.152   0.632   4.095
 2305TIP3   OH2 6859   2.485   7.166   5.577
 2305TIP3    H1 6860   2.399   7.126   5.568
 2305TIP3    H2 6861   2.546   7.092   5.571
 2306TIP3   OH2 6862   7.361   4.456   6.424
 2306TIP3    H1 6863   7.445   4.450   6.470
 2306TIP3    H2 6864   7.351   4.372   6.379
 2307TIP3   OH2 6865   2.421   3.844   0.528
 2307TIP3    H1 6866   2.478   3.769   0.509
 2307TIP3    H2 6867   2.437   3.862   0.621
 2308TIP3   OH2 6868   4.163   7.272   1.360
 2308TIP3    H1 6869   4.222   7.239   1.428
 2308TIP3    H2 6870   4.114   7.342   1.404
 2309TIP3   OH2 6871   4.450   3.699   3.399
 2309TIP3    H1 6872   4.482   3.678   3.487
 2309TIP3    H2 6873   4.529   3.722   3.350
 2310TIP3   OH2 6874   0.227   4.740   4.274
 2310TIP3    H1 6875   0.264   4.818   4.316
 2310TIP3    H2 6876   0.236   4.670   4.339
 2311TIP3   OH2 6877   0.054   6.287   3.436
 2311TIP3    H1 6878   0.016   6.242   3.361
 2311TIP3    H2 6879   0.142   6.248   3.444
 2312TIP3   OH2 6880   3.838   3.658   3.296
 2312TIP3    H1 6881   3.861   3.630   3.384
 2312TIP3    H2 6882   3.770   3.725   3.309
 2313TIP3   OH2 6883   6.991   0.938   1.894
 2313TIP3    H1 6884   6.950   1.023   1.910
 2313TIP3    H2 6885   7.066   0.957   1.837
 2314TIP3   OH2 6886   5.371   3.013   4.213
 2314TIP3    H1 6887   5.390   3.077   4.281
 2314TIP3    H2 6888   5.315   2.948   4.256
 2315TIP3   OH2 6889   5.365   7.046   1.029
 2315TIP3    H1 6890   5.421   7.049   0.952
 2315TIP3    H2 6891   5.342   7.138   1.045
 2316TIP3   OH2 6892   3.947   0.823   2.449
 2316TIP3    H1 6893   3.953   0.894   2.513
 2316TIP3    H2 6894   3.991   0.857   2.371
 2317TIP3   OH2 6895   0.593   0.695   0.140
 2317TIP3    H1 6896   0.659   0.643   0.185
 2317TIP3    H2 6897   0.632   0.715   0.055
 2318TIP3   OH2 6898   5.457   0.112   0.791
 2318TIP3    H1 6899   5.373   0.070   0.806
 2318TIP3    H2 6900   5.522   0.052   0.828
 2319TIP3   OH2 6901   2.890   4.827   0.658
 2319TIP3    H1 6902   2.949   4.754   0.641
 2319TIP3    H2 6903   2.818   4.814   0.596
 2320TIP3   OH2 6904   1.704   5.635   4.370
 2320TIP3    H1 6905   1.670   5.725   4.371
 2320TIP3    H2 6906   1.788   5.641   4.417
 2321TIP3   OH2 6907   2.410   3.527   6.676
 2321TIP3    H1 6908   2.491   3.535   6.624
 2321TIP3    H2 6909   2.382   3.617   6.691
 2322TIP3   OH2 6910   6.648   1.502   5.816
 2322TIP3    H1 6911   6.642   1.420   5.768
 2322TIP3    H2 6912   6.585   1.560   5.774
 2323TIP3   OH2 6913   5.348   1.660   6.118
 2323TIP3    H1 6914   5.433   1.684   6.154
 2323TIP3    H2 6915   5.341   1.709   6.037
 2324TIP3   OH2 6916   4.043   2.122   1.048
 2324TIP3    H1 6917   4.131   2.086   1.057
 2324TIP3    H2 6918   3.999   2.096   1.129
 2325TIP3   OH2 6919   8.209   7.451   1.219
 2325TIP3    H1 6920   8.261   7.448   1.299
 2325TIP3    H2 6921   8.128   7.496   1.245
 2326TIP3   OH2 6922   1.271   3.242   4.226
 2326TIP3    H1 6923   1.347   3.292   4.199
 2326TIP3    H2 6924   1.247   3.191   4.149
 2327TIP3   OH2 6925   7.235   3.800   5.347
 2327TIP3    H1 6926   7.169   3.733   5.330
 2327TIP3    H2 6927   7.276   3.814   5.262
 2328TIP3   OH2 6928   2.263   2.520   6.744
 2328TIP3    H1 6929   2.190   2.545   6.687
 2328TIP3    H2 6930   2.254   2.425   6.753
 2329TIP3   OH2 6931   0.615   6.768   4.483
 2329TIP3    H1 6932   0.688   6.824   4.509
 2329TIP3    H2 6933   0.643   6.680   4.509
 2330TIP3   OH2 6934   6.836   1.594   0.794
 2330TIP3    H1 6935   6.841   1.576   0.888
 2330TIP3    H2 6936   6.752   1.639   0.783
 2331TIP3   OH2 6937   1.457   4.530   0.200
 2331TIP3    H1 6938   1.549   4.548   0.184
 2331TIP3    H2 6939   1.418   4.522   0.113
 2332TIP3   OH2 6940   1.204   7.712   1.864
 2332TIP3    H1 6941   1.237   7.644   1.923
 2332TIP3    H2 6942   1.127   7.674   1.823
 2333TIP3   OH2 6943   4.392   6.748   3.001
 2333TIP3    H1 6944   4.448   6.696   2.944
 2333TIP3    H2 6945   4.304   6.717   2.983
 2334TIP3   OH2 6946   0.508   1.358   2.454
 2334TIP3    H1 6947   0.535   1.367   2.362
 2334TIP3    H2 6948   0.584   1.388   2.504
 2335TIP3   OH2 6949   1.927   4.712   4.728
 2335TIP3    H1 6950   1.944   4.620   4.748
 2335TIP3    H2 6951   2.007   4.758   4.755
 2336TIP3   OH2 6952   2.229   0.576   1.275
 2336TIP3    H1 6953   2.264   0.593   1.363
 2336TIP3    H2 6954   2.199   0.661   1.245
 2337TIP3   OH2 6955   0.795   6.137   6.524
 2337TIP3    H1 6956   0.885   6.156   6.498
 2337TIP3    H2 6957   0.767   6.214   6.574
 2338TIP3   OH2 6958   6.905   0.929   5.272
 2338TIP3    H1 6959   6.841   0.938   5.342
 2338TIP3    H2 6960   6.962   1.005   5.282
 2339TIP3   OH2 6961   2.692   1.019   1.892
 2339TIP3    H1 6962   2.648   1.058   1.967
 2339TIP3    H2 6963   2.785   1.028   1.913
 2340TIP3   OH2 6964   4.653   4.860   0.199
 2340TIP3    H1 6965   4.709   4.857   0.121
 2340TIP3    H2 6966   4.597   4.782   0.190
 2341TIP3   OH2 6967   4.086   4.012   4.746
 2341TIP3    H1 6968   4.023   3.949   4.711
 2341TIP3    H2 6969   4.119   3.971   4.826
 2342TIP3   OH2 6970   3.661   3.184   0.515
 2342TIP3    H1 6971   3.745   3.141   0.528
 2342TIP3    H2 6972   3.683   3.277   0.505
 2343TIP3   OH2 6973   3.625   0.258   5.978
 2343TIP3    H1 6974   3.691   0.323   5.955
 2343TIP3    H2 6975   3.674   0.189   6.022
 2344TIP3   OH2 6976   0.831   3.062   4.180
 2344TIP3    H1 6977   0.764   3.112   4.227
 2344TIP3    H2 6978   0.874   3.010   4.248
 2345TIP3   OH2 6979   0.702   5.316   4.466
 2345TIP3    H1 6980   0.772   5.252   4.452
 2345TIP3    H2 6981   0.726   5.360   4.547
 2346TIP3   OH2 6982   7.479   2.199   4.995
 2346TIP3    H1 6983   7.527   2.260   5.051
 2346TIP3    H2 6984   7.497   2.230   4.906
 2347TIP3   OH2 6985   0.532   2.679   6.180
 2347TIP3    H1 6986   0.444   2.663   6.214
 2347TIP3    H2 6987   0.518   2.732   6.102
 2348TIP3   OH2 6988   3.865   3.551   4.295
 2348TIP3    H1 6989   3.926   3.553   4.221
 2348TIP3    H2 6990   3.918   3.522   4.369
 2349TIP3   OH2 6991   6.288   3.217   3.348
 2349TIP3    H1 6992   6.356   3.273   3.386
 2349TIP3    H2 6993   6.331   3.132   3.336
 2350TIP3   OH2 6994   3.282   6.920   1.125
 2350TIP3    H1 6995   3.374   6.947   1.116
 2350TIP3    H2 6996   3.271   6.853   1.056
 2351TIP3   OH2 6997   4.094   5.187   6.306
 2351TIP3    H1 6998   4.033   5.245   6.260
 2351TIP3    H2 6999   4.039   5.116   6.340
 2352TIP3   OH2 7000   0.591   4.601   5.371
 2352TIP3    H1 7001   0.528   4.651   5.319
 2352TIP3    H2 7002   0.606   4.521   5.320
 2353TIP3   OH2 7003   6.296   6.198   1.010
 2353TIP3    H1 7004   6.255   6.222   0.926
 2353TIP3    H2 7005   6.357   6.269   1.027
 2354TIP3   OH2 7006   0.708   1.764   4.221
 2354TIP3    H1 7007   0.697   1.673   4.194
 2354TIP3    H2 7008   0.751   1.759   4.307
 2355TIP3   OH2 7009   6.072   2.927   5.138
 2355TIP3    H1 7010   6.129   2.903   5.211
 2355TIP3    H2 7011   6.020   2.848   5.122
 2356TIP3   OH2 7012   1.798   7.554   6.382
 2356TIP3    H1 7013   1.784   7.495   6.308
 2356TIP3    H2 7014   1.713   7.556   6.427
 2357TIP3   OH2 7015   4.831   0.971   2.475
 2357TIP3    H1 7016   4.749   0.923   2.485
 2357TIP3    H2 7017   4.825   1.008   2.386
 2358TIP3   OH2 7018   1.884   6.198   3.687
 2358TIP3    H1 7019   1.858   6.270   3.745
 2358TIP3    H2 7020   1.971   6.172   3.717
 2359TIP3   OH2 7021   1.699   4.786   4.825
 2359TIP3    H1 7022   1.776   4.762   4.774
 2359TIP3    H2 7023   1.657   4.855   4.775
 2360TIP3   OH2 7024   1.380   6.660   0.128
 2360TIP3    H1 7025   1.297   6.612   0.132
 2360TIP3    H2 7026   1.437   6.605   0.074
 2361TIP3   OH2 7027   2.421   1.290   3.097
 2361TIP3    H1 7028   2.506   1.308   3.139
 2361TIP3    H2 7029   2.356   1.323   3.159
 2362TIP3   OH2 7030   6.716   5.751   1.534
 2362TIP3    H1 7031   6.721   5.842   1.564
 2362TIP3    H2 7032   6.727   5.699   1.613
 2363TIP3   OH2 7033   5.751   1.226   6.691
 2363TIP3    H1 7034   5.726   1.303   6.742
 2363TIP3    H2 7035   5.702   1.154   6.731
 2364TIP3   OH2 7036   4.769   5.653   1.038
 2364TIP3    H1 7037   4.788   5.712   0.965
 2364TIP3    H2 7038   4.795   5.567   1.007
 2365TIP3   OH2 7039   6.971   0.763   2.103
 2365TIP3    H1 7040   6.987   0.683   2.053
 2365TIP3    H2 7041   6.991   0.834   2.042
 2366TIP3   OH2 7042   2.345   0.742   6.728
 2366TIP3    H1 7043   2.438   0.754   6.743
 2366TIP3    H2 7044   2.324   0.659   6.772
 2367TIP3   OH2 7045   1.668   6.494   5.402
 2367TIP3    H1 7046   1.706   6.573   5.363
 2367TIP3    H2 7047   1.676   6.427   5.334
 2368TIP3   OH2 7048   0.798   4.703   2.558
 2368TIP3    H1 7049   0.727   4.649   2.524
 2368TIP3    H2 7050   0.788   4.697   2.653
 2369TIP3   OH2 7051   4.302   0.398   4.177
 2369TIP3    H1 7052   4.355   0.476   4.195
 2369TIP3    H2 7053   4.213   0.425   4.199
 2370TIP3   OH2 7054   6.511   3.974   0.716
 2370TIP3    H1 7055   6.543   3.987   0.627
 2370TIP3    H2 7056   6.449   3.902   0.709
 2371TIP3   OH2 7057   7.087   0.972   1.604
 2371TIP3    H1 7058   7.036   1.038   1.555
 2371TIP3    H2 7059   7.038   0.891   1.592
 2372TIP3   OH2 7060   0.114   5.217   6.405
 2372TIP3    H1 7061   0.169   5.246   6.477
 2372TIP3    H2 7062   0.168   5.230   6.327
 2373TIP3   OH2 7063   7.205   3.525   1.427
 2373TIP3    H1 7064   7.177   3.534   1.518
 2373TIP3    H2 7065   7.203   3.615   1.392
 2374TIP3   OH2 7066   1.192   2.170   5.407
 2374TIP3    H1 7067   1.190   2.265   5.422
 2374TIP3    H2 7068   1.285   2.150   5.400
 2375TIP3   OH2 7069   4.967   1.357   5.244
 2375TIP3    H1 7070   4.884   1.310   5.255
 2375TIP3    H2 7071   4.959   1.433   5.302
 2376TIP3   OH2 7072   4.692   3.766   3.281
 2376TIP3    H1 7073   4.713   3.679   3.246
 2376TIP3    H2 7074   4.772   3.817   3.268
 2377TIP3   OH2 7075   1.047   0.337   2.855
 2377TIP3    H1 7076   0.989   0.412   2.869
 2377TIP3    H2 7077   1.042   0.319   2.762
 2378TIP3   OH2 7078   2.888   6.572   3.848
 2378TIP3    H1 7079   2.874   6.560   3.754
 2378TIP3    H2 7080   2.803   6.600   3.881
 2379TIP3   OH2 7081   4.044   2.660   5.404
 2379TIP3    H1 7082   4.046   2.747   5.444
 2379TIP3    H2 7083   4.012   2.674   5.316
 2380TIP3   OH2 7084   4.373   1.067   4.896
 2380TIP3    H1 7085   4.453   1.098   4.853
 2380TIP3    H2 7086   4.400   1.043   4.984
 2381TIP3   OH2 7087   7.946   4.432   2.688
 2381TIP3    H1 7088   7.944   4.528   2.686
 2381TIP3    H2 7089   8.039   4.411   2.703
 2382TIP3   OH2 7090   5.355   3.712   0.739
 2382TIP3    H1 7091   5.292   3.749   0.801
 2382TIP3    H2 7092   5.438   3.714   0.786
 2383TIP3   OH2 7093   5.203   4.179   6.419
 2383TIP3    H1 7094   5.264   4.163   6.346
 2383TIP3    H2 7095   5.242   4.252   6.467
 2384TIP3   OH2 7096   3.415   5.158   1.666
 2384TIP3    H1 7097   3.349   5.157   1.736
 2384TIP3    H2 7098   3.465   5.078   1.678
 2385TIP3   OH2 7099   6.422   3.113   5.879
 2385TIP3    H1 7100   6.477   3.185   5.847
 2385TIP3    H2 7101   6.405   3.135   5.971
 2386TIP3   OH2 7102   5.400   4.850   1.339
 2386TIP3    H1 7103   5.334   4.787   1.310
 2386TIP3    H2 7104   5.356   4.902   1.406
 2387TIP3   OH2 7105   4.645   0.605   3.629
 2387TIP3    H1 7106   4.704   0.587   3.702
 2387TIP3    H2 7107   4.693   0.574   3.552
 2388TIP3   OH2 7108   3.977   0.147   4.988
 2388TIP3    H1 7109   4.018   0.061   4.991
 2388TIP3    H2 7110   4.049   0.207   4.969
 2389TIP3   OH2 7111   6.356   5.340   5.632
 2389TIP3    H1 7112   6.344   5.306   5.544
 2389TIP3    H2 7113   6.413   5.277   5.675
 2390TIP3   OH2 7114   3.431   1.287   5.739
 2390TIP3    H1 7115   3.510   1.339   5.722
 2390TIP3    H2 7116   3.452   1.201   5.704
 2391TIP3   OH2 7117   0.097   0.036   1.405
 2391TIP3    H1 7118   0.091   0.063   1.314
 2391TIP3    H2 7119   0.127   0.115   1.451
 2392TIP3   OH2 7120   7.486   2.499   4.621
 2392TIP3    H1 7121   7.544   2.447   4.566
 2392TIP3    H2 7122   7.505   2.590   4.598
 2393TIP3   OH2 7123   8.273   4.317   5.610
 2393TIP3    H1 7124   8.355   4.275   5.634
 2393TIP3    H2 7125   8.232   4.340   5.693
 2394TIP3   OH2 7126   3.215   3.671   5.349
 2394TIP3    H1 7127   3.201   3.609   5.278
 2394TIP3    H2 7128   3.271   3.739   5.310
 2395TIP3   OH2 7129   6.114   4.774   1.759
 2395TIP3    H1 7130   6.185   4.712   1.745
 2395TIP3    H2 7131   6.095   4.809   1.672
 2396TIP3   OH2 7132   1.163   6.174   2.717
 2396TIP3    H1 7133   1.107   6.231   2.665
 2396TIP3    H2 7134   1.248   6.217   2.718
 2397TIP3   OH2 7135   5.346   2.734   4.948
 2397TIP3    H1 7136   5.355   2.822   4.984
 2397TIP3    H2 7137   5.344   2.677   5.026
 2398TIP3   OH2 7138   0.098   2.501   4.473
 2398TIP3    H1 7139   0.042   2.447   4.417
 2398TIP3    H2 7140   0.135   2.440   4.537
 2399TIP3   OH2 7141   6.575   0.742   3.447
 2399TIP3    H1 7142   6.629   0.721   3.371
 2399TIP3    H2 7143   6.638   0.766   3.516
 2400TIP3   OH2 7144   6.651   6.027   5.077
 2400TIP3    H1 7145   6.723   6.076   5.037
 2400TIP3    H2 7146   6.629   5.960   5.011
 2401TIP3   OH2 7147   4.730   0.749   4.090
 2401TIP3    H1 7148   4.770   0.754   4.003
 2401TIP3    H2 7149   4.726   0.840   4.120
 2402TIP3   OH2 7150   5.764   6.623   1.927
 2402TIP3    H1 7151   5.787   6.685   1.858
 2402TIP3    H2 7152   5.669   6.615   1.923
 2403TIP3   OH2 7153   2.768   6.994   0.259
 2403TIP3    H1 7154   2.768   7.017   0.166
 2403TIP3    H2 7155   2.727   7.069   0.302
 2404TIP3   OH2 7156   6.412   4.883   5.059
 2404TIP3    H1 7157   6.341   4.925   5.108
 2404TIP3    H2 7158   6.399   4.790   5.071
 2405TIP3   OH2 7159   4.299   1.298   2.545
 2405TIP3    H1 7160   4.258   1.225   2.500
 2405TIP3    H2 7161   4.380   1.261   2.581
 2406TIP3   OH2 7162   1.703   2.852   6.036
 2406TIP3    H1 7163   1.727   2.770   6.079
 2406TIP3    H2 7164   1.786   2.897   6.022
 2407TIP3   OH2 7165   7.481   1.384   1.427
 2407TIP3    H1 7166   7.432   1.464   1.404
 2407TIP3    H2 7167   7.539   1.412   1.498
 2408TIP3   OH2 7168   2.124   1.142   0.864
 2408TIP3    H1 7169   2.152   1.224   0.823
 2408TIP3    H2 7170   2.028   1.144   0.858
 2409TIP3   OH2 7171   6.116   0.660   1.287
 2409TIP3    H1 7172   6.115   0.745   1.330
 2409TIP3    H2 7173   6.168   0.604   1.344
 2410TIP3   OH2 7174   4.183   1.623   5.031
 2410TIP3    H1 7175   4.186   1.589   4.941
 2410TIP3    H2 7176   4.151   1.713   5.021
 2411TIP3   OH2 7177   0.990   1.740   1.036
 2411TIP3    H1 7178   1.038   1.737   1.120
 2411TIP3    H2 7179   1.054   1.773   0.974
 2412TIP3   OH2 7180   4.543   7.046   6.211
 2412TIP3    H1 7181   4.590   7.039   6.294
 2412TIP3    H2 7182   4.557   6.961   6.168
 2413TIP3   OH2 7183   7.645   4.105   6.305
 2413TIP3    H1 7184   7.563   4.148   6.282
 2413TIP3    H2 7185   7.685   4.163   6.370
 2414TIP3   OH2 7186   0.220   2.937   3.872
 2414TIP3    H1 7187   0.212   2.855   3.824
 2414TIP3    H2 7188   0.311   2.963   3.861
 2415TIP3   OH2 7189   0.718   1.474   2.265
 2415TIP3    H1 7190   0.752   1.456   2.177
 2415TIP3    H2 7191   0.744   1.564   2.283
 2416TIP3   OH2 7192   3.760   4.768   5.577
 2416TIP3    H1 7193   3.854   4.765   5.593
 2416TIP3    H2 7194   3.751   4.789   5.484
 2417TIP3   OH2 7195   4.601   6.722   1.106
 2417TIP3    H1 7196   4.685   6.761   1.132
 2417TIP3    H2 7197   4.596   6.735   1.011
 2418TIP3   OH2 7198   2.456   0.961   0.064
 2418TIP3    H1 7199   2.432   0.990  -0.024
 2418TIP3    H2 7200   2.523   0.894   0.049
 2419TIP3   OH2 7201   7.695   1.323   0.720
 2419TIP3    H1 7202   7.774   1.272   0.708
 2419TIP3    H2 7203   7.703   1.396   0.657
 2420TIP3   OH2 7204   3.755   1.417   0.473
 2420TIP3    H1 7205   3.785   1.507   0.482
 2420TIP3    H2 7206   3.834   1.369   0.446
 2421TIP3   OH2 7207   5.881   3.285   4.226
 2421TIP3    H1 7208   5.802   3.259   4.274
 2421TIP3    H2 7209   5.920   3.354   4.280
 2422TIP3   OH2 7210   2.136   6.000   1.203
 2422TIP3    H1 7211   2.068   5.990   1.268
 2422TIP3    H2 7212   2.207   6.045   1.249
 2423TIP3   OH2 7213   4.416   0.682   6.390
 2423TIP3    H1 7214   4.332   0.727   6.382
 2423TIP3    H2 7215   4.419   0.624   6.314
 2424TIP3   OH2 7216   2.033   6.406   0.269
 2424TIP3    H1 7217   1.943   6.439   0.263
 2424TIP3    H2 7218   2.087   6.483   0.254
 2425TIP3   OH2 7219   5.285   0.384   4.170
 2425TIP3    H1 7220   5.319   0.444   4.103
 2425TIP3    H2 7221   5.205   0.425   4.202
 2426TIP3   OH2 7222   0.717   0.949   4.334
 2426TIP3    H1 7223   0.794   0.893   4.344
 2426TIP3    H2 7224   0.671   0.912   4.258
 2427TIP3   OH2 7225   5.480   3.863   3.907
 2427TIP3    H1 7226   5.566   3.898   3.884
 2427TIP3    H2 7227   5.481   3.773   3.874
 2428TIP3   OH2 7228   7.999   1.124   1.321
 2428TIP3    H1 7229   7.952   1.091   1.245
 2428TIP3    H2 7230   8.087   1.087   1.312
 2429TIP3   OH2 7231   6.661   6.065   0.488
 2429TIP3    H1 7232   6.600   6.133   0.516
 2429TIP3    H2 7233   6.719   6.109   0.426
 2430TIP3   OH2 7234   2.925   3.069   4.996
 2430TIP3    H1 7235   2.972   3.141   4.955
 2430TIP3    H2 7236   2.993   3.019   5.041
 2431TIP3   OH2 7237   1.043   1.659   3.441
 2431TIP3    H1 7238   1.009   1.614   3.518
 2431TIP3    H2 7239   1.059   1.749   3.471
 2432TIP3   OH2 7240   3.344   6.374   4.634
 2432TIP3    H1 7241   3.419   6.368   4.693
 2432TIP3    H2 7242   3.279   6.425   4.682
 2433TIP3   OH2 7243   0.051   7.071   5.437
 2433TIP3    H1 7244  -0.011   7.029   5.495
 2433TIP3    H2 7245   0.136   7.032   5.460
 2434TIP3   OH2 7246   1.946   0.041   4.442
 2434TIP3    H1 7247   1.986   0.075   4.522
 2434TIP3    H2 7248   1.890   0.113   4.412
 2435TIP3   OH2 7249   6.565   0.501   6.550
 2435TIP3    H1 7250   6.476   0.511   6.583
 2435TIP3    H2 7251   6.613   0.576   6.588
 2436TIP3   OH2 7252   5.918   3.476   5.998
 2436TIP3    H1 7253   5.870   3.558   5.985
 2436TIP3    H2 7254   5.877   3.414   5.938
 2437TIP3   OH2 7255   1.502   6.910   4.366
 2437TIP3    H1 7256   1.533   6.928   4.455
 2437TIP3    H2 7257   1.554   6.836   4.337
 2438TIP3   OH2 7258   4.827   3.798   3.634
 2438TIP3    H1 7259   4.867   3.878   3.600
 2438TIP3    H2 7260   4.877   3.727   3.592
 2439TIP3   OH2 7261   6.187   2.709   3.958
 2439TIP3    H1 7262   6.277   2.689   3.985
 2439TIP3    H2 7263   6.162   2.784   4.012
 2440TIP3   OH2 7264   7.980   3.661   0.079
 2440TIP3    H1 7265   7.964   3.569   0.100
 2440TIP3    H2 7266   7.925   3.679   0.003
 2441TIP3   OH2 7267   2.209   0.474   2.240
 2441TIP3    H1 7268   2.226   0.414   2.312
 2441TIP3    H2 7269   2.281   0.459   2.179
 2442TIP3   OH2 7270   8.279   2.160   3.823
 2442TIP3    H1 7271   8.205   2.125   3.773
 2442TIP3    H2 7272   8.302   2.090   3.884
 2443TIP3   OH2 7273   1.881   4.016   5.451
 2443TIP3    H1 7274   1.867   3.984   5.540
 2443TIP3    H2 7275   1.976   4.008   5.438
 2444TIP3   OH2 7276   7.658   6.255   2.110
 2444TIP3    H1 7277   7.603   6.211   2.045
 2444TIP3    H2 7278   7.601   6.322   2.147
 2445TIP3   OH2 7279   3.943   4.964   3.769
 2445TIP3    H1 7280   3.912   4.898   3.707
 2445TIP3    H2 7281   3.982   4.915   3.841
 2446TIP3   OH2 7282   2.796   3.259   0.886
 2446TIP3    H1 7283   2.864   3.322   0.861
 2446TIP3    H2 7284   2.744   3.304   0.952
 2447TIP3   OH2 7285   0.850   4.636   6.439
 2447TIP3    H1 7286   0.816   4.700   6.501
 2447TIP3    H2 7287   0.826   4.671   6.353
 2448TIP3   OH2 7288   7.594   7.036   6.269
 2448TIP3    H1 7289   7.567   6.958   6.318
 2448TIP3    H2 7290   7.690   7.036   6.276
 2449TIP3   OH2 7291   0.260   5.622   5.996
 2449TIP3    H1 7292   0.282   5.640   5.905
 2449TIP3    H2 7293   0.164   5.626   5.998
 2450TIP3   OH2 7294   4.836   6.460   4.909
 2450TIP3    H1 7295   4.755   6.434   4.952
 2450TIP3    H2 7296   4.904   6.442   4.974
 2451TIP3   OH2 7297   3.978   0.753   0.922
 2451TIP3    H1 7298   4.062   0.724   0.957
 2451TIP3    H2 7299   3.977   0.718   0.833
 2452TIP3   OH2 7300   0.042   6.067   4.691
 2452TIP3    H1 7301  -0.049   6.077   4.717
 2452TIP3    H2 7302   0.091   6.075   4.773
 2453TIP3   OH2 7303   2.695   0.527   6.718
 2453TIP3    H1 7304   2.616   0.474   6.721
 2453TIP3    H2 7305   2.722   0.525   6.626
 2454TIP3   OH2 7306   1.940   1.451   6.211
 2454TIP3    H1 7307   1.997   1.478   6.282
 2454TIP3    H2 7308   1.851   1.456   6.247
 2455TIP3   OH2 7309   5.116   0.100   2.497
 2455TIP3    H1 7310   5.072   0.082   2.414
 2455TIP3    H2 7311   5.046   0.100   2.562
 2456TIP3   OH2 7312   4.899   4.566   6.277
 2456TIP3    H1 7313   4.884   4.644   6.330
 2456TIP3    H2 7314   4.993   4.566   6.261
 2457TIP3   OH2 7315   4.532   2.605   2.404
 2457TIP3    H1 7316   4.489   2.528   2.440
 2457TIP3    H2 7317   4.611   2.572   2.361
 2458TIP3   OH2 7318   4.387   5.477   4.376
 2458TIP3    H1 7319   4.373   5.395   4.330
 2458TIP3    H2 7320   4.312   5.531   4.352
 2459TIP3   OH2 7321   7.139   6.187   1.966
 2459TIP3    H1 7322   7.079   6.125   2.009
 2459TIP3    H2 7323   7.087   6.226   1.896
 2460TIP3   OH2 7324   0.941   4.340   2.113
 2460TIP3    H1 7325   0.896   4.280   2.053
 2460TIP3    H2 7326   0.963   4.286   2.189
 2461TIP3   OH2 7327   2.166   2.841   4.087
 2461TIP3    H1 7328   2.144   2.827   3.995
 2461TIP3    H2 7329   2.199   2.930   4.091
 2462TIP3   OH2 7330   2.703   4.879   3.513
 2462TIP3    H1 7331   2.795   4.853   3.522
 2462TIP3    H2 7332   2.699   4.920   3.426
 2463TIP3   OH2 7333   2.533   2.829   3.998
 2463TIP3    H1 7334   2.603   2.764   4.005
 2463TIP3    H2 7335   2.465   2.786   3.947
 2464TIP3   OH2 7336   6.364   5.721   5.244
 2464TIP3    H1 7337   6.452   5.715   5.206
 2464TIP3    H2 7338   6.350   5.636   5.287
 2465TIP3   OH2 7339   4.993   7.222   1.316
 2465TIP3    H1 7340   4.910   7.181   1.292
 2465TIP3    H2 7341   5.014   7.278   1.241
 2466TIP3   OH2 7342   1.853   7.378   3.624
 2466TIP3    H1 7343   1.807   7.402   3.704
 2466TIP3    H2 7344   1.946   7.385   3.647
 2467TIP3   OH2 7345   1.051   2.445   6.702
 2467TIP3    H1 7346   0.996   2.519   6.727
 2467TIP3    H2 7347   1.095   2.473   6.622
 2468TIP3   OH2 7348   7.422   7.735   2.710
 2468TIP3    H1 7349   7.346   7.790   2.693
 2468TIP3    H2 7350   7.473   7.782   2.776
 2469TIP3   OH2 7351   5.069   7.726   6.179
 2469TIP3    H1 7352   4.980   7.761   6.184
 2469TIP3    H2 7353   5.120   7.781   6.239
 2470TIP3   OH2 7354   4.332   6.223   1.051
 2470TIP3    H1 7355   4.255   6.176   1.020
 2470TIP3    H2 7356   4.297   6.290   1.110
 2471TIP3   OH2 7357   7.048   5.158   0.282
 2471TIP3    H1 7358   7.119   5.125   0.337
 2471TIP3    H2 7359   6.974   5.167   0.342
 2472TIP3   OH2 7360   4.545   0.615   5.478
 2472TIP3    H1 7361   4.633   0.648   5.460
 2472TIP3    H2 7362   4.557   0.542   5.538
 2473TIP3   OH2 7363   6.933   7.482   2.314
 2473TIP3    H1 7364   6.896   7.541   2.379
 2473TIP3    H2 7365   6.860   7.466   2.253
 2474TIP3   OH2 7366   5.837   0.785   6.258
 2474TIP3    H1 7367   5.841   0.707   6.313
 2474TIP3    H2 7368   5.808   0.854   6.316
 2475TIP3   OH2 7369   0.638   2.868   2.309
 2475TIP3    H1 7370   0.655   2.868   2.215
 2475TIP3    H2 7371   0.620   2.960   2.330
 2476TIP3   OH2 7372   3.071   5.288   3.719
 2476TIP3    H1 7373   3.090   5.195   3.734
 2476TIP3    H2 7374   2.977   5.290   3.703
 2477TIP3   OH2 7375   1.167   6.314   4.810
 2477TIP3    H1 7376   1.158   6.408   4.825
 2477TIP3    H2 7377   1.129   6.273   4.888
 2478TIP3   OH2 7378   7.069   1.840   6.278
 2478TIP3    H1 7379   7.148   1.895   6.282
 2478TIP3    H2 7380   7.099   1.753   6.303
 2479TIP3   OH2 7381   6.033   4.506   3.457
 2479TIP3    H1 7382   6.116   4.531   3.416
 2479TIP3    H2 7383   6.023   4.567   3.530
 2480TIP3   OH2 7384   8.251   4.172   6.374
 2480TIP3    H1 7385   8.316   4.128   6.428
 2480TIP3    H2 7386   8.193   4.217   6.436
 2481TIP3   OH2 7387   2.778   1.912   4.714
 2481TIP3    H1 7388   2.818   1.948   4.793
 2481TIP3    H2 7389   2.743   1.827   4.741
 2482TIP3   OH2 7390   5.916   0.075   6.200
 2482TIP3    H1 7391   5.937   0.009   6.267
 2482TIP3    H2 7392   5.996   0.128   6.193
 2483TIP3   OH2 7393   6.999   3.805   1.545
 2483TIP3    H1 7394   6.921   3.814   1.490
 2483TIP3    H2 7395   6.999   3.884   1.599
 2484TIP3   OH2 7396   5.607   1.239   5.865
 2484TIP3    H1 7397   5.703   1.234   5.858
 2484TIP3    H2 7398   5.575   1.163   5.816
 2485TIP3   OH2 7399   4.898   1.365   0.351
 2485TIP3    H1 7400   4.959   1.408   0.291
 2485TIP3    H2 7401   4.928   1.391   0.438
 2486TIP3   OH2 7402   3.764   7.531   0.351
 2486TIP3    H1 7403   3.832   7.467   0.332
 2486TIP3    H2 7404   3.711   7.491   0.420
 2487TIP3   OH2 7405   6.215   2.205   4.303
 2487TIP3    H1 7406   6.176   2.119   4.286
 2487TIP3    H2 7407   6.235   2.205   4.396
 2488TIP3   OH2 7408   7.877   5.794   5.631
 2488TIP3    H1 7409   7.925   5.770   5.551
 2488TIP3    H2 7410   7.787   5.766   5.614
 2489TIP3   OH2 7411   2.388   3.423   5.353
 2489TIP3    H1 7412   2.482   3.424   5.336
 2489TIP3    H2 7413   2.349   3.416   5.266
 2490TIP3   OH2 7414   6.094   0.552   3.833
 2490TIP3    H1 7415   6.005   0.560   3.866
 2490TIP3    H2 7416   6.084   0.521   3.743
 2491TIP3   OH2 7417   3.389   1.719   1.024
 2491TIP3    H1 7418   3.479   1.718   1.056
 2491TIP3    H2 7419   3.358   1.808   1.039
 2492TIP3   OH2 7420   2.011   6.064   6.271
 2492TIP3    H1 7421   1.933   6.011   6.251
 2492TIP3    H2 7422   2.027   6.047   6.364
 2493TIP3   OH2 7423   0.387   0.647   3.922
 2493TIP3    H1 7424   0.353   0.569   3.879
 2493TIP3    H2 7425   0.421   0.701   3.850
 2494TIP3   OH2 7426   6.124   6.982   0.952
 2494TIP3    H1 7427   6.156   6.896   0.925
 2494TIP3    H2 7428   6.087   6.967   1.040
 2495TIP3   OH2 7429   1.052   5.899   2.681
 2495TIP3    H1 7430   1.128   5.871   2.732
 2495TIP3    H2 7431   1.070   5.990   2.659
 2496TIP3   OH2 7432   3.760   2.877   2.725
 2496TIP3    H1 7433   3.687   2.825   2.760
 2496TIP3    H2 7434   3.719   2.946   2.674
 2497TIP3   OH2 7435   0.710   7.576   2.330
 2497TIP3    H1 7436   0.716   7.488   2.293
 2497TIP3    H2 7437   0.687   7.562   2.422
 2498TIP3   OH2 7438   6.538   3.988   6.538
 2498TIP3    H1 7439   6.575   3.906   6.504
 2498TIP3    H2 7440   6.470   3.959   6.599
 2499TIP3   OH2 7441   6.193   7.401   5.751
 2499TIP3    H1 7442   6.258   7.341   5.713
 2499TIP3    H2 7443   6.109   7.357   5.736
 2500TIP3   OH2 7444   6.293   7.519   3.208
 2500TIP3    H1 7445   6.345   7.447   3.243
 2500TIP3    H2 7446   6.234   7.544   3.279
 2501TIP3   OH2 7447   2.844   0.526   3.591
 2501TIP3    H1 7448   2.937   0.506   3.579
 2501TIP3    H2 7449   2.805   0.442   3.617
 2502TIP3   OH2 7450   3.027   3.268   5.956
 2502TIP3    H1 7451   3.074   3.311   6.027
 2502TIP3    H2 7452   3.052   3.318   5.878
 2503TIP3   OH2 7453   7.392   5.043   2.431
 2503TIP3    H1 7454   7.460   5.033   2.365
 2503TIP3    H2 7455   7.413   5.126   2.475
 2504TIP3   OH2 7456   0.889   4.901   3.509
 2504TIP3    H1 7457   0.835   4.828   3.479
 2504TIP3    H2 7458   0.908   4.950   3.429
 2505TIP3   OH2 7459   1.111   3.414   3.640
 2505TIP3    H1 7460   1.150   3.419   3.552
 2505TIP3    H2 7461   1.114   3.321   3.662
 2506TIP3   OH2 7462   5.445   6.873   2.199
 2506TIP3    H1 7463   5.405   6.792   2.232
 2506TIP3    H2 7464   5.436   6.867   2.104
 2507TIP3   OH2 7465   2.901   0.770   1.746
 2507TIP3    H1 7466   2.967   0.788   1.813
 2507TIP3    H2 7467   2.931   0.690   1.703
 2508TIP3   OH2 7468   0.876   6.967   2.340
 2508TIP3    H1 7469   0.900   6.875   2.324
 2508TIP3    H2 7470   0.901   6.983   2.431
 2509TIP3   OH2 7471   2.529   4.294   6.703
 2509TIP3    H1 7472   2.447   4.307   6.751
 2509TIP3    H2 7473   2.579   4.374   6.718
 2510TIP3   OH2 7474   0.765   5.359   6.534
 2510TIP3    H1 7475   0.816   5.414   6.593
 2510TIP3    H2 7476   0.689   5.413   6.512
 2511TIP3   OH2 7477   0.320   7.487   6.716
 2511TIP3    H1 7478   0.269   7.406   6.727
 2511TIP3    H2 7479   0.384   7.466   6.648
 2512TIP3   OH2 7480   3.871   5.545   2.690
 2512TIP3    H1 7481   3.963   5.532   2.714
 2512TIP3    H2 7482   3.822   5.524   2.770
 2513TIP3   OH2 7483   3.524   6.309   3.189
 2513TIP3    H1 7484   3.568   6.276   3.111
 2513TIP3    H2 7485   3.433   6.282   3.180
 2514TIP3   OH2 7486   5.445   3.811   1.092
 2514TIP3    H1 7487   5.456   3.873   1.165
 2514TIP3    H2 7488   5.458   3.725   1.132
 2515TIP3   OH2 7489   6.934   5.143   3.721
 2515TIP3    H1 7490   6.990   5.195   3.663
 2515TIP3    H2 7491   6.994   5.109   3.787
 2516TIP3   OH2 7492   6.029   2.843   5.538
 2516TIP3    H1 7493   6.118   2.877   5.537
 2516TIP3    H2 7494   5.977   2.912   5.495
 2517TIP3   OH2 7495   0.645   6.415   3.287
 2517TIP3    H1 7496   0.577   6.422   3.220
 2517TIP3    H2 7497   0.724   6.389   3.239
 2518TIP3   OH2 7498   2.430   5.769   0.653
 2518TIP3    H1 7499   2.335   5.773   0.643
 2518TIP3    H2 7500   2.462   5.848   0.610
 2519TIP3   OH2 7501   5.938   4.437   5.573
 2519TIP3    H1 7502   5.859   4.462   5.622
 2519TIP3    H2 7503   5.913   4.357   5.527
 2520TIP3   OH2 7504   6.186   5.409   3.660
 2520TIP3    H1 7505   6.118   5.355   3.700
 2520TIP3    H2 7506   6.259   5.349   3.646
 2521TIP3   OH2 7507   5.716   3.061   0.494
 2521TIP3    H1 7508   5.800   3.104   0.477
 2521TIP3    H2 7509   5.686   3.032   0.408
 2522TIP3   OH2 7510   0.007   1.672   3.725
 2522TIP3    H1 7511   0.008   1.653   3.819
 2522TIP3    H2 7512  -0.047   1.603   3.688
 2523TIP3   OH2 7513   8.139   1.625   4.808
 2523TIP3    H1 7514   8.124   1.695   4.745
 2523TIP3    H2 7515   8.055   1.578   4.812
 2524TIP3   OH2 7516   1.974   1.352   5.135
 2524TIP3    H1 7517   2.037   1.361   5.206
 2524TIP3    H2 7518   1.938   1.264   5.146
 2525TIP3   OH2 7519   4.391   7.734   3.209
 2525TIP3    H1 7520   4.336   7.697   3.278
 2525TIP3    H2 7521   4.472   7.684   3.213
 2526TIP3   OH2 7522   7.508   5.366   1.028
 2526TIP3    H1 7523   7.497   5.461   1.028
 2526TIP3    H2 7524   7.552   5.346   1.111
 2527TIP3   OH2 7525   8.172   1.786   5.362
 2527TIP3    H1 7526   8.184   1.792   5.267
 2527TIP3    H2 7527   8.080   1.808   5.377
 2528TIP3   OH2 7528   0.672   1.193   3.281
 2528TIP3    H1 7529   0.688   1.101   3.304
 2528TIP3    H2 7530   0.613   1.187   3.205
 2529TIP3   OH2 7531   7.658   4.247   5.429
 2529TIP3    H1 7532   7.675   4.161   5.467
 2529TIP3    H2 7533   7.571   4.239   5.389
 2530TIP3   OH2 7534   1.670   5.997   2.707
 2530TIP3    H1 7535   1.610   5.978   2.779
 2530TIP3    H2 7536   1.737   6.053   2.745
 2531TIP3   OH2 7537   3.136   7.175   0.144
 2531TIP3    H1 7538   3.155   7.156   0.236
 2531TIP3    H2 7539   3.217   7.153   0.098
 2532TIP3   OH2 7540   2.995   2.272   5.949
 2532TIP3    H1 7541   2.960   2.219   6.021
 2532TIP3    H2 7542   2.995   2.361   5.982
 2533TIP3   OH2 7543   3.244   5.042   0.546
 2533TIP3    H1 7544   3.254   5.101   0.471
 2533TIP3    H2 7545   3.189   4.971   0.514
 2534TIP3   OH2 7546   5.382   1.511   0.282
 2534TIP3    H1 7547   5.406   1.497   0.374
 2534TIP3    H2 7548   5.465   1.530   0.238
 2535TIP3   OH2 7549   0.245   4.640   1.209
 2535TIP3    H1 7550   0.250   4.721   1.260
 2535TIP3    H2 7551   0.308   4.581   1.251
 2536TIP3   OH2 7552   0.322   1.926   3.411
 2536TIP3    H1 7553   0.304   1.971   3.329
 2536TIP3    H2 7554   0.239   1.882   3.432
 2537TIP3   OH2 7555   2.067   5.285   0.188
 2537TIP3    H1 7556   2.084   5.204   0.236
 2537TIP3    H2 7557   2.069   5.354   0.254
 2538TIP3   OH2 7558   2.100   3.478   3.504
 2538TIP3    H1 7559   2.166   3.534   3.546
 2538TIP3    H2 7560   2.064   3.427   3.575
 2539TIP3   OH2 7561   1.241   5.482   1.678
 2539TIP3    H1 7562   1.218   5.488   1.585
 2539TIP3    H2 7563   1.194   5.554   1.719
 2540TIP3   OH2 7564   4.252   6.069   0.385
 2540TIP3    H1 7565   4.180   6.099   0.440
 2540TIP3    H2 7566   4.273   6.145   0.330
 2541TIP3   OH2 7567   0.798   6.051   0.541
 2541TIP3    H1 7568   0.821   5.966   0.580
 2541TIP3    H2 7569   0.793   6.033   0.447
 2542TIP3   OH2 7570   2.120   5.078   0.322
 2542TIP3    H1 7571   2.081   4.998   0.358
 2542TIP3    H2 7572   2.188   5.102   0.385
 2543TIP3   OH2 7573   4.866   0.129   2.654
 2543TIP3    H1 7574   4.851   0.201   2.593
 2543TIP3    H2 7575   4.778   0.106   2.686
 2544TIP3   OH2 7576   0.331   2.757   2.702
 2544TIP3    H1 7577   0.332   2.682   2.762
 2544TIP3    H2 7578   0.406   2.810   2.729
 2545TIP3   OH2 7579   3.349   7.084   2.917
 2545TIP3    H1 7580   3.397   7.138   2.980
 2545TIP3    H2 7581   3.288   7.034   2.970
 2546TIP3   OH2 7582   6.340   3.779   0.641
 2546TIP3    H1 7583   6.304   3.723   0.709
 2546TIP3    H2 7584   6.277   3.775   0.570
 2547TIP3   OH2 7585   6.779   1.923   0.770
 2547TIP3    H1 7586   6.740   1.838   0.754
 2547TIP3    H2 7587   6.719   1.966   0.831
 2548TIP3   OH2 7588   3.303   1.649   0.301
 2548TIP3    H1 7589   3.303   1.732   0.350
 2548TIP3    H2 7590   3.368   1.595   0.345
 2549TIP3   OH2 7591   3.072   4.948   3.060
 2549TIP3    H1 7592   3.166   4.939   3.046
 2549TIP3    H2 7593   3.055   5.041   3.047
 2550TIP3   OH2 7594   0.815   4.821   0.912
 2550TIP3    H1 7595   0.810   4.816   1.008
 2550TIP3    H2 7596   0.844   4.734   0.885
 2551TIP3   OH2 7597   3.795   5.836   3.982
 2551TIP3    H1 7598   3.774   5.888   4.059
 2551TIP3    H2 7599   3.878   5.872   3.950
 2552TIP3   OH2 7600   6.318   1.555   0.532
 2552TIP3    H1 7601   6.295   1.638   0.574
 2552TIP3    H2 7602   6.407   1.568   0.499
 2553TIP3   OH2 7603   6.714   0.796   4.275
 2553TIP3    H1 7604   6.663   0.792   4.356
 2553TIP3    H2 7605   6.805   0.791   4.304
 2554TIP3   OH2 7606   2.776   0.195   3.935
 2554TIP3    H1 7607   2.805   0.284   3.956
 2554TIP3    H2 7608   2.806   0.180   3.846
 2555TIP3   OH2 7609   0.128   1.353   6.425
 2555TIP3    H1 7610   0.159   1.296   6.495
 2555TIP3    H2 7611   0.078   1.294   6.368
 2556TIP3   OH2 7612   7.706   1.334   6.127
 2556TIP3    H1 7613   7.717   1.244   6.098
 2556TIP3    H2 7614   7.795   1.369   6.132
 2557TIP3   OH2 7615   8.231   1.872   2.867
 2557TIP3    H1 7616   8.182   1.885   2.786
 2557TIP3    H2 7617   8.171   1.900   2.936
 2558TIP3   OH2 7618   2.231   4.126   0.427
 2558TIP3    H1 7619   2.278   4.055   0.383
 2558TIP3    H2 7620   2.255   4.117   0.520
 2559TIP3   OH2 7621   6.898   0.930   4.750
 2559TIP3    H1 7622   6.901   0.911   4.844
 2559TIP3    H2 7623   6.811   0.902   4.722
 2560TIP3   OH2 7624   1.062   4.025   1.891
 2560TIP3    H1 7625   1.028   3.935   1.887
 2560TIP3    H2 7626   0.983   4.080   1.894
 2561TIP3   OH2 7627   4.581   4.836   3.026
 2561TIP3    H1 7628   4.538   4.800   3.103
 2561TIP3    H2 7629   4.519   4.819   2.954
 2562TIP3   OH2 7630   4.186   6.941   4.603
 2562TIP3    H1 7631   4.126   7.012   4.627
 2562TIP3    H2 7632   4.132   6.862   4.602
 2563TIP3   OH2 7633   1.568   4.985   5.729
 2563TIP3    H1 7634   1.613   5.064   5.700
 2563TIP3    H2 7635   1.517   5.012   5.805
 2564TIP3   OH2 7636   1.652   4.990   4.603
 2564TIP3    H1 7637   1.695   5.075   4.613
 2564TIP3    H2 7638   1.561   5.006   4.628
 2565TIP3   OH2 7639   3.104   6.010   3.439
 2565TIP3    H1 7640   3.194   6.034   3.417
 2565TIP3    H2 7641   3.112   5.947   3.511
 2566TIP3   OH2 7642   3.196   1.951   1.835
 2566TIP3    H1 7643   3.168   1.864   1.807
 2566TIP3    H2 7644   3.188   2.005   1.756
 2567TIP3   OH2 7645   6.715   6.463   4.704
 2567TIP3    H1 7646   6.632   6.439   4.743
 2567TIP3    H2 7647   6.754   6.381   4.676
 2568TIP3   OH2 7648   2.982   7.782   0.390
 2568TIP3    H1 7649   2.970   7.798   0.484
 2568TIP3    H2 7650   2.919   7.840   0.347
 2569TIP3   OH2 7651   8.241   6.309   6.383
 2569TIP3    H1 7652   8.332   6.308   6.356
 2569TIP3    H2 7653   8.228   6.395   6.423
 2570TIP3   OH2 7654   8.289   4.668   0.407
 2570TIP3    H1 7655   8.244   4.751   0.392
 2570TIP3    H2 7656   8.312   4.638   0.319
 2571TIP3   OH2 7657   0.221   4.406   6.029
 2571TIP3    H1 7658   0.146   4.458   6.001
 2571TIP3    H2 7659   0.291   4.430   5.968
 2572TIP3   OH2 7660   5.027   5.069   6.421
 2572TIP3    H1 7661   4.987   5.151   6.447
 2572TIP3    H2 7662   5.039   5.077   6.326
 2573TIP3   OH2 7663   3.819   5.605   1.616
 2573TIP3    H1 7664   3.822   5.687   1.666
 2573TIP3    H2 7665   3.756   5.551   1.662
 2574TIP3   OH2 7666   3.755   4.876   1.489
 2574TIP3    H1 7667   3.840   4.913   1.513
 2574TIP3    H2 7668   3.746   4.799   1.545
 2575TIP3   OH2 7669   6.897   1.549   1.094
 2575TIP3    H1 7670   6.974   1.546   1.152
 2575TIP3    H2 7671   6.850   1.469   1.114
 2576TIP3   OH2 7672   3.325   6.726   0.120
 2576TIP3    H1 7673   3.395   6.678   0.076
 2576TIP3    H2 7674   3.266   6.753   0.049
 2577TIP3   OH2 7675   1.652   1.014   2.415
 2577TIP3    H1 7676   1.651   0.981   2.325
 2577TIP3    H2 7677   1.607   0.947   2.466
 2578TIP3   OH2 7678   5.815   3.727   5.941
 2578TIP3    H1 7679   5.728   3.720   5.901
 2578TIP3    H2 7680   5.850   3.810   5.907
 2579TIP3   OH2 7681   2.916   6.346   6.373
 2579TIP3    H1 7682   2.834   6.366   6.328
 2579TIP3    H2 7683   2.892   6.335   6.465
 2580TIP3   OH2 7684   5.102   6.052   3.603
 2580TIP3    H1 7685   5.063   5.994   3.668
 2580TIP3    H2 7686   5.183   6.009   3.578
 2581TIP3   OH2 7687   4.451   6.195   2.379
 2581TIP3    H1 7688   4.425   6.121   2.325
 2581TIP3    H2 7689   4.513   6.244   2.325
 2582TIP3   OH2 7690   1.619   5.213   1.279
 2582TIP3    H1 7691   1.549   5.217   1.213
 2582TIP3    H2 7692   1.698   5.234   1.230
 2583TIP3   OH2 7693   6.475   2.586   0.500
 2583TIP3    H1 7694   6.388   2.547   0.486
 2583TIP3    H2 7695   6.472   2.669   0.454
 2584TIP3   OH2 7696   4.971   4.262   5.017
 2584TIP3    H1 7697   4.936   4.344   5.052
 2584TIP3    H2 7698   5.003   4.215   5.094
 2585TIP3   OH2 7699   3.917   1.343   2.718
 2585TIP3    H1 7700   3.904   1.272   2.782
 2585TIP3    H2 7701   3.877   1.310   2.637
 2586TIP3   OH2 7702   3.882   2.636   3.297
 2586TIP3    H1 7703   3.808   2.582   3.326
 2586TIP3    H2 7704   3.959   2.587   3.325
 2587TIP3   OH2 7705   0.566   5.814  -0.016
 2587TIP3    H1 7706   0.558   5.748   0.053
 2587TIP3    H2 7707   0.483   5.861  -0.014
 2588TIP3   OH2 7708   3.943   6.921   0.862
 2588TIP3    H1 7709   3.970   6.888   0.777
 2588TIP3    H2 7710   3.978   6.858   0.925
 2589TIP3   OH2 7711   7.076   5.700   6.382
 2589TIP3    H1 7712   7.077   5.636   6.452
 2589TIP3    H2 7713   7.110   5.653   6.306
 2590TIP3   OH2 7714   1.878   4.646   3.414
 2590TIP3    H1 7715   1.857   4.639   3.507
 2590TIP3    H2 7716   1.894   4.740   3.399
 2591TIP3   OH2 7717   4.115   3.699   2.539
 2591TIP3    H1 7718   4.208   3.690   2.561
 2591TIP3    H2 7719   4.069   3.651   2.608
 2592TIP3   OH2 7720   5.547   5.214   2.659
 2592TIP3    H1 7721   5.598   5.295   2.660
 2592TIP3    H2 7722   5.588   5.159   2.593
 2593TIP3   OH2 7723   4.893   4.639   2.875
 2593TIP3    H1 7724   4.815   4.636   2.820
 2593TIP3    H2 7725   4.964   4.606   2.819
 2594TIP3   OH2 7726   1.275   1.796   2.108
 2594TIP3    H1 7727   1.256   1.824   2.197
 2594TIP3    H2 7728   1.197   1.749   2.080
 2595TIP3   OH2 7729   2.056   6.530   4.677
 2595TIP3    H1 7730   2.147   6.505   4.694
 2595TIP3    H2 7731   2.062   6.613   4.631
 2596TIP3   OH2 7732   1.605   0.144   0.207
 2596TIP3    H1 7733   1.535   0.208   0.217
 2596TIP3    H2 7734   1.590   0.104   0.122
 2597TIP3   OH2 7735   0.877   0.232   1.243
 2597TIP3    H1 7736   0.905   0.214   1.154
 2597TIP3    H2 7737   0.955   0.266   1.286
 2598TIP3   OH2 7738   0.687   4.195   3.476
 2598TIP3    H1 7739   0.700   4.275   3.527
 2598TIP3    H2 7740   0.720   4.126   3.533
 2599TIP3   OH2 7741   2.053   7.764   4.900
 2599TIP3    H1 7742   2.062   7.842   4.955
 2599TIP3    H2 7743   2.130   7.711   4.920
 2600TIP3   OH2 7744   0.072   5.280   5.932
 2600TIP3    H1 7745  -0.018   5.275   5.966
 2600TIP3    H2 7746   0.062   5.320   5.846
 2601TIP3   OH2 7747   3.691   1.003   4.731
 2601TIP3    H1 7748   3.746   0.961   4.665
 2601TIP3    H2 7749   3.752   1.031   4.799
 2602TIP3   OH2 7750   7.437   2.405   5.374
 2602TIP3    H1 7751   7.367   2.406   5.439
 2602TIP3    H2 7752   7.517   2.390   5.425
 2603TIP3   OH2 7753   4.213   6.635   2.728
 2603TIP3    H1 7754   4.123   6.623   2.758
 2603TIP3    H2 7755   4.262   6.563   2.767
 2604TIP3   OH2 7756   3.614   0.047   5.520
 2604TIP3    H1 7757   3.598  -0.040   5.485
 2604TIP3    H2 7758   3.561   0.052   5.600
 2605TIP3   OH2 7759   5.385   7.038   5.254
 2605TIP3    H1 7760   5.441   6.967   5.285
 2605TIP3    H2 7761   5.369   7.092   5.331
 2606TIP3   OH2 7762   2.182   3.977   3.528
 2606TIP3    H1 7763   2.257   4.007   3.580
 2606TIP3    H2 7764   2.219   3.913   3.467
 2607TIP3   OH2 7765   1.064   3.246   1.827
 2607TIP3    H1 7766   1.016   3.177   1.782
 2607TIP3    H2 7767   1.067   3.318   1.764
 2608TIP3   OH2 7768   5.066   3.476   4.292
 2608TIP3    H1 7769   5.061   3.571   4.300
 2608TIP3    H2 7770   4.998   3.443   4.350
 2609TIP3   OH2 7771   6.394   0.231   1.582
 2609TIP3    H1 7772   6.435   0.311   1.614
 2609TIP3    H2 7773   6.430   0.162   1.638
 2610TIP3   OH2 7774   1.053   2.570   6.431
 2610TIP3    H1 7775   1.110   2.634   6.388
 2610TIP3    H2 7776   1.057   2.492   6.376
 2611TIP3   OH2 7777   0.578   3.178   6.710
 2611TIP3    H1 7778   0.610   3.143   6.793
 2611TIP3    H2 7779   0.635   3.253   6.692
 2612TIP3   OH2 7780   7.980   6.536   1.966
 2612TIP3    H1 7781   7.906   6.559   1.909
 2612TIP3    H2 7782   7.973   6.441   1.976
 2613TIP3   OH2 7783   2.215   4.104   3.180
 2613TIP3    H1 7784   2.249   4.104   3.269
 2613TIP3    H2 7785   2.230   4.193   3.148
 2614TIP3   OH2 7786   6.993   1.015   5.895
 2614TIP3    H1 7787   6.986   0.985   5.804
 2614TIP3    H2 7788   6.981   0.935   5.947
 2615TIP3   OH2 7789   0.756   5.865   4.265
 2615TIP3    H1 7790   0.737   5.788   4.319
 2615TIP3    H2 7791   0.675   5.916   4.266
 2616TIP3   OH2 7792   3.914   6.397   4.028
 2616TIP3    H1 7793   3.846   6.330   4.034
 2616TIP3    H2 7794   3.986   6.363   4.081
 2617TIP3   OH2 7795   3.426   6.012   0.801
 2617TIP3    H1 7796   3.371   5.998   0.724
 2617TIP3    H2 7797   3.417   6.105   0.821
 2618TIP3   OH2 7798   0.488   1.234   0.718
 2618TIP3    H1 7799   0.398   1.213   0.744
 2618TIP3    H2 7800   0.542   1.176   0.771
 2619TIP3   OH2 7801   1.045   6.639   0.285
 2619TIP3    H1 7802   1.050   6.669   0.194
 2619TIP3    H2 7803   1.029   6.718   0.336
 2620TIP3   OH2 7804   5.397   1.334   5.444
 2620TIP3    H1 7805   5.447   1.317   5.364
 2620TIP3    H2 7806   5.387   1.429   5.446
 2621TIP3   OH2 7807   6.495   6.315   4.815
 2621TIP3    H1 7808   6.500   6.228   4.775
 2621TIP3    H2 7809   6.493   6.297   4.909
 2622TIP3   OH2 7810   7.253   4.780   1.857
 2622TIP3    H1 7811   7.195   4.707   1.879
 2622TIP3    H2 7812   7.208   4.826   1.786
 2623TIP3   OH2 7813   0.416   3.827   6.352
 2623TIP3    H1 7814   0.413   3.748   6.406
 2623TIP3    H2 7815   0.508   3.854   6.354
 2624TIP3   OH2 7816   1.293   4.208   6.289
 2624TIP3    H1 7817   1.343   4.130   6.266
 2624TIP3    H2 7818   1.289   4.207   6.385
 2625TIP3   OH2 7819   0.451   5.751   2.996
 2625TIP3    H1 7820   0.536   5.794   2.991
 2625TIP3    H2 7821   0.387   5.820   2.978
 2626TIP3   OH2 7822   0.071   5.274   4.893
 2626TIP3    H1 7823   0.050   5.260   4.985
 2626TIP3    H2 7824   0.024   5.204   4.847
 2627TIP3   OH2 7825   4.792   5.446   2.659
 2627TIP3    H1 7826   4.775   5.361   2.700
 2627TIP3    H2 7827   4.729   5.451   2.588
 2628TIP3   OH2 7828   5.802   3.660   4.090
 2628TIP3    H1 7829   5.750   3.586   4.060
 2628TIP3    H2 7830   5.739   3.722   4.127
 2629TIP3   OH2 7831   2.138   0.977   5.791
 2629TIP3    H1 7832   2.059   0.985   5.737
 2629TIP3    H2 7833   2.207   0.953   5.729
 2630TIP3   OH2 7834   2.139   5.531   4.216
 2630TIP3    H1 7835   2.133   5.556   4.308
 2630TIP3    H2 7836   2.103   5.606   4.169
 2631TIP3   OH2 7837   0.064   4.512   3.479
 2631TIP3    H1 7838   0.042   4.605   3.479
 2631TIP3    H2 7839   0.066   4.487   3.386
 2632TIP3   OH2 7840   6.474   3.065   5.217
 2632TIP3    H1 7841   6.559   3.089   5.254
 2632TIP3    H2 7842   6.450   3.139   5.162
 2633TIP3   OH2 7843   7.689  -0.013   5.816
 2633TIP3    H1 7844   7.618   0.038   5.778
 2633TIP3    H2 7845   7.767   0.012   5.766
 2634TIP3   OH2 7846   3.162   0.083   1.184
 2634TIP3    H1 7847   3.099   0.151   1.160
 2634TIP3    H2 7848   3.115   0.027   1.246
 2635TIP3   OH2 7849   6.407   0.062   2.759
 2635TIP3    H1 7850   6.449  -0.011   2.806
 2635TIP3    H2 7851   6.316   0.034   2.750
 2636TIP3   OH2 7852   7.942   2.402   5.193
 2636TIP3    H1 7853   7.978   2.353   5.119
 2636TIP3    H2 7854   7.889   2.471   5.152
 2637TIP3   OH2 7855   1.199   1.056   2.429
 2637TIP3    H1 7856   1.183   1.046   2.335
 2637TIP3    H2 7857   1.295   1.050   2.437
 2638TIP3   OH2 7858   0.641   7.713   4.182
 2638TIP3    H1 7859   0.735   7.715   4.200
 2638TIP3    H2 7860   0.635   7.674   4.094
 2639TIP3   OH2 7861   7.259   0.303   0.144
 2639TIP3    H1 7862   7.228   0.222   0.185
 2639TIP3    H2 7863   7.220   0.302   0.057
 2640TIP3   OH2 7864   8.174   7.051   6.488
 2640TIP3    H1 7865   8.246   7.110   6.511
 2640TIP3    H2 7866   8.160   7.066   6.394
 2641TIP3   OH2 7867   8.180   7.674   0.589
 2641TIP3    H1 7868   8.274   7.656   0.596
 2641TIP3    H2 7869   8.165   7.746   0.650
 2642TIP3   OH2 7870   5.534   4.958   1.116
 2642TIP3    H1 7871   5.481   4.926   1.190
 2642TIP3    H2 7872   5.479   5.024   1.074
 2643TIP3   OH2 7873   1.717   5.571   2.071
 2643TIP3    H1 7874   1.737   5.573   2.164
 2643TIP3    H2 7875   1.640   5.515   2.063
 2644TIP3   OH2 7876   3.511   7.086   4.751
 2644TIP3    H1 7877   3.424   7.058   4.723
 2644TIP3    H2 7878   3.511   7.181   4.737
 2645TIP3   OH2 7879   6.081   2.423   4.171
 2645TIP3    H1 7880   6.028   2.387   4.100
 2645TIP3    H2 7881   6.112   2.346   4.219
 2646TIP3   OH2 7882   4.251   4.554   2.383
 2646TIP3    H1 7883   4.253   4.540   2.288
 2646TIP3    H2 7884   4.208   4.476   2.418
 2647TIP3   OH2 7885   7.809   5.652   5.001
 2647TIP3    H1 7886   7.788   5.687   4.914
 2647TIP3    H2 7887   7.821   5.558   4.987
 2648TIP3   OH2 7888   7.873   3.396   0.101
 2648TIP3    H1 7889   7.803   3.436   0.153
 2648TIP3    H2 7890   7.923   3.344   0.165
 2649TIP3   OH2 7891   5.284   2.916   0.788
 2649TIP3    H1 7892   5.379   2.929   0.784
 2649TIP3    H2 7893   5.248   2.976   0.724
 2650TIP3   OH2 7894   2.049   6.543   5.523
 2650TIP3    H1 7895   1.994   6.501   5.589
 2650TIP3    H2 7896   2.087   6.470   5.474
 2651TIP3   OH2 7897   2.720   2.345   2.701
 2651TIP3    H1 7898   2.750   2.281   2.766
 2651TIP3    H2 7899   2.721   2.429   2.747
 2652TIP3   OH2 7900   3.331   0.689   5.946
 2652TIP3    H1 7901   3.375   0.609   5.975
 2652TIP3    H2 7902   3.388   0.760   5.977
 2653TIP3   OH2 7903   2.333   5.259   4.683
 2653TIP3    H1 7904   2.375   5.312   4.751
 2653TIP3    H2 7905   2.257   5.310   4.656
 2654TIP3   OH2 7906   4.390   3.786   5.883
 2654TIP3    H1 7907   4.442   3.708   5.863
 2654TIP3    H2 7908   4.448   3.839   5.938
 2655TIP3   OH2 7909   2.676   7.645   6.436
 2655TIP3    H1 7910   2.761   7.600   6.442
 2655TIP3    H2 7911   2.612   7.576   6.451
 2656TIP3   OH2 7912   8.203   7.301   4.010
 2656TIP3    H1 7913   8.122   7.331   3.968
 2656TIP3    H2 7914   8.180   7.216   4.049
 2657TIP3   OH2 7915   4.146   0.394   2.115
 2657TIP3    H1 7916   4.090   0.320   2.089
 2657TIP3    H2 7917   4.231   0.375   2.077
 2658TIP3   OH2 7918   1.173   5.567   4.679
 2658TIP3    H1 7919   1.172   5.472   4.690
 2658TIP3    H2 7920   1.097   5.586   4.625
 2659TIP3   OH2 7921   4.918   6.511   3.129
 2659TIP3    H1 7922   4.991   6.455   3.157
 2659TIP3    H2 7923   4.860   6.453   3.081
 2660TIP3   OH2 7924   2.619   5.317   1.715
 2660TIP3    H1 7925   2.672   5.306   1.794
 2660TIP3    H2 7926   2.668   5.274   1.646
 2661TIP3   OH2 7927   5.397   5.714   4.510
 2661TIP3    H1 7928   5.354   5.765   4.442
 2661TIP3    H2 7929   5.438   5.779   4.567
 2662TIP3   OH2 7930   1.891   0.510   0.804
 2662TIP3    H1 7931   1.944   0.433   0.782
 2662TIP3    H2 7932   1.806   0.493   0.765
 2663TIP3   OH2 7933   0.295   3.859   1.633
 2663TIP3    H1 7934   0.320   3.773   1.666
 2663TIP3    H2 7935   0.317   3.919   1.704
 2664TIP3   OH2 7936   5.840   6.223   5.363
 2664TIP3    H1 7937   5.767   6.282   5.381
 2664TIP3    H2 7938   5.909   6.280   5.330
 2665TIP3   OH2 7939   4.791   1.337   3.900
 2665TIP3    H1 7940   4.832   1.272   3.843
 2665TIP3    H2 7941   4.840   1.418   3.882
 2666TIP3   OH2 7942   6.479   1.621   2.048
 2666TIP3    H1 7943   6.407   1.644   1.989
 2666TIP3    H2 7944   6.473   1.526   2.058
 2667TIP3   OH2 7945   7.180   5.804   0.406
 2667TIP3    H1 7946   7.184   5.873   0.340
 2667TIP3    H2 7947   7.125   5.840   0.475
 2668TIP3   OH2 7948   4.274   0.263   6.209
 2668TIP3    H1 7949   4.221   0.186   6.231
 2668TIP3    H2 7950   4.303   0.247   6.119
 2669TIP3   OH2 7951   5.616   3.314   2.876
 2669TIP3    H1 7952   5.655   3.399   2.899
 2669TIP3    H2 7953   5.626   3.261   2.955
 2670TIP3   OH2 7954   7.166   0.585   2.704
 2670TIP3    H1 7955   7.230   0.612   2.638
 2670TIP3    H2 7956   7.192   0.496   2.728
 2671TIP3   OH2 7957   7.426   7.412   1.498
 2671TIP3    H1 7958   7.479   7.413   1.419
 2671TIP3    H2 7959   7.465   7.479   1.554
 2672TIP3   OH2 7960   0.232   0.594   5.590
 2672TIP3    H1 7961   0.236   0.643   5.507
 2672TIP3    H2 7962   0.174   0.647   5.645
 2673TIP3   OH2 7963   1.417   6.166   1.125
 2673TIP3    H1 7964   1.378   6.126   1.047
 2673TIP3    H2 7965   1.351   6.157   1.193
 2674TIP3   OH2 7966   6.140   4.643   2.945
 2674TIP3    H1 7967   6.153   4.562   2.896
 2674TIP3    H2 7968   6.213   4.646   3.007
 2675TIP3   OH2 7969   4.477   1.361   5.757
 2675TIP3    H1 7970   4.491   1.379   5.664
 2675TIP3    H2 7971   4.559   1.388   5.799
 2676TIP3   OH2 7972   6.840   0.196   1.564
 2676TIP3    H1 7973   6.755   0.159   1.545
 2676TIP3    H2 7974   6.851   0.266   1.499
 2677TIP3   OH2 7975   7.729   0.470   3.096
 2677TIP3    H1 7976   7.654   0.465   3.155
 2677TIP3    H2 7977   7.805   0.476   3.153
 2678TIP3   OH2 7978   3.751   3.519   1.332
 2678TIP3    H1 7979   3.666   3.524   1.376
 2678TIP3    H2 7980   3.756   3.598   1.279
 2679TIP3   OH2 7981   2.011   0.693   0.427
 2679TIP3    H1 7982   2.041   0.759   0.365
 2679TIP3    H2 7983   2.020   0.610   0.381
 2680TIP3   OH2 7984   6.686   0.433   4.963
 2680TIP3    H1 7985   6.690   0.355   5.019
 2680TIP3    H2 7986   6.776   0.468   4.965
 2681TIP3   OH2 7987   2.301   1.636   6.050
 2681TIP3    H1 7988   2.329   1.726   6.069
 2681TIP3    H2 7989   2.298   1.594   6.136
 2682TIP3   OH2 7990   5.659  -0.012   0.976
 2682TIP3    H1 7991   5.733  -0.024   1.035
 2682TIP3    H2 7992   5.679   0.068   0.928
 2683TIP3   OH2 7993   6.300   5.143   6.530
 2683TIP3    H1 7994   6.266   5.202   6.463
 2683TIP3    H2 7995   6.367   5.092   6.485
 2684TIP3   OH2 7996   5.844   4.220   5.839
 2684TIP3    H1 7997   5.823   4.186   5.927
 2684TIP3    H2 7998   5.879   4.144   5.793
 2685TIP3   OH2 7999   5.595   5.946   3.061
 2685TIP3    H1 8000   5.571   5.972   3.150
 2685TIP3    H2 8001   5.512   5.927   3.018
 2686TIP3   OH2 8002   3.507   5.520   1.377
 2686TIP3    H1 8003   3.437   5.537   1.441
 2686TIP3    H2 8004   3.552   5.443   1.411
 2687TIP3   OH2 8005   3.141   2.931   4.340
 2687TIP3    H1 8006   3.224   2.886   4.320
 2687TIP3    H2 8007   3.073   2.869   4.315
 2688TIP3   OH2 8008   2.513   7.445   2.633
 2688TIP3    H1 8009   2.453   7.378   2.666
 2688TIP3    H2 8010   2.473   7.475   2.551
 2689TIP3   OH2 8011   1.222   5.915   5.954
 2689TIP3    H1 8012   1.208   5.871   5.870
 2689TIP3    H2 8013   1.163   5.871   6.015
 2690TIP3   OH2 8014   5.827   0.172   1.336
 2690TIP3    H1 8015   5.737   0.201   1.323
 2690TIP3    H2 8016   5.866   0.239   1.393
 2691TIP3   OH2 8017   4.887   1.788   3.071
 2691TIP3    H1 8018   4.816   1.807   3.010
 2691TIP3    H2 8019   4.964   1.829   3.033
 2692TIP3   OH2 8020   0.595   6.067   4.714
 2692TIP3    H1 8021   0.510   6.062   4.670
 2692TIP3    H2 8022   0.587   6.142   4.773
 2693TIP3   OH2 8023   7.776   6.572   5.316
 2693TIP3    H1 8024   7.738   6.508   5.256
 2693TIP3    H2 8025   7.754   6.657   5.277
 2694TIP3   OH2 8026   3.876   1.976   4.952
 2694TIP3    H1 8027   3.796   1.943   4.910
 2694TIP3    H2 8028   3.888   2.063   4.916
 2695TIP3   OH2 8029   2.745   7.410   6.045
 2695TIP3    H1 8030   2.755   7.491   6.095
 2695TIP3    H2 8031   2.828   7.363   6.059
 2696TIP3   OH2 8032   6.709   2.608   4.250
 2696TIP3    H1 8033   6.651   2.556   4.195
 2696TIP3    H2 8034   6.703   2.567   4.336
 2697TIP3   OH2 8035   5.453   6.396   0.500
 2697TIP3    H1 8036   5.529   6.445   0.470
 2697TIP3    H2 8037   5.378   6.440   0.460
 2698TIP3   OH2 8038   0.785   6.200   5.057
 2698TIP3    H1 8039   0.775   6.295   5.067
 2698TIP3    H2 8040   0.740   6.163   5.133
 2699TIP3   OH2 8041   1.612   6.954   6.044
 2699TIP3    H1 8042   1.577   7.043   6.043
 2699TIP3    H2 8043   1.610   6.925   5.953
 2700TIP3   OH2 8044   0.732   2.765   0.925
 2700TIP3    H1 8045   0.757   2.783   1.016
 2700TIP3    H2 8046   0.800   2.809   0.873
 2701TIP3   OH2 8047   3.227   2.252   5.479
 2701TIP3    H1 8048   3.205   2.166   5.442
 2701TIP3    H2 8049   3.292   2.288   5.418
 2702TIP3   OH2 8050   0.690   0.557   1.100
 2702TIP3    H1 8051   0.646   0.472   1.107
 2702TIP3    H2 8052   0.782   0.537   1.113
 2703TIP3   OH2 8053   2.634   3.950   1.747
 2703TIP3    H1 8054   2.657   3.994   1.828
 2703TIP3    H2 8055   2.708   3.968   1.688
 2704TIP3   OH2 8056   2.073   1.186   3.655
 2704TIP3    H1 8057   2.161   1.150   3.667
 2704TIP3    H2 8058   2.030   1.126   3.595
 2705TIP3   OH2 8059   3.618   0.074   0.911
 2705TIP3    H1 8060   3.691   0.125   0.947
 2705TIP3    H2 8061   3.624   0.087   0.816
 2706TIP3   OH2 8062   0.103   3.644   5.847
 2706TIP3    H1 8063   0.063   3.726   5.817
 2706TIP3    H2 8064   0.152   3.668   5.925
 2707TIP3   OH2 8065   1.973   7.120   0.823
 2707TIP3    H1 8066   1.943   7.063   0.752
 2707TIP3    H2 8067   1.966   7.209   0.788
 2708TIP3   OH2 8068   5.455   1.886   3.120
 2708TIP3    H1 8069   5.490   1.842   3.043
 2708TIP3    H2 8070   5.366   1.911   3.095
 2709TIP3   OH2 8071   6.626   5.926   5.728
 2709TIP3    H1 8072   6.532   5.943   5.731
 2709TIP3    H2 8073   6.656   5.968   5.647
 2710TIP3   OH2 8074   1.144   2.586   4.796
 2710TIP3    H1 8075   1.230   2.547   4.782
 2710TIP3    H2 8076   1.134   2.591   4.892
 2711TIP3   OH2 8077   2.710   1.080   2.487
 2711TIP3    H1 8078   2.647   1.015   2.456
 2711TIP3    H2 8079   2.788   1.030   2.508
 2712TIP3   OH2 8080   4.270   3.159   5.130
 2712TIP3    H1 8081   4.192   3.124   5.086
 2712TIP3    H2 8082   4.251   3.152   5.223
 2713TIP3   OH2 8083   5.495   2.336   3.615
 2713TIP3    H1 8084   5.585   2.305   3.602
 2713TIP3    H2 8085   5.459   2.279   3.683
 2714TIP3   OH2 8086   3.090   2.877   4.779
 2714TIP3    H1 8087   3.003   2.891   4.741
 2714TIP3    H2 8088   3.089   2.787   4.810
 2715TIP3   OH2 8089   2.853   4.664   4.911
 2715TIP3    H1 8090   2.831   4.625   4.827
 2715TIP3    H2 8091   2.784   4.729   4.927
 2716TIP3   OH2 8092   1.571   1.919   0.758
 2716TIP3    H1 8093   1.579   2.007   0.722
 2716TIP3    H2 8094   1.528   1.868   0.689
 2717TIP3   OH2 8095   3.382   7.664   1.653
 2717TIP3    H1 8096   3.373   7.719   1.576
 2717TIP3    H2 8097   3.451   7.706   1.705
 2718TIP3   OH2 8098   2.208   5.275   5.947
 2718TIP3    H1 8099   2.192   5.369   5.934
 2718TIP3    H2 8100   2.304   5.267   5.948
 2719TIP3   OH2 8101   3.020   3.601   4.458
 2719TIP3    H1 8102   3.008   3.551   4.377
 2719TIP3    H2 8103   3.054   3.537   4.520
 2720TIP3   OH2 8104   7.689   4.412   4.095
 2720TIP3    H1 8105   7.659   4.440   4.009
 2720TIP3    H2 8106   7.736   4.487   4.130
 2721TIP3   OH2 8107   8.071   2.719   3.996
 2721TIP3    H1 8108   8.147   2.660   3.993
 2721TIP3    H2 8109   8.004   2.675   3.944
 2722TIP3   OH2 8110   7.335   4.168   0.546
 2722TIP3    H1 8111   7.300   4.243   0.594
 2722TIP3    H2 8112   7.415   4.201   0.504
 2723TIP3   OH2 8113   4.617   0.757   5.857
 2723TIP3    H1 8114   4.533   0.780   5.818
 2723TIP3    H2 8115   4.670   0.837   5.850
 2724TIP3   OH2 8116   3.542   5.201   1.932
 2724TIP3    H1 8117   3.506   5.165   1.851
 2724TIP3    H2 8118   3.468   5.245   1.974
 2725TIP3   OH2 8119   5.572   2.073   4.397
 2725TIP3    H1 8120   5.530   2.153   4.426
 2725TIP3    H2 8121   5.626   2.099   4.322
 2726TIP3   OH2 8122   4.006   5.736   1.422
 2726TIP3    H1 8123   3.922   5.696   1.445
 2726TIP3    H2 8124   3.992   5.772   1.334
 2727TIP3   OH2 8125   4.829   5.005   5.375
 2727TIP3    H1 8126   4.901   4.978   5.318
 2727TIP3    H2 8127   4.750   4.990   5.323
 2728TIP3   OH2 8128   1.261   3.243   1.384
 2728TIP3    H1 8129   1.341   3.218   1.337
 2728TIP3    H2 8130   1.190   3.204   1.333
 2729TIP3   OH2 8131   4.217   2.846   3.917
 2729TIP3    H1 8132   4.123   2.829   3.922
 2729TIP3    H2 8133   4.224   2.936   3.884
 2730TIP3   OH2 8134   8.220   6.523   4.823
 2730TIP3    H1 8135   8.139   6.496   4.781
 2730TIP3    H2 8136   8.197   6.532   4.916
 2731TIP3   OH2 8137   3.646   6.871   6.487
 2731TIP3    H1 8138   3.735   6.878   6.454
 2731TIP3    H2 8139   3.656   6.867   6.582
 2732TIP3   OH2 8140   2.810   4.885   4.633
 2732TIP3    H1 8141   2.767   4.956   4.585
 2732TIP3    H2 8142   2.901   4.913   4.640
 2733TIP3   OH2 8143   4.419   1.690   2.992
 2733TIP3    H1 8144   4.512   1.676   3.009
 2733TIP3    H2 8145   4.377   1.608   3.018
 2734TIP3   OH2 8146   2.193   5.084   6.567
 2734TIP3    H1 8147   2.206   5.173   6.599
 2734TIP3    H2 8148   2.158   5.095   6.479
 2735TIP3   OH2 8149   1.838   7.807   2.506
 2735TIP3    H1 8150   1.864   7.884   2.557
 2735TIP3    H2 8151   1.795   7.843   2.429
 2736TIP3   OH2 8152   4.301   6.948   4.856
 2736TIP3    H1 8153   4.276   6.935   4.764
 2736TIP3    H2 8154   4.332   7.039   4.860
 2737TIP3   OH2 8155   4.992   4.869   6.136
 2737TIP3    H1 8156   5.062   4.806   6.154
 2737TIP3    H2 8157   4.926   4.817   6.091
 2738TIP3   OH2 8158   1.798   1.775   2.841
 2738TIP3    H1 8159   1.829   1.690   2.813
 2738TIP3    H2 8160   1.799   1.771   2.937
 2739TIP3   OH2 8161   6.442   2.413   5.416
 2739TIP3    H1 8162   6.537   2.416   5.403
 2739TIP3    H2 8163   6.413   2.338   5.363
 2740TIP3   OH2 8164   6.045   0.880   2.706
 2740TIP3    H1 8165   6.042   0.784   2.701
 2740TIP3    H2 8166   6.131   0.900   2.742
 2741TIP3   OH2 8167   8.095   6.939   6.737
 2741TIP3    H1 8168   8.119   7.010   6.678
 2741TIP3    H2 8169   8.055   6.983   6.812
 2742TIP3   OH2 8170   5.246   4.157   2.245
 2742TIP3    H1 8171   5.284   4.090   2.301
 2742TIP3    H2 8172   5.194   4.211   2.304
 2743TIP3   OH2 8173   4.406   6.672   1.307
 2743TIP3    H1 8174   4.357   6.754   1.297
 2743TIP3    H2 8175   4.463   6.669   1.230
 2744TIP3   OH2 8176   2.111   1.743   3.928
 2744TIP3    H1 8177   2.107   1.650   3.907
 2744TIP3    H2 8178   2.042   1.756   3.993
 2745TIP3   OH2 8179   7.303   7.162   2.400
 2745TIP3    H1 8180   7.215   7.129   2.421
 2745TIP3    H2 8181   7.324   7.121   2.316
 2746TIP3   OH2 8182   6.750   6.175   6.493
 2746TIP3    H1 8183   6.738   6.083   6.516
 2746TIP3    H2 8184   6.813   6.208   6.557
 2747TIP3   OH2 8185   7.002   1.676  -0.024
 2747TIP3    H1 8186   6.947   1.597  -0.019
 2747TIP3    H2 8187   7.077   1.656   0.031
 2748TIP3   OH2 8188   1.160   1.002   0.881
 2748TIP3    H1 8189   1.250   0.975   0.866
 2748TIP3    H2 8190   1.160   1.040   0.969
 2749TIP3   OH2 8191   2.262   2.902   0.073
 2749TIP3    H1 8192   2.241   2.957  -0.003
 2749TIP3    H2 8193   2.292   2.963   0.140
 2750TIP3   OH2 8194   4.058   7.285   0.249
 2750TIP3    H1 8195   4.141   7.296   0.295
 2750TIP3    H2 8196   4.052   7.359   0.189
 2751TIP3   OH2 8197   0.725   0.101   1.456
 2751TIP3    H1 8198   0.776   0.130   1.532
 2751TIP3    H2 8199   0.784   0.116   1.382
 2752TIP3   OH2 8200   5.965   0.388   1.469
 2752TIP3    H1 8201   6.005   0.475   1.469
 2752TIP3    H2 8202   6.038   0.327   1.483
 2753TIP3   OH2 8203   0.361   3.341   3.011
 2753TIP3    H1 8204   0.445   3.375   3.041
 2753TIP3    H2 8205   0.367   3.246   3.024
 2754TIP3   OH2 8206   4.983   7.526   6.457
 2754TIP3    H1 8207   4.946   7.525   6.369
 2754TIP3    H2 8208   5.027   7.441   6.465
 2755TIP3   OH2 8209   2.995   6.758   4.035
 2755TIP3    H1 8210   3.087   6.769   4.010
 2755TIP3    H2 8211   2.969   6.675   3.994
 2756TIP3   OH2 8212   2.517   3.237   5.662
 2756TIP3    H1 8213   2.434   3.268   5.626
 2756TIP3    H2 8214   2.494   3.194   5.744
 2757TIP3   OH2 8215   3.845   0.096   2.651
 2757TIP3    H1 8216   3.777   0.033   2.675
 2757TIP3    H2 8217   3.809   0.181   2.676
 2758TIP3   OH2 8218   0.566   5.020   1.623
 2758TIP3    H1 8219   0.640   5.021   1.683
 2758TIP3    H2 8220   0.490   5.007   1.679
 2759TIP3   OH2 8221   5.371   6.805   3.251
 2759TIP3    H1 8222   5.341   6.751   3.325
 2759TIP3    H2 8223   5.317   6.775   3.177
 2760TIP3   OH2 8224   5.336   2.952   1.629
 2760TIP3    H1 8225   5.415   2.952   1.575
 2760TIP3    H2 8226   5.327   3.043   1.658
 2761TIP3   OH2 8227   2.488   7.758   1.944
 2761TIP3    H1 8228   2.561   7.718   1.897
 2761TIP3    H2 8229   2.411   7.742   1.888
 2762TIP3   OH2 8230   3.048   4.666   5.660
 2762TIP3    H1 8231   3.135   4.655   5.699
 2762TIP3    H2 8232   2.991   4.686   5.734
 2763TIP3   OH2 8233   3.085   3.895   1.322
 2763TIP3    H1 8234   3.112   3.871   1.233
 2763TIP3    H2 8235   3.074   3.990   1.319
 2764TIP3   OH2 8236   1.620   4.963   2.236
 2764TIP3    H1 8237   1.540   4.999   2.200
 2764TIP3    H2 8238   1.673   4.941   2.160
 2765TIP3   OH2 8239   8.280   5.657   0.591
 2765TIP3    H1 8240   8.299   5.564   0.598
 2765TIP3    H2 8241   8.310   5.682   0.503
 2766TIP3   OH2 8242   3.205   3.790   1.535
 2766TIP3    H1 8243   3.153   3.809   1.456
 2766TIP3    H2 8244   3.213   3.875   1.579
 2767TIP3   OH2 8245   3.980   1.903   4.369
 2767TIP3    H1 8246   3.941   1.829   4.416
 2767TIP3    H2 8247   4.059   1.924   4.419
 2768TIP3   OH2 8248   1.427   0.715   4.044
 2768TIP3    H1 8249   1.508   0.667   4.028
 2768TIP3    H2 8250   1.406   0.698   4.136
 2769TIP3   OH2 8251   2.354   3.784   4.969
 2769TIP3    H1 8252   2.322   3.759   5.056
 2769TIP3    H2 8253   2.425   3.722   4.951
 2770TIP3   OH2 8254   3.945   5.341   1.556
 2770TIP3    H1 8255   4.035   5.363   1.530
 2770TIP3    H2 8256   3.917   5.414   1.610
 2771TIP3   OH2 8257   7.931   2.751   1.701
 2771TIP3    H1 8258   7.891   2.806   1.768
 2771TIP3    H2 8259   7.931   2.807   1.623
 2772TIP3   OH2 8260   1.632   6.572   3.265
 2772TIP3    H1 8261   1.562   6.636   3.258
 2772TIP3    H2 8262   1.688   6.589   3.190
 2773TIP3   OH2 8263   3.579   0.567   0.923
 2773TIP3    H1 8264   3.660   0.593   0.968
 2773TIP3    H2 8265   3.577   0.621   0.845
 2774TIP3   OH2 8266   1.763   5.235   4.658
 2774TIP3    H1 8267   1.733   5.325   4.646
 2774TIP3    H2 8268   1.857   5.242   4.669
 2775TIP3   OH2 8269   6.240   5.105   1.250
 2775TIP3    H1 8270   6.181   5.041   1.210
 2775TIP3    H2 8271   6.312   5.113   1.187
 2776TIP3   OH2 8272   0.864   6.456   5.933
 2776TIP3    H1 8273   0.819   6.478   5.852
 2776TIP3    H2 8274   0.826   6.373   5.961
 2777TIP3   OH2 8275   5.679   5.948   4.321
 2777TIP3    H1 8276   5.609   5.946   4.255
 2777TIP3    H2 8277   5.757   5.977   4.273
 2778TIP3   OH2 8278   1.446   5.674   3.002
 2778TIP3    H1 8279   1.534   5.661   2.967
 2778TIP3    H2 8280   1.459   5.727   3.081
 2779TIP3   OH2 8281   1.484   5.360   3.322
 2779TIP3    H1 8282   1.576   5.345   3.341
 2779TIP3    H2 8283   1.476   5.343   3.228
 2780TIP3   OH2 8284   7.086   0.597   0.877
 2780TIP3    H1 8285   7.139   0.525   0.843
 2780TIP3    H2 8286   7.139   0.633   0.948
 2781TIP3   OH2 8287   4.125   3.519   4.928
 2781TIP3    H1 8288   4.140   3.613   4.941
 2781TIP3    H2 8289   4.039   3.503   4.966
 2782TIP3   OH2 8290   4.025   0.445   4.239
 2782TIP3    H1 8291   4.029   0.538   4.262
 2782TIP3    H2 8292   3.949   0.412   4.289
 2783TIP3   OH2 8293   4.009   4.890   1.593
 2783TIP3    H1 8294   3.993   4.828   1.664
 2783TIP3    H2 8295   4.096   4.925   1.611
 2784TIP3   OH2 8296   1.496   7.820   2.398
 2784TIP3    H1 8297   1.525   7.886   2.335
 2784TIP3    H2 8298   1.546   7.840   2.477
 2785TIP3   OH2 8299   1.155   6.907   2.912
 2785TIP3    H1 8300   1.062   6.887   2.897
 2785TIP3    H2 8301   1.176   6.973   2.847
 2786TIP3   OH2 8302   3.691   0.390   4.676
 2786TIP3    H1 8303   3.784   0.381   4.699
 2786TIP3    H2 8304   3.646   0.398   4.760
 2787TIP3   OH2 8305   5.596   4.133   1.570
 2787TIP3    H1 8306   5.548   4.071   1.625
 2787TIP3    H2 8307   5.680   4.144   1.614
 2788TIP3   OH2 8308   5.885   3.041   6.256
 2788TIP3    H1 8309   5.878   3.126   6.298
 2788TIP3    H2 8310   5.893   3.060   6.163
 2789TIP3   OH2 8311   4.160   4.312   5.671
 2789TIP3    H1 8312   4.102   4.236   5.683
 2789TIP3    H2 8313   4.100   4.387   5.663
 2790TIP3   OH2 8314   2.111   0.611   1.817
 2790TIP3    H1 8315   2.082   0.672   1.749
 2790TIP3    H2 8316   2.169   0.663   1.873
 2791TIP3   OH2 8317   4.344   1.482   4.411
 2791TIP3    H1 8318   4.337   1.571   4.377
 2791TIP3    H2 8319   4.367   1.429   4.335
 2792TIP3   OH2 8320   2.006   0.845   2.359
 2792TIP3    H1 8321   2.013   0.850   2.454
 2792TIP3    H2 8322   1.969   0.758   2.343
 2793TIP3   OH2 8323   4.137   3.799   4.309
 2793TIP3    H1 8324   4.060   3.797   4.252
 2793TIP3    H2 8325   4.165   3.891   4.308
 2794TIP3   OH2 8326   6.351   0.510   5.781
 2794TIP3    H1 8327   6.316   0.592   5.815
 2794TIP3    H2 8328   6.297   0.491   5.704
 2795TIP3   OH2 8329   4.038   4.748   2.495
 2795TIP3    H1 8330   4.116   4.714   2.451
 2795TIP3    H2 8331   4.018   4.829   2.449
 2796TIP3   OH2 8332   4.047   6.191   0.967
 2796TIP3    H1 8333   4.000   6.200   1.049
 2796TIP3    H2 8334   3.997   6.126   0.917
 2797TIP3   OH2 8335   5.667   1.231   0.140
 2797TIP3    H1 8336   5.684   1.215   0.047
 2797TIP3    H2 8337   5.678   1.146   0.181
 2798TIP3   OH2 8338   4.914   2.183   0.430
 2798TIP3    H1 8339   4.863   2.235   0.492
 2798TIP3    H2 8340   4.911   2.234   0.349
 2799TIP3   OH2 8341   8.246   2.772   1.208
 2799TIP3    H1 8342   8.152   2.789   1.194
 2799TIP3    H2 8343   8.248   2.697   1.268
 2800TIP3   OH2 8344   4.832   1.360   3.142
 2800TIP3    H1 8345   4.786   1.330   3.222
 2800TIP3    H2 8346   4.774   1.426   3.105
 2801TIP3   OH2 8347   4.312   1.696   1.177
 2801TIP3    H1 8348   4.347   1.782   1.198
 2801TIP3    H2 8349   4.271   1.666   1.258
 2802TIP3   OH2 8350   2.182   2.529   3.135
 2802TIP3    H1 8351   2.139   2.530   3.049
 2802TIP3    H2 8352   2.113   2.502   3.196
 2803TIP3   OH2 8353   1.869   2.038   3.020
 2803TIP3    H1 8354   1.820   1.996   2.950
 2803TIP3    H2 8355   1.864   2.132   3.001
 2804TIP3   OH2 8356   1.239   3.641   4.825
 2804TIP3    H1 8357   1.221   3.639   4.730
 2804TIP3    H2 8358   1.199   3.560   4.858
 2805TIP3   OH2 8359   7.840   7.399   1.139
 2805TIP3    H1 8360   7.812   7.308   1.150
 2805TIP3    H2 8361   7.880   7.402   1.052
 2806TIP3   OH2 8362   7.198   2.661   5.553
 2806TIP3    H1 8363   7.198   2.622   5.641
 2806TIP3    H2 8364   7.150   2.599   5.499
 2807TIP3   OH2 8365   2.960   5.584   4.311
 2807TIP3    H1 8366   2.926   5.661   4.357
 2807TIP3    H2 8367   2.951   5.512   4.374
 2808TIP3   OH2 8368   0.677   2.525   5.517
 2808TIP3    H1 8369   0.686   2.535   5.423
 2808TIP3    H2 8370   0.628   2.444   5.529
 2809TIP3   OH2 8371   7.773   2.777   4.455
 2809TIP3    H1 8372   7.821   2.851   4.493
 2809TIP3    H2 8373   7.817   2.761   4.372
 2810TIP3   OH2 8374   5.933   2.676   5.844
 2810TIP3    H1 8375   6.020   2.646   5.818
 2810TIP3    H2 8376   5.885   2.684   5.762
 2811TIP3   OH2 8377   2.630   1.853   4.215
 2811TIP3    H1 8378   2.692   1.926   4.222
 2811TIP3    H2 8379   2.556   1.880   4.270
 2812TIP3   OH2 8380   6.569   3.654   3.067
 2812TIP3    H1 8381   6.499   3.706   3.027
 2812TIP3    H2 8382   6.533   3.627   3.152
 2813TIP3   OH2 8383   2.674   7.534   1.451
 2813TIP3    H1 8384   2.703   7.625   1.446
 2813TIP3    H2 8385   2.750   7.486   1.482
 2814TIP3   OH2 8386   6.994   6.736   6.476
 2814TIP3    H1 8387   6.965   6.693   6.396
 2814TIP3    H2 8388   6.970   6.828   6.464
 2815TIP3   OH2 8389   5.006   0.946   5.365
 2815TIP3    H1 8390   5.054   1.020   5.402
 2815TIP3    H2 8391   5.061   0.915   5.294
 2816TIP3   OH2 8392   6.836   4.488   6.583
 2816TIP3    H1 8393   6.837   4.485   6.678
 2816TIP3    H2 8394   6.909   4.546   6.560
 2817TIP3   OH2 8395   3.273   5.583   2.600
 2817TIP3    H1 8396   3.298   5.676   2.591
 2817TIP3    H2 8397   3.183   5.586   2.634
 2818TIP3   OH2 8398   2.763   4.673   6.581
 2818TIP3    H1 8399   2.813   4.646   6.657
 2818TIP3    H2 8400   2.829   4.697   6.516
 2819TIP3   OH2 8401   8.166   4.547   2.273
 2819TIP3    H1 8402   8.243   4.603   2.260
 2819TIP3    H2 8403   8.157   4.499   2.191
 2820TIP3   OH2 8404   4.715   4.132   1.546
 2820TIP3    H1 8405   4.797   4.098   1.512
 2820TIP3    H2 8406   4.738   4.169   1.631
 2821TIP3   OH2 8407   7.796   4.401   2.088
 2821TIP3    H1 8408   7.707   4.411   2.054
 2821TIP3    H2 8409   7.805   4.470   2.153
 2822TIP3   OH2 8410   7.334   0.741   0.375
 2822TIP3    H1 8411   7.422   0.762   0.407
 2822TIP3    H2 8412   7.283   0.820   0.391
 2823TIP3   OH2 8413   6.336   1.601   4.443
 2823TIP3    H1 8414   6.266   1.606   4.377
 2823TIP3    H2 8415   6.332   1.511   4.475
 2824TIP3   OH2 8416   4.730   4.776   1.108
 2824TIP3    H1 8417   4.777   4.712   1.055
 2824TIP3    H2 8418   4.645   4.785   1.066
 2825TIP3   OH2 8419   3.943   3.241   0.198
 2825TIP3    H1 8420   3.899   3.228   0.114
 2825TIP3    H2 8421   4.034   3.259   0.174
 2826TIP3   OH2 8422   2.326   3.099   5.838
 2826TIP3    H1 8423   2.302   3.009   5.860
 2826TIP3    H2 8424   2.334   3.143   5.922
 2827TIP3   OH2 8425   7.510   4.017   5.364
 2827TIP3    H1 8426   7.512   4.015   5.269
 2827TIP3    H2 8427   7.523   3.926   5.391
 2828TIP3   OH2 8428   0.352   0.484   2.895
 2828TIP3    H1 8429   0.350   0.401   2.941
 2828TIP3    H2 8430   0.263   0.494   2.859
 2829TIP3   OH2 8431   2.327   3.750   4.320
 2829TIP3    H1 8432   2.246   3.715   4.283
 2829TIP3    H2 8433   2.395   3.689   4.291
 2830TIP3   OH2 8434   2.312   3.664   3.814
 2830TIP3    H1 8435   2.335   3.750   3.850
 2830TIP3    H2 8436   2.354   3.601   3.873
 2831TIP3   OH2 8437   6.112   0.874   1.611
 2831TIP3    H1 8438   6.131   0.897   1.520
 2831TIP3    H2 8439   6.053   0.799   1.605
 2832TIP3   OH2 8440   1.984   4.766   5.039
 2832TIP3    H1 8441   1.925   4.714   4.983
 2832TIP3    H2 8442   2.019   4.703   5.102
 2833TIP3   OH2 8443   3.213   3.280   3.676
 2833TIP3    H1 8444   3.209   3.286   3.580
 2833TIP3    H2 8445   3.142   3.220   3.699
 2834TIP3   OH2 8446   4.511   4.350   2.200
 2834TIP3    H1 8447   4.439   4.413   2.187
 2834TIP3    H2 8448   4.588   4.405   2.212
 2835TIP3   OH2 8449   3.478   7.690   2.038
 2835TIP3    H1 8450   3.555   7.676   1.982
 2835TIP3    H2 8451   3.410   7.722   1.978
 2836TIP3   OH2 8452   2.955   1.008   4.239
 2836TIP3    H1 8453   2.902   1.080   4.204
 2836TIP3    H2 8454   2.961   1.025   4.333
 2837TIP3   OH2 8455   1.834   1.165   4.840
 2837TIP3    H1 8456   1.859   1.144   4.750
 2837TIP3    H2 8457   1.826   1.261   4.841
 2838TIP3   OH2 8458   6.147   4.957   0.439
 2838TIP3    H1 8459   6.231   4.991   0.469
 2838TIP3    H2 8460   6.100   4.934   0.520
 2839TIP3   OH2 8461   1.173   0.928   0.274
 2839TIP3    H1 8462   1.219   0.935   0.358
 2839TIP3    H2 8463   1.113   0.854   0.286
 2840TIP3   OH2 8464   6.572   7.188   4.486
 2840TIP3    H1 8465   6.616   7.139   4.555
 2840TIP3    H2 8466   6.613   7.158   4.405
 2841TIP3   OH2 8467   3.504   0.726   6.223
 2841TIP3    H1 8468   3.469   0.639   6.242
 2841TIP3    H2 8469   3.594   0.710   6.195
 2842TIP3   OH2 8470   7.872   5.023   5.146
 2842TIP3    H1 8471   7.878   4.927   5.140
 2842TIP3    H2 8472   7.786   5.039   5.185
 2843TIP3   OH2 8473   7.266   5.902   1.219
 2843TIP3    H1 8474   7.342   5.925   1.272
 2843TIP3    H2 8475   7.205   5.863   1.281
 2844TIP3   OH2 8476   6.069   2.202   6.520
 2844TIP3    H1 8477   6.004   2.155   6.573
 2844TIP3    H2 8478   6.076   2.151   6.440
 2845TIP3   OH2 8479   6.641   2.810   6.323
 2845TIP3    H1 8480   6.709   2.824   6.388
 2845TIP3    H2 8481   6.614   2.719   6.335
 2846TIP3   OH2 8482   4.858   7.671   5.149
 2846TIP3    H1 8483   4.890   7.754   5.184
 2846TIP3    H2 8484   4.852   7.686   5.055
 2847TIP3   OH2 8485   5.776   5.234   5.273
 2847TIP3    H1 8486   5.824   5.306   5.233
 2847TIP3    H2 8487   5.704   5.277   5.319
 2848TIP3   OH2 8488   2.793   2.033   1.721
 2848TIP3    H1 8489   2.725   2.096   1.745
 2848TIP3    H2 8490   2.785   1.963   1.785
 2849TIP3   OH2 8491   2.036   1.954   4.809
 2849TIP3    H1 8492   1.980   1.925   4.737
 2849TIP3    H2 8493   2.029   1.885   4.875
 2850TIP3   OH2 8494   1.180   4.298   1.519
 2850TIP3    H1 8495   1.216   4.384   1.542
 2850TIP3    H2 8496   1.106   4.317   1.460
 2851TIP3   OH2 8497   5.619   4.162   2.842
 2851TIP3    H1 8498   5.694   4.160   2.900
 2851TIP3    H2 8499   5.549   4.202   2.894
 2852TIP3   OH2 8500   7.563   0.791   4.280
 2852TIP3    H1 8501   7.501   0.723   4.255
 2852TIP3    H2 8502   7.565   0.851   4.205
 2853TIP3   OH2 8503   1.803   2.527   4.038
 2853TIP3    H1 8504   1.894   2.499   4.033
 2853TIP3    H2 8505   1.807   2.619   4.066
 2854TIP3   OH2 8506   7.709   1.651   3.443
 2854TIP3    H1 8507   7.681   1.692   3.361
 2854TIP3    H2 8508   7.804   1.650   3.438
 2855TIP3   OH2 8509   1.755   2.365   0.135
 2855TIP3    H1 8510   1.718   2.371   0.223
 2855TIP3    H2 8511   1.818   2.293   0.140
 2856TIP3   OH2 8512   2.590   0.468   3.426
 2856TIP3    H1 8513   2.610   0.409   3.498
 2856TIP3    H2 8514   2.669   0.522   3.417
 2857TIP3   OH2 8515   2.662   6.872   2.033
 2857TIP3    H1 8516   2.586   6.854   2.087
 2857TIP3    H2 8517   2.686   6.962   2.054
 2858TIP3   OH2 8518   4.835   0.648   5.050
 2858TIP3    H1 8519   4.769   0.579   5.061
 2858TIP3    H2 8520   4.919   0.602   5.055
 2859TIP3   OH2 8521   3.388   5.033   6.170
 2859TIP3    H1 8522   3.299   5.002   6.188
 2859TIP3    H2 8523   3.442   4.954   6.171
 2860TIP3   OH2 8524   1.904   3.276   6.460
 2860TIP3    H1 8525   1.999   3.291   6.461
 2860TIP3    H2 8526   1.883   3.255   6.551
 2861TIP3   OH2 8527   3.604   1.776   2.965
 2861TIP3    H1 8528   3.629   1.744   2.878
 2861TIP3    H2 8529   3.672   1.742   3.023
 2862TIP3   OH2 8530   2.793   5.737   4.728
 2862TIP3    H1 8531   2.841   5.747   4.645
 2862TIP3    H2 8532   2.736   5.813   4.733
 2863TIP3   OH2 8533   0.319   6.974   4.752
 2863TIP3    H1 8534   0.335   6.997   4.661
 2863TIP3    H2 8535   0.328   7.056   4.800
 2864TIP3   OH2 8536   5.140   5.966   2.117
 2864TIP3    H1 8537   5.215   5.994   2.170
 2864TIP3    H2 8538   5.141   5.871   2.124
 2865TIP3   OH2 8539   7.702   3.722   1.682
 2865TIP3    H1 8540   7.777   3.684   1.729
 2865TIP3    H2 8541   7.664   3.784   1.745
 2866TIP3   OH2 8542   4.807   5.030   1.046
 2866TIP3    H1 8543   4.718   5.058   1.026
 2866TIP3    H2 8544   4.801   4.934   1.051
 2867TIP3   OH2 8545   7.388   4.289   3.999
 2867TIP3    H1 8546   7.332   4.213   4.014
 2867TIP3    H2 8547   7.423   4.311   4.086
 2868TIP3   OH2 8548   1.530   0.394   4.024
 2868TIP3    H1 8549   1.483   0.390   3.941
 2868TIP3    H2 8550   1.466   0.366   4.089
 2869TIP3   OH2 8551   4.400   5.338   2.082
 2869TIP3    H1 8552   4.493   5.342   2.060
 2869TIP3    H2 8553   4.384   5.418   2.132
 2870TIP3   OH2 8554   3.670   2.011   1.801
 2870TIP3    H1 8555   3.634   2.099   1.809
 2870TIP3    H2 8556   3.663   1.990   1.708
 2871TIP3   OH2 8557   1.534   4.790   0.807
 2871TIP3    H1 8558   1.524   4.767   0.715
 2871TIP3    H2 8559   1.617   4.837   0.811
 2872TIP3   OH2 8560   7.822   1.305   1.113
 2872TIP3    H1 8561   7.734   1.280   1.138
 2872TIP3    H2 8562   7.879   1.247   1.164
 2873TIP3   OH2 8563   2.211   0.877   0.902
 2873TIP3    H1 8564   2.141   0.815   0.885
 2873TIP3    H2 8565   2.171   0.963   0.888
 2874TIP3   OH2 8566   3.160   6.533   3.785
 2874TIP3    H1 8567   3.068   6.543   3.810
 2874TIP3    H2 8568   3.209   6.576   3.855
 2875TIP3   OH2 8569   6.310   5.380   1.996
 2875TIP3    H1 8570   6.296   5.457   1.940
 2875TIP3    H2 8571   6.288   5.410   2.084
 2876TIP3   OH2 8572   7.473   7.636   5.172
 2876TIP3    H1 8573   7.403   7.667   5.229
 2876TIP3    H2 8574   7.437   7.644   5.084
 2877TIP3   OH2 8575   6.096   3.083   4.169
 2877TIP3    H1 8576   6.023   3.040   4.213
 2877TIP3    H2 8577   6.171   3.026   4.183
 2878TIP3   OH2 8578   5.578   7.533   5.679
 2878TIP3    H1 8579   5.529   7.452   5.694
 2878TIP3    H2 8580   5.652   7.527   5.740
 2879TIP3   OH2 8581   3.449   3.753   2.969
 2879TIP3    H1 8582   3.453   3.703   3.051
 2879TIP3    H2 8583   3.401   3.832   2.992
 2880TIP3   OH2 8584   3.824   3.485   6.323
 2880TIP3    H1 8585   3.733   3.466   6.343
 2880TIP3    H2 8586   3.824   3.519   6.234
 2881TIP3   OH2 8587   5.581   3.620   3.814
 2881TIP3    H1 8588   5.674   3.642   3.815
 2881TIP3    H2 8589   5.558   3.618   3.721
 2882TIP3   OH2 8590   0.880   6.050   3.216
 2882TIP3    H1 8591   0.852   6.040   3.307
 2882TIP3    H2 8592   0.925   6.135   3.214
 2883TIP3   OH2 8593   4.384   6.763   4.478
 2883TIP3    H1 8594   4.461   6.783   4.530
 2883TIP3    H2 8595   4.321   6.831   4.502
 2884TIP3   OH2 8596   5.007   5.219   2.074
 2884TIP3    H1 8597   5.065   5.143   2.072
 2884TIP3    H2 8598   4.944   5.202   2.003
 2885TIP3   OH2 8599   2.340   3.680   3.182
 2885TIP3    H1 8600   2.370   3.683   3.273
 2885TIP3    H2 8601   2.381   3.756   3.140
 2886TIP3   OH2 8602   4.116   4.640   1.398
 2886TIP3    H1 8603   4.025   4.610   1.390
 2886TIP3    H2 8604   4.120   4.677   1.486
 2887TIP3   OH2 8605   5.748   5.829   6.474
 2887TIP3    H1 8606   5.749   5.735   6.489
 2887TIP3    H2 8607   5.717   5.866   6.557
 2888TIP3   OH2 8608   2.067   1.149   1.785
 2888TIP3    H1 8609   2.065   1.201   1.705
 2888TIP3    H2 8610   2.035   1.063   1.759
 2889TIP3   OH2 8611   0.919   1.517   0.725
 2889TIP3    H1 8612   0.838   1.510   0.674
 2889TIP3    H2 8613   0.937   1.611   0.729
 2890TIP3   OH2 8614   4.179   1.036   4.227
 2890TIP3    H1 8615   4.097   1.034   4.178
 2890TIP3    H2 8616   4.153   1.033   4.319
 2891TIP3   OH2 8617   7.124   6.161   0.041
 2891TIP3    H1 8618   7.177   6.105   0.098
 2891TIP3    H2 8619   7.181   6.235   0.020
 2892TIP3   OH2 8620   3.307   2.329   1.391
 2892TIP3    H1 8621   3.316   2.396   1.323
 2892TIP3    H2 8622   3.213   2.309   1.392
 2893TIP3   OH2 8623   2.275   3.501   4.091
 2893TIP3    H1 8624   2.247   3.593   4.086
 2893TIP3    H2 8625   2.194   3.451   4.094
 2894TIP3   OH2 8626   5.029   3.494   0.879
 2894TIP3    H1 8627   5.111   3.469   0.835
 2894TIP3    H2 8628   5.040   3.587   0.898
 2895TIP3   OH2 8629   2.489   0.926   4.831
 2895TIP3    H1 8630   2.503   0.833   4.816
 2895TIP3    H2 8631   2.577   0.964   4.831
 2896TIP3   OH2 8632   7.378   5.258   5.111
 2896TIP3    H1 8633   7.288   5.235   5.132
 2896TIP3    H2 8634   7.371   5.308   5.030
 2897TIP3   OH2 8635   6.857   7.681   6.343
 2897TIP3    H1 8636   6.937   7.727   6.319
 2897TIP3    H2 8637   6.884   7.589   6.352
 2898TIP3   OH2 8638   7.807   1.623   1.957
 2898TIP3    H1 8639   7.748   1.588   2.024
 2898TIP3    H2 8640   7.888   1.572   1.967
 2899TIP3   OH2 8641   7.584   7.851   2.934
 2899TIP3    H1 8642   7.612   7.773   2.981
 2899TIP3    H2 8643   7.664   7.905   2.927
 2900TIP3   OH2 8644   2.470   6.320   5.431
 2900TIP3    H1 8645   2.429   6.336   5.346
 2900TIP3    H2 8646   2.520   6.239   5.418
 2901TIP3   OH2 8647   5.237   0.892   0.803
 2901TIP3    H1 8648   5.145   0.916   0.794
 2901TIP3    H2 8649   5.261   0.856   0.717
 2902TIP3   OH2 8650   7.402   2.593   3.762
 2902TIP3    H1 8651   7.443   2.577   3.677
 2902TIP3    H2 8652   7.408   2.688   3.774
 2903TIP3   OH2 8653   4.531   5.758   6.671
 2903TIP3    H1 8654   4.490   5.672   6.663
 2903TIP3    H2 8655   4.513   5.784   6.762
 2904TIP3   OH2 8656   1.756   7.065   2.802
 2904TIP3    H1 8657   1.840   7.099   2.834
 2904TIP3    H2 8658   1.759   6.971   2.823
 2905TIP3   OH2 8659   1.127   1.966   4.530
 2905TIP3    H1 8660   1.041   1.924   4.521
 2905TIP3    H2 8661   1.125   2.006   4.617
 2906TIP3   OH2 8662   5.302   5.676   1.979
 2906TIP3    H1 8663   5.325   5.740   1.912
 2906TIP3    H2 8664   5.369   5.688   2.047
 2907TIP3   OH2 8665   1.153   2.892   0.281
 2907TIP3    H1 8666   1.099   2.956   0.235
 2907TIP3    H2 8667   1.242   2.907   0.249
 2908TIP3   OH2 8668   3.205   4.428   1.951
 2908TIP3    H1 8669   3.148   4.453   2.024
 2908TIP3    H2 8670   3.238   4.341   1.974
 2909TIP3   OH2 8671   2.429   1.089   5.414
 2909TIP3    H1 8672   2.508   1.140   5.393
 2909TIP3    H2 8673   2.459   0.998   5.417
 2910TIP3   OH2 8674   3.981   5.997   3.896
 2910TIP3    H1 8675   4.068   5.959   3.908
 2910TIP3    H2 8676   3.993   6.090   3.915
 2911TIP3   OH2 8677   4.224   2.826   5.028
 2911TIP3    H1 8678   4.138   2.806   5.067
 2911TIP3    H2 8679   4.212   2.810   4.935
 2912TIP3   OH2 8680   7.923   4.907   4.001
 2912TIP3    H1 8681   7.899   4.838   3.939
 2912TIP3    H2 8682   8.006   4.877   4.038
 2913TIP3   OH2 8683   0.401   7.775   2.943
 2913TIP3    H1 8684   0.442   7.860   2.929
 2913TIP3    H2 8685   0.329   7.772   2.880
 2914TIP3   OH2 8686   5.654   3.872   2.537
 2914TIP3    H1 8687   5.600   3.949   2.555
 2914TIP3    H2 8688   5.735   3.888   2.585
 2915TIP3   OH2 8689   2.438   5.738   1.709
 2915TIP3    H1 8690   2.351   5.698   1.711
 2915TIP3    H2 8691   2.431   5.814   1.767
 2916TIP3   OH2 8692   0.352   5.706   1.992
 2916TIP3    H1 8693   0.442   5.680   2.012
 2916TIP3    H2 8694   0.358   5.797   1.965
 2917TIP3   OH2 8695   3.714   5.373   4.870
 2917TIP3    H1 8696   3.784   5.395   4.809
 2917TIP3    H2 8697   3.642   5.344   4.814
 2918TIP3   OH2 8698   3.730   6.179   4.002
 2918TIP3    H1 8699   3.685   6.165   4.085
 2918TIP3    H2 8700   3.662   6.172   3.935
 2919TIP3   OH2 8701   2.171   1.295   6.374
 2919TIP3    H1 8702   2.210   1.289   6.461
 2919TIP3    H2 8703   2.078   1.279   6.388
 2920TIP3   OH2 8704   7.979   4.840   1.691
 2920TIP3    H1 8705   7.892   4.871   1.715
 2920TIP3    H2 8706   7.962   4.771   1.626
 2921TIP3   OH2 8707   4.996   2.739   3.428
 2921TIP3    H1 8708   5.059   2.672   3.404
 2921TIP3    H2 8709   4.987   2.731   3.523
 2922TIP3   OH2 8710   2.030   3.252   5.090
 2922TIP3    H1 8711   2.037   3.203   5.172
 2922TIP3    H2 8712   2.061   3.191   5.023
 2923TIP3   OH2 8713   2.527   6.018   6.171
 2923TIP3    H1 8714   2.607   6.069   6.182
 2923TIP3    H2 8715   2.513   6.015   6.076
 2924TIP3   OH2 8716   2.985   6.848   1.010
 2924TIP3    H1 8717   2.982   6.843   1.105
 2924TIP3    H2 8718   2.900   6.815   0.982
 2925TIP3   OH2 8719   1.154   5.731   6.771
 2925TIP3    H1 8720   1.149   5.661   6.836
 2925TIP3    H2 8721   1.194   5.691   6.694
 2926TIP3   OH2 8722   2.698   0.935   3.318
 2926TIP3    H1 8723   2.675   0.866   3.380
 2926TIP3    H2 8724   2.707   1.014   3.372
 2927TIP3   OH2 8725   6.006   1.407   3.108
 2927TIP3    H1 8726   6.059   1.477   3.071
 2927TIP3    H2 8727   6.033   1.329   3.059
 2928TIP3   OH2 8728   2.626   5.258   5.565
 2928TIP3    H1 8729   2.667   5.173   5.554
 2928TIP3    H2 8730   2.533   5.243   5.548
 2929TIP3   OH2 8731   1.088   2.164   2.619
 2929TIP3    H1 8732   1.139   2.083   2.615
 2929TIP3    H2 8733   1.070   2.177   2.712
 2930TIP3   OH2 8734   5.617   5.642   4.741
 2930TIP3    H1 8735   5.708   5.669   4.729
 2930TIP3    H2 8736   5.567   5.723   4.731
 2931TIP3   OH2 8737   1.778   3.635   0.326
 2931TIP3    H1 8738   1.703   3.695   0.318
 2931TIP3    H2 8739   1.848   3.677   0.276
 2932TIP3   OH2 8740   0.261   1.933   1.243
 2932TIP3    H1 8741   0.313   2.002   1.285
 2932TIP3    H2 8742   0.253   1.961   1.152
 2933TIP3   OH2 8743   6.518   4.837   0.019
 2933TIP3    H1 8744   6.577   4.903  -0.017
 2933TIP3    H2 8745   6.432   4.862  -0.014
 2934TIP3   OH2 8746  -0.004   4.960   2.201
 2934TIP3    H1 8747   0.001   5.026   2.270
 2934TIP3    H2 8748   0.076   4.908   2.211
 2935TIP3   OH2 8749   1.142   7.024   4.049
 2935TIP3    H1 8750   1.195   6.964   4.100
 2935TIP3    H2 8751   1.170   7.111   4.077
 2936TIP3   OH2 8752   3.808   6.150   5.550
 2936TIP3    H1 8753   3.841   6.206   5.479
 2936TIP3    H2 8754   3.781   6.069   5.506
 2937TIP3   OH2 8755   2.579   5.773   6.312
 2937TIP3    H1 8756   2.550   5.751   6.223
 2937TIP3    H2 8757   2.499   5.801   6.357
 2938TIP3   OH2 8758   1.438   0.560   3.646
 2938TIP3    H1 8759   1.431   0.568   3.741
 2938TIP3    H2 8760   1.509   0.621   3.622
 2939TIP3   OH2 8761   0.005   4.450   5.161
 2939TIP3    H1 8762   0.088   4.419   5.125
 2939TIP3    H2 8763   0.018   4.451   5.255
 2940TIP3   OH2 8764   0.919   0.691   6.248
 2940TIP3    H1 8765   0.963   0.775   6.232
 2940TIP3    H2 8766   0.831   0.704   6.213
 2941TIP3   OH2 8767   1.989   5.997   2.687
 2941TIP3    H1 8768   1.931   6.030   2.755
 2941TIP3    H2 8769   2.044   6.071   2.663
 2942TIP3   OH2 8770   0.509   4.008   2.211
 2942TIP3    H1 8771   0.450   3.985   2.284
 2942TIP3    H2 8772   0.494   4.102   2.198
 2943TIP3   OH2 8773   6.829   5.771   1.962
 2943TIP3    H1 8774   6.910   5.737   1.924
 2943TIP3    H2 8775   6.854   5.857   1.997
 2944TIP3   OH2 8776   3.525   6.463   2.640
 2944TIP3    H1 8777   3.430   6.464   2.626
 2944TIP3    H2 8778   3.556   6.543   2.598
 2945TIP3   OH2 8779   4.952   2.500   1.285
 2945TIP3    H1 8780   4.988   2.476   1.200
 2945TIP3    H2 8781   4.859   2.479   1.278
 2946TIP3   OH2 8782   1.336   3.470   5.487
 2946TIP3    H1 8783   1.340   3.394   5.429
 2946TIP3    H2 8784   1.248   3.467   5.525
 2947TIP3   OH2 8785   1.827   3.670   3.525
 2947TIP3    H1 8786   1.870   3.755   3.538
 2947TIP3    H2 8787   1.876   3.609   3.581
 2948TIP3   OH2 8788   3.823   1.988   1.201
 2948TIP3    H1 8789   3.847   1.903   1.238
 2948TIP3    H2 8790   3.795   2.041   1.276
 2949TIP3   OH2 8791   4.016   5.658   4.589
 2949TIP3    H1 8792   4.072   5.732   4.566
 2949TIP3    H2 8793   4.001   5.667   4.683
 2950TIP3   OH2 8794   2.468   5.366   3.398
 2950TIP3    H1 8795   2.398   5.374   3.333
 2950TIP3    H2 8796   2.424   5.327   3.474
 2951TIP3   OH2 8797   6.045   5.342   0.446
 2951TIP3    H1 8798   6.106   5.341   0.373
 2951TIP3    H2 8799   5.980   5.274   0.425
 2952TIP3   OH2 8800   7.848   3.683   0.351
 2952TIP3    H1 8801   7.915   3.699   0.284
 2952TIP3    H2 8802   7.877   3.731   0.428
 2953TIP3   OH2 8803   2.535   7.635   0.914
 2953TIP3    H1 8804   2.551   7.655   1.006
 2953TIP3    H2 8805   2.472   7.701   0.886
 2954TIP3   OH2 8806   4.218   1.739   3.890
 2954TIP3    H1 8807   4.310   1.763   3.873
 2954TIP3    H2 8808   4.175   1.822   3.911
 2955TIP3   OH2 8809   4.787   0.388   1.509
 2955TIP3    H1 8810   4.875   0.352   1.525
 2955TIP3    H2 8811   4.793   0.480   1.535
 2956TIP3   OH2 8812   7.013   2.913   1.969
 2956TIP3    H1 8813   6.928   2.884   2.003
 2956TIP3    H2 8814   7.063   2.938   2.047
 2957TIP3   OH2 8815   2.873   7.237   6.699
 2957TIP3    H1 8816   2.933   7.306   6.671
 2957TIP3    H2 8817   2.899   7.160   6.648
 2958TIP3   OH2 8818   0.640   2.881   2.008
 2958TIP3    H1 8819   0.651   2.800   1.959
 2958TIP3    H2 8820   0.545   2.890   2.018
 2959TIP3   OH2 8821   2.123   7.736   3.106
 2959TIP3    H1 8822   2.109   7.699   3.019
 2959TIP3    H2 8823   2.080   7.822   3.103
 2960TIP3   OH2 8824   4.422   3.780   0.769
 2960TIP3    H1 8825   4.475   3.733   0.834
 2960TIP3    H2 8826   4.358   3.828   0.821
 2961TIP3   OH2 8827   3.542   5.200   3.553
 2961TIP3    H1 8828   3.533   5.155   3.637
 2961TIP3    H2 8829   3.471   5.264   3.552
 2962TIP3   OH2 8830   8.097   1.851   3.542
 2962TIP3    H1 8831   8.189   1.859   3.570
 2962TIP3    H2 8832   8.080   1.932   3.494
 2963TIP3   OH2 8833   4.094   7.325   3.766
 2963TIP3    H1 8834   4.023   7.389   3.757
 2963TIP3    H2 8835   4.083   7.266   3.692
 2964TIP3   OH2 8836   5.854   6.765   5.596
 2964TIP3    H1 8837   5.769   6.796   5.564
 2964TIP3    H2 8838   5.897   6.731   5.518
 2965TIP3   OH2 8839   5.808   6.022   0.255
 2965TIP3    H1 8840   5.770   5.975   0.182
 2965TIP3    H2 8841   5.822   5.956   0.322
 2966TIP3   OH2 8842   0.262   0.636   4.988
 2966TIP3    H1 8843   0.266   0.661   5.081
 2966TIP3    H2 8844   0.351   0.653   4.955
 2967TIP3   OH2 8845   0.418   6.658   3.568
 2967TIP3    H1 8846   0.339   6.651   3.513
 2967TIP3    H2 8847   0.445   6.567   3.581
 2968TIP3   OH2 8848   1.872   4.623   1.550
 2968TIP3    H1 8849   1.793   4.572   1.568
 2968TIP3    H2 8850   1.931   4.602   1.622
 2969TIP3   OH2 8851   3.517   7.687   6.350
 2969TIP3    H1 8852   3.578   7.678   6.276
 2969TIP3    H2 8853   3.539   7.615   6.408
 2970TIP3   OH2 8854   2.591   7.396   4.340
 2970TIP3    H1 8855   2.644   7.474   4.352
 2970TIP3    H2 8856   2.539   7.390   4.421
 2971TIP3   OH2 8857   3.683   1.080   1.223
 2971TIP3    H1 8858   3.745   1.023   1.177
 2971TIP3    H2 8859   3.601   1.031   1.225
 2972TIP3   OH2 8860   7.262   2.659   3.347
 2972TIP3    H1 8861   7.205   2.661   3.424
 2972TIP3    H2 8862   7.346   2.626   3.381
 2973TIP3   OH2 8863   5.993   6.888   0.203
 2973TIP3    H1 8864   6.068   6.945   0.189
 2973TIP3    H2 8865   5.945   6.889   0.120
 2974TIP3   OH2 8866   1.257   4.421   5.367
 2974TIP3    H1 8867   1.176   4.472   5.371
 2974TIP3    H2 8868   1.249   4.357   5.437
 2975TIP3   OH2 8869   3.324   0.756   1.699
 2975TIP3    H1 8870   3.327   0.692   1.627
 2975TIP3    H2 8871   3.375   0.716   1.769
 2976TIP3   OH2 8872   4.005   5.889   5.603
 2976TIP3    H1 8873   3.955   5.883   5.521
 2976TIP3    H2 8874   4.064   5.964   5.590
 2977TIP3   OH2 8875   6.292   6.037   3.298
 2977TIP3    H1 8876   6.252   6.027   3.212
 2977TIP3    H2 8877   6.218   6.044   3.358
 2978TIP3   OH2 8878   8.147   0.991   3.714
 2978TIP3    H1 8879   8.167   1.042   3.792
 2978TIP3    H2 8880   8.164   1.050   3.641
 2979TIP3   OH2 8881   6.562   5.427   3.468
 2979TIP3    H1 8882   6.499   5.394   3.532
 2979TIP3    H2 8883   6.624   5.479   3.520
 2980TIP3   OH2 8884   7.084   2.420   4.910
 2980TIP3    H1 8885   7.081   2.363   4.833
 2980TIP3    H2 8886   7.139   2.494   4.883
 2981TIP3   OH2 8887   0.975   0.446   6.085
 2981TIP3    H1 8888   0.909   0.496   6.037
 2981TIP3    H2 8889   0.935   0.429   6.170
 2982TIP3   OH2 8890   5.918   1.992   3.475
 2982TIP3    H1 8891   5.976   1.933   3.427
 2982TIP3    H2 8892   5.842   2.004   3.417
 2983TIP3   OH2 8893   5.977   2.291   3.484
 2983TIP3    H1 8894   6.059   2.241   3.487
 2983TIP3    H2 8895   6.004   2.382   3.488
 2984TIP3   OH2 8896   7.925   5.184   2.760
 2984TIP3    H1 8897   7.977   5.215   2.834
 2984TIP3    H2 8898   7.862   5.123   2.799
 2985TIP3   OH2 8899   0.050   3.662   4.961
 2985TIP3    H1 8900   0.086   3.733   4.907
 2985TIP3    H2 8901  -0.007   3.614   4.902
 2986TIP3   OH2 8902   7.855   4.814   6.098
 2986TIP3    H1 8903   7.876   4.907   6.106
 2986TIP3    H2 8904   7.760   4.809   6.113
 2987TIP3   OH2 8905   2.282   2.717   5.103
 2987TIP3    H1 8906   2.376   2.704   5.110
 2987TIP3    H2 8907   2.251   2.713   5.194
 2988TIP3   OH2 8908   6.889   5.273   1.066
 2988TIP3    H1 8909   6.877   5.364   1.093
 2988TIP3    H2 8910   6.828   5.223   1.120
 2989TIP3   OH2 8911   5.333   7.272   2.061
 2989TIP3    H1 8912   5.280   7.351   2.075
 2989TIP3    H2 8913   5.299   7.209   2.124
 2990TIP3   OH2 8914   5.233   2.428   1.743
 2990TIP3    H1 8915   5.269   2.513   1.768
 2990TIP3    H2 8916   5.161   2.450   1.683
 2991TIP3   OH2 8917   6.441   7.313   1.712
 2991TIP3    H1 8918   6.515   7.348   1.761
 2991TIP3    H2 8919   6.439   7.365   1.631
 2992TIP3   OH2 8920   3.248   4.019   0.787
 2992TIP3    H1 8921   3.164   4.050   0.820
 2992TIP3    H2 8922   3.230   3.930   0.756
 2993TIP3   OH2 8923   5.939   5.284   6.264
 2993TIP3    H1 8924   6.030   5.283   6.294
 2993TIP3    H2 8925   5.942   5.323   6.176
 2994TIP3   OH2 8926   1.455   1.671   0.317
 2994TIP3    H1 8927   1.371   1.692   0.357
 2994TIP3    H2 8928   1.433   1.634   0.231
 2995TIP3   OH2 8929   8.311   0.816   2.924
 2995TIP3    H1 8930   8.248   0.746   2.903
 2995TIP3    H2 8931   8.308   0.874   2.848
 2996TIP3   OH2 8932   4.057   6.600   6.148
 2996TIP3    H1 8933   4.054   6.505   6.148
 2996TIP3    H2 8934   3.988   6.627   6.209
 2997TIP3   OH2 8935   1.255   7.141   5.228
 2997TIP3    H1 8936   1.236   7.064   5.174
 2997TIP3    H2 8937   1.350   7.142   5.236
 2998TIP3   OH2 8938   2.362   1.391   2.516
 2998TIP3    H1 8939   2.441   1.404   2.463
 2998TIP3    H2 8940   2.341   1.299   2.506
 2999TIP3   OH2 8941   8.128   5.865   4.180
 2999TIP3    H1 8942   8.094   5.777   4.197
 2999TIP3    H2 8943   8.182   5.886   4.256
 3000TIP3   OH2 8944   6.466   5.919   6.663
 3000TIP3    H1 8945   6.395   5.865   6.630
 3000TIP3    H2 8946   6.535   5.912   6.597
 3001TIP3   OH2 8947   0.845   2.532   4.831
 3001TIP3    H1 8948   0.926   2.511   4.785
 3001TIP3    H2 8949   0.872   2.550   4.921
 3002TIP3   OH2 8950   1.713   5.221   2.056
 3002TIP3    H1 8951   1.655   5.164   2.006
 3002TIP3    H2 8952   1.655   5.290   2.090
 3003TIP3   OH2 8953   2.134   5.491   2.215
 3003TIP3    H1 8954   2.080   5.412   2.220
 3003TIP3    H2 8955   2.223   5.459   2.203
 3004TIP3   OH2 8956   5.185   5.427   6.552
 3004TIP3    H1 8957   5.169   5.428   6.646
 3004TIP3    H2 8958   5.239   5.349   6.538
 3005TIP3   OH2 8959   1.339   1.631   1.041
 3005TIP3    H1 8960   1.416   1.662   1.090
 3005TIP3    H2 8961   1.290   1.711   1.021
 3006TIP3   OH2 8962   5.229   5.795   4.312
 3006TIP3    H1 8963   5.293   5.855   4.275
 3006TIP3    H2 8964   5.217   5.728   4.244
 3007TIP3   OH2 8965   8.134   0.438   0.550
 3007TIP3    H1 8966   8.145   0.393   0.467
 3007TIP3    H2 8967   8.171   0.525   0.535
 3008TIP3   OH2 8968   2.007   5.071   2.860
 3008TIP3    H1 8969   2.019   5.162   2.888
 3008TIP3    H2 8970   2.070   5.021   2.913
 3009TIP3   OH2 8971   7.725   1.546   0.556
 3009TIP3    H1 8972   7.769   1.631   0.554
 3009TIP3    H2 8973   7.638   1.564   0.521
 3010TIP3   OH2 8974   0.083   3.417   6.559
 3010TIP3    H1 8975   0.007   3.396   6.614
 3010TIP3    H2 8976   0.048   3.421   6.470
 3011TIP3   OH2 8977   6.374   7.804   4.286
 3011TIP3    H1 8978   6.375   7.716   4.323
 3011TIP3    H2 8979   6.314   7.798   4.212
 3012TIP3   OH2 8980   4.167   5.868   6.237
 3012TIP3    H1 8981   4.080   5.842   6.207
 3012TIP3    H2 8982   4.222   5.864   6.159
 3013TIP3   OH2 8983   0.197   3.887   1.964
 3013TIP3    H1 8984   0.167   3.906   1.875
 3013TIP3    H2 8985   0.271   3.947   1.977
 3014TIP3   OH2 8986   5.691   7.600   3.884
 3014TIP3    H1 8987   5.710   7.679   3.833
 3014TIP3    H2 8988   5.738   7.530   3.839
 3015TIP3   OH2 8989   5.460   1.796   3.372
 3015TIP3    H1 8990   5.441   1.835   3.286
 3015TIP3    H2 8991   5.514   1.862   3.416
 3016TIP3   OH2 8992   4.144   1.220   5.003
 3016TIP3    H1 8993   4.164   1.198   5.094
 3016TIP3    H2 8994   4.229   1.218   4.959
 3017TIP3   OH2 8995   1.622   5.027   4.078
 3017TIP3    H1 8996   1.672   5.098   4.038
 3017TIP3    H2 8997   1.570   4.991   4.005
 3018TIP3   OH2 8998   5.557   3.124   3.243
 3018TIP3    H1 8999   5.646   3.131   3.278
 3018TIP3    H2 9000   5.570   3.090   3.154
 3019TIP3   OH2 9001   2.973   0.791   6.125
 3019TIP3    H1 9002   2.995   0.838   6.044
 3019TIP3    H2 9003   3.029   0.831   6.192
 3020TIP3   OH2 9004   5.111   6.737   6.362
 3020TIP3    H1 9005   5.065   6.791   6.427
 3020TIP3    H2 9006   5.204   6.755   6.377
 3021TIP3   OH2 9007   6.191   7.461   5.064
 3021TIP3    H1 9008   6.111   7.475   5.115
 3021TIP3    H2 9009   6.236   7.390   5.109
 3022TIP3   OH2 9010   6.577   6.995   2.568
 3022TIP3    H1 9011   6.610   7.083   2.587
 3022TIP3    H2 9012   6.618   6.972   2.485
 3023TIP3   OH2 9013   7.499   6.274   0.610
 3023TIP3    H1 9014   7.579   6.224   0.628
 3023TIP3    H2 9015   7.470   6.243   0.524
 3024TIP3   OH2 9016   7.884   0.415   4.351
 3024TIP3    H1 9017   7.954   0.394   4.289
 3024TIP3    H2 9018   7.911   0.499   4.390
 3025TIP3   OH2 9019   2.472   4.660   3.516
 3025TIP3    H1 9020   2.403   4.693   3.572
 3025TIP3    H2 9021   2.521   4.738   3.489
 3026TIP3   OH2 9022   8.303   5.354   0.540
 3026TIP3    H1 9023   8.277   5.285   0.601
 3026TIP3    H2 9024   8.239   5.348   0.469
 3027TIP3   OH2 9025   7.881   2.104   0.816
 3027TIP3    H1 9026   7.800   2.055   0.808
 3027TIP3    H2 9027   7.938   2.048   0.868
 3028TIP3   OH2 9028   2.491   3.750   5.878
 3028TIP3    H1 9029   2.395   3.751   5.877
 3028TIP3    H2 9030   2.516   3.708   5.796
 3029TIP3   OH2 9031   0.472   4.950   0.834
 3029TIP3    H1 9032   0.439   4.908   0.914
 3029TIP3    H2 9033   0.499   5.037   0.863
 3030TIP3   OH2 9034   5.674   3.742   2.307
 3030TIP3    H1 9035   5.736   3.774   2.242
 3030TIP3    H2 9036   5.705   3.779   2.390
 3031TIP3   OH2 9037   4.794   4.208   1.798
 3031TIP3    H1 9038   4.854   4.283   1.802
 3031TIP3    H2 9039   4.844   4.135   1.832
 3032TIP3   OH2 9040   7.953   4.375   3.418
 3032TIP3    H1 9041   7.897   4.299   3.402
 3032TIP3    H2 9042   8.021   4.342   3.476
 3033TIP3   OH2 9043   7.419   3.667   4.355
 3033TIP3    H1 9044   7.497   3.685   4.303
 3033TIP3    H2 9045   7.436   3.583   4.398
 3034TIP3   OH2 9046   3.585   5.693   6.454
 3034TIP3    H1 9047   3.560   5.630   6.522
 3034TIP3    H2 9048   3.668   5.730   6.484
 3035TIP3   OH2 9049   3.931   2.702   4.867
 3035TIP3    H1 9050   3.835   2.704   4.865
 3035TIP3    H2 9051   3.957   2.689   4.775
 3036TIP3   OH2 9052   8.243   2.892   3.705
 3036TIP3    H1 9053   8.331   2.855   3.713
 3036TIP3    H2 9054   8.188   2.818   3.681
 3037TIP3   OH2 9055   8.287   2.076   0.411
 3037TIP3    H1 9056   8.237   2.001   0.381
 3037TIP3    H2 9057   8.291   2.134   0.336
 3038TIP3   OH2 9058   3.306   0.773   0.740
 3038TIP3    H1 9059   3.265   0.762   0.825
 3038TIP3    H2 9060   3.270   0.855   0.706
 3039TIP3   OH2 9061   7.298   6.989   1.856
 3039TIP3    H1 9062   7.246   6.997   1.936
 3039TIP3    H2 9063   7.336   7.076   1.842
 3040TIP3   OH2 9064   5.115   6.241   4.818
 3040TIP3    H1 9065   5.048   6.238   4.886
 3040TIP3    H2 9066   5.195   6.213   4.861
 3041TIP3   OH2 9067   3.412   3.271   0.585
 3041TIP3    H1 9068   3.498   3.237   0.563
 3041TIP3    H2 9069   3.356   3.243   0.513
 3042TIP3   OH2 9070   4.013   7.636   6.346
 3042TIP3    H1 9071   3.986   7.586   6.423
 3042TIP3    H2 9072   3.981   7.585   6.272
 3043TIP3   OH2 9073   7.413   5.538   1.283
 3043TIP3    H1 9074   7.417   5.559   1.190
 3043TIP3    H2 9075   7.453   5.613   1.327
 3044TIP3   OH2 9076   4.033   4.764   3.946
 3044TIP3    H1 9077   3.942   4.765   3.976
 3044TIP3    H2 9078   4.085   4.773   4.026
 3045TIP3   OH2 9079   0.995   6.782   0.066
 3045TIP3    H1 9080   1.052   6.857   0.049
 3045TIP3    H2 9081   0.951   6.765  -0.017
 3046TIP3   OH2 9082   2.290   4.971   2.230
 3046TIP3    H1 9083   2.317   5.024   2.305
 3046TIP3    H2 9084   2.288   4.881   2.265
 3047TIP3   OH2 9085   6.207   3.300   6.127
 3047TIP3    H1 9086   6.184   3.358   6.199
 3047TIP3    H2 9087   6.155   3.332   6.053
 3048TIP3   OH2 9088   2.322   3.529   2.182
 3048TIP3    H1 9089   2.305   3.518   2.276
 3048TIP3    H2 9090   2.299   3.444   2.144
 3049TIP3   OH2 9091   2.094   0.332   4.171
 3049TIP3    H1 9092   2.086   0.423   4.143
 3049TIP3    H2 9093   2.008   0.294   4.154
 3050TIP3   OH2 9094   0.978   5.477   4.326
 3050TIP3    H1 9095   0.973   5.543   4.395
 3050TIP3    H2 9096   0.986   5.394   4.373
 3051TIP3   OH2 9097   4.137   4.839   4.256
 3051TIP3    H1 9098   4.122   4.806   4.344
 3051TIP3    H2 9099   4.226   4.810   4.234
 3052TIP3   OH2 9100   2.651   4.108   2.875
 3052TIP3    H1 9101   2.575   4.056   2.848
 3052TIP3    H2 9102   2.631   4.197   2.846
 3053TIP3   OH2 9103   6.188   0.583   3.318
 3053TIP3    H1 9104   6.109   0.548   3.276
 3053TIP3    H2 9105   6.260   0.538   3.273
 3054TIP3   OH2 9106   7.220   6.143   4.501
 3054TIP3    H1 9107   7.217   6.083   4.575
 3054TIP3    H2 9108   7.128   6.151   4.473
 3055TIP3   OH2 9109   5.670   2.794   3.617
 3055TIP3    H1 9110   5.748   2.822   3.665
 3055TIP3    H2 9111   5.603   2.785   3.686
 3056TIP3   OH2 9112   7.138   5.232   5.970
 3056TIP3    H1 9113   7.191   5.304   6.005
 3056TIP3    H2 9114   7.054   5.272   5.949
 3057TIP3   OH2 9115   5.906   2.849   3.094
 3057TIP3    H1 9116   5.834   2.906   3.122
 3057TIP3    H2 9117   5.874   2.760   3.110
 3058TIP3   OH2 9118   0.952   5.252   2.653
 3058TIP3    H1 9119   0.943   5.282   2.743
 3058TIP3    H2 9120   0.998   5.168   2.659
 3059TIP3   OH2 9121   5.629   5.494   5.689
 3059TIP3    H1 9122   5.573   5.463   5.760
 3059TIP3    H2 9123   5.583   5.570   5.653
 3060TIP3   OH2 9124   4.054   4.068   4.204
 3060TIP3    H1 9125   4.142   4.078   4.168
 3060TIP3    H2 9126   4.041   4.146   4.258
 3061TIP3   OH2 9127   7.808   3.618   6.321
 3061TIP3    H1 9128   7.713   3.611   6.316
 3061TIP3    H2 9129   7.832   3.685   6.257
 3062TIP3   OH2 9130   3.723   7.439   5.425
 3062TIP3    H1 9131   3.680   7.499   5.364
 3062TIP3    H2 9132   3.804   7.414   5.380
 3063TIP3   OH2 9133   0.025   2.816   4.318
 3063TIP3    H1 9134   0.112   2.778   4.327
 3063TIP3    H2 9135   0.034   2.881   4.248
 3064TIP3   OH2 9136   6.648   7.485   1.865
 3064TIP3    H1 9137   6.580   7.506   1.930
 3064TIP3    H2 9138   6.700   7.565   1.860
 3065TIP3   OH2 9139   2.381   3.214   6.123
 3065TIP3    H1 9140   2.331   3.245   6.199
 3065TIP3    H2 9141   2.425   3.292   6.090
 3066TIP3   OH2 9142   7.250   1.979   4.301
 3066TIP3    H1 9143   7.312   1.991   4.373
 3066TIP3    H2 9144   7.269   2.050   4.240
 3067TIP3   OH2 9145   2.048   2.716   0.761
 3067TIP3    H1 9146   2.005   2.650   0.814
 3067TIP3    H2 9147   2.074   2.671   0.681
 3068TIP3   OH2 9148   3.949   6.564   4.973
 3068TIP3    H1 9149   4.017   6.517   4.925
 3068TIP3    H2 9150   3.926   6.637   4.916
 3069TIP3   OH2 9151   5.223   1.867   0.887
 3069TIP3    H1 9152   5.193   1.941   0.940
 3069TIP3    H2 9153   5.251   1.801   0.951
 3070TIP3   OH2 9154   0.758   7.825   3.612
 3070TIP3    H1 9155   0.781   7.734   3.625
 3070TIP3    H2 9156   0.668   7.823   3.580
 3071TIP3   OH2 9157   1.977   0.258   1.442
 3071TIP3    H1 9158   1.925   0.272   1.363
 3071TIP3    H2 9159   2.067   0.260   1.412
 3072TIP3   OH2 9160   3.199   4.517   3.420
 3072TIP3    H1 9161   3.272   4.466   3.385
 3072TIP3    H2 9162   3.220   4.526   3.513
 3073TIP3   OH2 9163   6.421   2.146   0.596
 3073TIP3    H1 9164   6.437   2.152   0.690
 3073TIP3    H2 9165   6.504   2.175   0.556
 3074TIP3   OH2 9166   5.430   2.527   5.952
 3074TIP3    H1 9167   5.401   2.596   6.012
 3074TIP3    H2 9168   5.367   2.456   5.966
 3075TIP3   OH2 9169   4.432   5.545   5.570
 3075TIP3    H1 9170   4.372   5.574   5.502
 3075TIP3    H2 9171   4.462   5.459   5.541
 3076TIP3   OH2 9172   1.003   7.114   1.252
 3076TIP3    H1 9173   1.016   7.205   1.281
 3076TIP3    H2 9174   0.943   7.077   1.317
 3077TIP3   OH2 9175   6.084   3.188   1.139
 3077TIP3    H1 9176   6.089   3.138   1.220
 3077TIP3    H2 9177   6.044   3.128   1.076
 3078TIP3   OH2 9178   2.827   2.210   4.544
 3078TIP3    H1 9179   2.885   2.259   4.486
 3078TIP3    H2 9180   2.829   2.120   4.511
 3079TIP3   OH2 9181   2.323   0.402   3.569
 3079TIP3    H1 9182   2.389   0.443   3.514
 3079TIP3    H2 9183   2.344   0.431   3.658
 3080TIP3   OH2 9184   2.619   1.832   5.952
 3080TIP3    H1 9185   2.624   1.858   5.860
 3080TIP3    H2 9186   2.679   1.757   5.959
 3081TIP3   OH2 9187   5.208   4.728   5.284
 3081TIP3    H1 9188   5.258   4.734   5.366
 3081TIP3    H2 9189   5.236   4.803   5.233
 3082TIP3   OH2 9190   8.085   6.953   2.805
 3082TIP3    H1 9191   8.164   6.900   2.816
 3082TIP3    H2 9192   8.013   6.893   2.825
 3083TIP3   OH2 9193   7.638   1.464   3.631
 3083TIP3    H1 9194   7.658   1.524   3.559
 3083TIP3    H2 9195   7.618   1.521   3.705
 3084TIP3   OH2 9196   0.970   7.332   2.533
 3084TIP3    H1 9197   0.974   7.386   2.612
 3084TIP3    H2 9198   1.061   7.325   2.504
 3085TIP3   OH2 9199   5.118   0.841   3.727
 3085TIP3    H1 9200   5.117   0.857   3.632
 3085TIP3    H2 9201   5.211   0.830   3.748
 3086TIP3   OH2 9202   4.277   6.564   0.210
 3086TIP3    H1 9203   4.345   6.624   0.178
 3086TIP3    H2 9204   4.235   6.531   0.130
 3087TIP3   OH2 9205   1.167   7.369   3.916
 3087TIP3    H1 9206   1.087   7.327   3.947
 3087TIP3    H2 9207   1.139   7.456   3.888
 3088TIP3   OH2 9208   8.044   3.923   0.740
 3088TIP3    H1 9209   8.106   3.897   0.672
 3088TIP3    H2 9210   7.961   3.882   0.714
 3089TIP3   OH2 9211   0.150   5.193   0.862
 3089TIP3    H1 9212   0.201   5.164   0.937
 3089TIP3    H2 9213   0.185   5.279   0.840
 3090TIP3   OH2 9214   1.706   3.317   5.714
 3090TIP3    H1 9215   1.615   3.337   5.736
 3090TIP3    H2 9216   1.721   3.362   5.631
 3091TIP3   OH2 9217   2.693   5.860   5.586
 3091TIP3    H1 9218   2.788   5.873   5.595
 3091TIP3    H2 9219   2.668   5.813   5.666
 3092TIP3   OH2 9220   3.334   2.325   2.825
 3092TIP3    H1 9221   3.419   2.308   2.786
 3092TIP3    H2 9222   3.295   2.238   2.837
 3093TIP3   OH2 9223   3.898   2.008   2.164
 3093TIP3    H1 9224   3.910   2.082   2.106
 3093TIP3    H2 9225   3.805   2.010   2.188
 3094TIP3   OH2 9226   5.999   1.648   3.605
 3094TIP3    H1 9227   5.956   1.625   3.523
 3094TIP3    H2 9228   6.080   1.691   3.578
 3095TIP3   OH2 9229   2.590   3.113   2.448
 3095TIP3    H1 9230   2.656   3.172   2.410
 3095TIP3    H2 9231   2.532   3.171   2.497
 3096TIP3   OH2 9232   0.636   0.310   1.145
 3096TIP3    H1 9233   0.607   0.241   1.085
 3096TIP3    H2 9234   0.721   0.279   1.176
 3097TIP3   OH2 9235   7.654   3.279   3.576
 3097TIP3    H1 9236   7.724   3.215   3.592
 3097TIP3    H2 9237   7.621   3.257   3.489
 3098TIP3   OH2 9238   1.822   7.302   2.119
 3098TIP3    H1 9239   1.878   7.224   2.130
 3098TIP3    H2 9240   1.812   7.336   2.208
 3099TIP3   OH2 9241   1.226   4.500   0.318
 3099TIP3    H1 9242   1.312   4.514   0.278
 3099TIP3    H2 9243   1.214   4.405   0.316
 3100TIP3   OH2 9244   2.758   1.332   3.653
 3100TIP3    H1 9245   2.781   1.260   3.595
 3100TIP3    H2 9246   2.725   1.289   3.732
 3101TIP3   OH2 9247   3.667   0.749   0.749
 3101TIP3    H1 9248   3.751   0.741   0.703
 3101TIP3    H2 9249   3.668   0.838   0.784
 3102TIP3   OH2 9250   6.478   6.272   3.117
 3102TIP3    H1 9251   6.539   6.204   3.146
 3102TIP3    H2 9252   6.409   6.225   3.071
 3103TIP3   OH2 9253   3.740   5.707   0.066
 3103TIP3    H1 9254   3.679   5.735  -0.003
 3103TIP3    H2 9255   3.774   5.790   0.101
 3104TIP3   OH2 9256   7.307   2.149   3.380
 3104TIP3    H1 9257   7.323   2.182   3.292
 3104TIP3    H2 9258   7.212   2.137   3.384
 3105TIP3   OH2 9259   5.254   2.172   0.049
 3105TIP3    H1 9260   5.295   2.111  -0.012
 3105TIP3    H2 9261   5.277   2.140   0.135
 3106TIP3   OH2 9262   7.757   1.060   0.516
 3106TIP3    H1 9263   7.839   1.029   0.476
 3106TIP3    H2 9264   7.750   1.010   0.597
 3107TIP3   OH2 9265   6.214   0.206   0.800
 3107TIP3    H1 9266   6.155   0.270   0.759
 3107TIP3    H2 9267   6.255   0.161   0.726
 3108TIP3   OH2 9268   5.494   7.696   0.999
 3108TIP3    H1 9269   5.565   7.639   1.029
 3108TIP3    H2 9270   5.539   7.774   0.967
 3109TIP3   OH2 9271   1.730   1.208   0.592
 3109TIP3    H1 9272   1.808   1.202   0.537
 3109TIP3    H2 9273   1.763   1.217   0.681
 3110TIP3   OH2 9274   4.646   5.438   1.987
 3110TIP3    H1 9275   4.656   5.533   1.981
 3110TIP3    H2 9276   4.631   5.409   1.897
 3111TIP3   OH2 9277   2.645   1.752   2.557
 3111TIP3    H1 9278   2.594   1.818   2.603
 3111TIP3    H2 9279   2.631   1.671   2.607
 3112TIP3   OH2 9280   6.955   2.392   1.788
 3112TIP3    H1 9281   6.993   2.400   1.701
 3112TIP3    H2 9282   6.869   2.353   1.774
 3113TIP3   OH2 9283   6.291   0.851   4.644
 3113TIP3    H1 9284   6.313   0.854   4.551
 3113TIP3    H2 9285   6.341   0.922   4.683
 3114TIP3   OH2 9286   4.060   1.904   5.428
 3114TIP3    H1 9287   4.060   1.945   5.341
 3114TIP3    H2 9288   3.980   1.852   5.430
 3115TIP3   OH2 9289   2.920   3.991   6.538
 3115TIP3    H1 9290   2.920   3.900   6.568
 3115TIP3    H2 9291   3.010   4.005   6.506
 3116TIP3   OH2 9292   8.001   3.877   5.666
 3116TIP3    H1 9293   8.026   3.944   5.730
 3116TIP3    H2 9294   7.943   3.923   5.605
 3117TIP3   OH2 9295   4.219   6.197   0.732
 3117TIP3    H1 9296   4.138   6.194   0.680
 3117TIP3    H2 9297   4.190   6.224   0.819
 3118TIP3   OH2 9298   3.277   2.055   0.012
 3118TIP3    H1 9299   3.242   1.997  -0.056
 3118TIP3    H2 9300   3.334   1.998   0.065
 3119TIP3   OH2 9301   8.103   5.129   4.814
 3119TIP3    H1 9302   8.065   5.049   4.779
 3119TIP3    H2 9303   8.051   5.199   4.775
 3120TIP3   OH2 9304   5.521   2.932   1.208
 3120TIP3    H1 9305   5.527   2.950   1.301
 3120TIP3    H2 9306   5.522   2.837   1.201
 3121TIP3   OH2 9307   7.573   4.798   2.602
 3121TIP3    H1 9308   7.604   4.885   2.578
 3121TIP3    H2 9309   7.584   4.746   2.522
 3122TIP3   OH2 9310   0.344   4.779   1.002
 3122TIP3    H1 9311   0.284   4.763   1.075
 3122TIP3    H2 9312   0.405   4.705   1.004
 3123TIP3   OH2 9313   1.426   0.356   1.534
 3123TIP3    H1 9314   1.412   0.273   1.578
 3123TIP3    H2 9315   1.463   0.332   1.449
 3124TIP3   OH2 9316   0.773   1.337   6.231
 3124TIP3    H1 9317   0.696   1.353   6.177
 3124TIP3    H2 9318   0.840   1.395   6.194
 3125TIP3   OH2 9319   2.490   4.747   3.124
 3125TIP3    H1 9320   2.533   4.666   3.153
 3125TIP3    H2 9321   2.415   4.757   3.182
 3126TIP3   OH2 9322   5.098   1.477   4.803
 3126TIP3    H1 9323   5.077   1.559   4.759
 3126TIP3    H2 9324   5.127   1.419   4.734
 3127TIP3   OH2 9325   5.484   7.625   3.019
 3127TIP3    H1 9326   5.547   7.697   3.014
 3127TIP3    H2 9327   5.537   7.546   3.027
 3128TIP3   OH2 9328   7.694   2.331   5.824
 3128TIP3    H1 9329   7.628   2.399   5.825
 3128TIP3    H2 9330   7.674   2.279   5.746
 3129TIP3   OH2 9331   7.814   4.776   4.356
 3129TIP3    H1 9332   7.876   4.712   4.321
 3129TIP3    H2 9333   7.777   4.733   4.433
 3130TIP3   OH2 9334   7.555   3.426   4.462
 3130TIP3    H1 9335   7.596   3.346   4.428
 3130TIP3    H2 9336   7.627   3.473   4.503
 3131TIP3   OH2 9337   1.300   2.361   6.549
 3131TIP3    H1 9338   1.344   2.277   6.539
 3131TIP3    H2 9339   1.271   2.384   6.460
 3132TIP3   OH2 9340   0.838   6.841   0.697
 3132TIP3    H1 9341   0.793   6.758   0.681
 3132TIP3    H2 9342   0.857   6.840   0.791
 3133TIP3   OH2 9343   0.432   3.584   1.336
 3133TIP3    H1 9344   0.445   3.500   1.381
 3133TIP3    H2 9345   0.341   3.581   1.308
 3134TIP3   OH2 9346   2.902   6.029   3.825
 3134TIP3    H1 9347   2.909   6.056   3.733
 3134TIP3    H2 9348   2.879   5.936   3.820
 3135TIP3   OH2 9349   6.063   4.426   0.045
 3135TIP3    H1 9350   6.039   4.487  -0.024
 3135TIP3    H2 9351   6.158   4.423   0.043
 3136TIP3   OH2 9352   5.557   0.220   3.064
 3136TIP3    H1 9353   5.607   0.247   2.987
 3136TIP3    H2 9354   5.468   0.248   3.046
 3137TIP3   OH2 9355   3.539   2.155   6.144
 3137TIP3    H1 9356   3.596   2.078   6.144
 3137TIP3    H2 9357   3.595   2.226   6.116
 3138TIP3   OH2 9358   3.391   0.244   0.962
 3138TIP3    H1 9359   3.461   0.179   0.967
 3138TIP3    H2 9360   3.320   0.199   0.916
 3139TIP3   OH2 9361   6.956   1.235   1.926
 3139TIP3    H1 9362   6.917   1.279   1.850
 3139TIP3    H2 9363   7.043   1.274   1.935
 3140TIP3   OH2 9364   2.548   0.298   0.605
 3140TIP3    H1 9365   2.587   0.359   0.667
 3140TIP3    H2 9366   2.461   0.335   0.587
 3141TIP3   OH2 9367   1.652   0.712   3.570
 3141TIP3    H1 9368   1.596   0.721   3.493
 3141TIP3    H2 9369   1.724   0.656   3.541
 3142TIP3   OH2 9370   4.094   5.796   3.361
 3142TIP3    H1 9371   4.138   5.877   3.387
 3142TIP3    H2 9372   4.138   5.769   3.280
 3143TIP3   OH2 9373   6.430   1.498   0.222
 3143TIP3    H1 9374   6.377   1.576   0.238
 3143TIP3    H2 9375   6.394   1.431   0.280
 3144TIP3   OH2 9376   2.590   7.099   2.654
 3144TIP3    H1 9377   2.558   7.132   2.738
 3144TIP3    H2 9378   2.673   7.144   2.640
 3145TIP3   OH2 9379   5.275   4.026   4.643
 3145TIP3    H1 9380   5.211   4.066   4.702
 3145TIP3    H2 9381   5.318   4.100   4.600
 3146TIP3   OH2 9382   7.021   1.640   1.354
 3146TIP3    H1 9383   7.021   1.736   1.345
 3146TIP3    H2 9384   6.938   1.622   1.399
 3147TIP3   OH2 9385   4.814   6.598   4.318
 3147TIP3    H1 9386   4.854   6.680   4.288
 3147TIP3    H2 9387   4.837   6.593   4.411
 3148TIP3   OH2 9388   6.972   7.132   5.426
 3148TIP3    H1 9389   7.057   7.162   5.457
 3148TIP3    H2 9390   6.940   7.074   5.496
 3149TIP3   OH2 9391   0.888   6.986   4.983
 3149TIP3    H1 9392   0.976   6.953   4.967
 3149TIP3    H2 9393   0.898   7.048   5.056
 3150TIP3   OH2 9394   6.540   6.803   3.406
 3150TIP3    H1 9395   6.471   6.813   3.339
 3150TIP3    H2 9396   6.495   6.822   3.489
 3151TIP3   OH2 9397   7.576   0.861   0.433
 3151TIP3    H1 9398   7.622   0.941   0.410
 3151TIP3    H2 9399   7.624   0.825   0.508
 3152TIP3   OH2 9400   2.228   5.201   4.058
 3152TIP3    H1 9401   2.208   5.289   4.090
 3152TIP3    H2 9402   2.152   5.149   4.084
 3153TIP3   OH2 9403   6.046   6.046   6.148
 3153TIP3    H1 9404   5.972   6.058   6.207
 3153TIP3    H2 9405   6.118   6.019   6.205
 3154TIP3   OH2 9406   3.055   3.737   5.654
 3154TIP3    H1 9407   3.131   3.767   5.604
 3154TIP3    H2 9408   2.995   3.812   5.654
 3155TIP3   OH2 9409   5.935   2.717   0.141
 3155TIP3    H1 9410   5.919   2.811   0.143
 3155TIP3    H2 9411   6.004   2.703   0.205
 3156TIP3   OH2 9412   6.353   6.745   6.668
 3156TIP3    H1 9413   6.357   6.770   6.760
 3156TIP3    H2 9414   6.361   6.650   6.668
 3157TIP3   OH2 9415   7.747   5.516   2.187
 3157TIP3    H1 9416   7.680   5.540   2.250
 3157TIP3    H2 9417   7.813   5.585   2.194
 3158TIP3   OH2 9418   1.126   1.520   2.408
 3158TIP3    H1 9419   1.098   1.444   2.459
 3158TIP3    H2 9420   1.111   1.496   2.317
 3159TIP3   OH2 9421   2.283   7.719   1.770
 3159TIP3    H1 9422   2.211   7.661   1.797
 3159TIP3    H2 9423   2.256   7.751   1.684
 3160TIP3   OH2 9424   3.155   5.933   0.967
 3160TIP3    H1 9425   3.238   5.903   0.932
 3160TIP3    H2 9426   3.089   5.895   0.909
 3161TIP3   OH2 9427   6.858   3.981   0.273
 3161TIP3    H1 9428   6.803   4.019   0.205
 3161TIP3    H2 9429   6.797   3.961   0.344
 3162TIP3   OH2 9430   7.128   3.507   3.208
 3162TIP3    H1 9431   7.064   3.456   3.257
 3162TIP3    H2 9432   7.104   3.493   3.116
 3163TIP3   OH2 9433   7.054   7.106   2.943
 3163TIP3    H1 9434   7.080   7.091   2.852
 3163TIP3    H2 9435   7.107   7.181   2.971
 3164TIP3   OH2 9436   6.785   5.208   2.070
 3164TIP3    H1 9437   6.880   5.215   2.082
 3164TIP3    H2 9438   6.748   5.265   2.138
 3165TIP3   OH2 9439   3.192   2.258   6.605
 3165TIP3    H1 9440   3.180   2.351   6.624
 3165TIP3    H2 9441   3.280   2.251   6.569
 3166TIP3   OH2 9442   7.333   6.087   2.726
 3166TIP3    H1 9443   7.371   6.163   2.682
 3166TIP3    H2 9444   7.245   6.079   2.690
 3167TIP3   OH2 9445   6.411   5.680   1.178
 3167TIP3    H1 9446   6.318   5.700   1.188
 3167TIP3    H2 9447   6.425   5.604   1.236
 3168TIP3   OH2 9448   8.303   6.269   1.097
 3168TIP3    H1 9449   8.216   6.263   1.135
 3168TIP3    H2 9450   8.311   6.190   1.043
 3169TIP3   OH2 9451   3.383   3.097   1.084
 3169TIP3    H1 9452   3.406   3.122   0.995
 3169TIP3    H2 9453   3.343   3.176   1.122
 3170TIP3   OH2 9454   7.487   1.438   2.385
 3170TIP3    H1 9455   7.466   1.481   2.468
 3170TIP3    H2 9456   7.406   1.442   2.335
 3171TIP3   OH2 9457   7.356   4.622   2.631
 3171TIP3    H1 9458   7.421   4.692   2.622
 3171TIP3    H2 9459   7.300   4.652   2.703
 3172TIP3   OH2 9460   4.735   0.040   0.815
 3172TIP3    H1 9461   4.664   0.010   0.871
 3172TIP3    H2 9462   4.696   0.050   0.729
 3173TIP3   OH2 9463   7.809   1.814   0.601
 3173TIP3    H1 9464   7.800   1.810   0.697
 3173TIP3    H2 9465   7.903   1.823   0.586
 3174TIP3   OH2 9466   4.872   6.232   6.197
 3174TIP3    H1 9467   4.910   6.319   6.206
 3174TIP3    H2 9468   4.873   6.196   6.286
 3175TIP3   OH2 9469   1.708   5.907   1.344
 3175TIP3    H1 9470   1.655   5.828   1.333
 3175TIP3    H2 9471   1.693   5.958   1.265
 3176TIP3   OH2 9472   1.844   1.240   1.374
 3176TIP3    H1 9473   1.909   1.169   1.370
 3176TIP3    H2 9474   1.796   1.232   1.291
 3177TIP3   OH2 9475   5.433   6.448   1.628
 3177TIP3    H1 9476   5.380   6.417   1.554
 3177TIP3    H2 9477   5.517   6.471   1.588
 3178TIP3   OH2 9478   3.282   6.337   1.208
 3178TIP3    H1 9479   3.269   6.361   1.300
 3178TIP3    H2 9480   3.224   6.262   1.194
 3179TIP3   OH2 9481   4.322   6.321   4.161
 3179TIP3    H1 9482   4.320   6.280   4.074
 3179TIP3    H2 9483   4.247   6.283   4.207
 3180TIP3   OH2 9484   6.672   3.115   3.175
 3180TIP3    H1 9485   6.653   3.028   3.209
 3180TIP3    H2 9486   6.711   3.162   3.249
 3181TIP3   OH2 9487   3.299   7.817   3.548
 3181TIP3    H1 9488   3.391   7.792   3.538
 3181TIP3    H2 9489   3.263   7.752   3.609
 3182TIP3   OH2 9490   7.448   4.658   6.742
 3182TIP3    H1 9491   7.488   4.739   6.773
 3182TIP3    H2 9492   7.517   4.617   6.689
 3183TIP3   OH2 9493   7.132   6.559   4.965
 3183TIP3    H1 9494   7.090   6.480   4.932
 3183TIP3    H2 9495   7.059   6.619   4.984
 3184TIP3   OH2 9496   7.843   2.391   1.025
 3184TIP3    H1 9497   7.801   2.395   1.110
 3184TIP3    H2 9498   7.798   2.319   0.980
 3185TIP3   OH2 9499   6.803   2.884   2.944
 3185TIP3    H1 9500   6.734   2.951   2.941
 3185TIP3    H2 9501   6.765   2.809   2.898
 3186TIP3   OH2 9502   8.144   1.108   5.410
 3186TIP3    H1 9503   8.139   1.092   5.505
 3186TIP3    H2 9504   8.129   1.022   5.371
 3187TIP3   OH2 9505   8.058   5.714   1.921
 3187TIP3    H1 9506   8.106   5.716   1.838
 3187TIP3    H2 9507   8.050   5.806   1.946
 3188TIP3   OH2 9508   7.178   0.683   2.280
 3188TIP3    H1 9509   7.085   0.661   2.284
 3188TIP3    H2 9510   7.204   0.665   2.190
 3189TIP3   OH2 9511   4.180   2.763   2.575
 3189TIP3    H1 9512   4.103   2.762   2.520
 3189TIP3    H2 9513   4.166   2.836   2.635
 3190TIP3   OH2 9514   7.907   7.782   2.821
 3190TIP3    H1 9515   8.002   7.791   2.814
 3190TIP3    H2 9516   7.881   7.851   2.883
 3191TIP3   OH2 9517   4.930   2.876   5.367
 3191TIP3    H1 9518   4.835   2.868   5.369
 3191TIP3    H2 9519   4.957   2.830   5.288
 3192TIP3   OH2 9520   0.093   1.708   1.229
 3192TIP3    H1 9521   0.147   1.629   1.230
 3192TIP3    H2 9522   0.149   1.775   1.268
 3193TIP3   OH2 9523   4.996   4.470   0.391
 3193TIP3    H1 9524   5.059   4.526   0.347
 3193TIP3    H2 9525   5.032   4.458   0.479
 3194TIP3   OH2 9526   4.204   1.308   5.582
 3194TIP3    H1 9527   4.289   1.274   5.556
 3194TIP3    H2 9528   4.220   1.350   5.666
 3195TIP3   OH2 9529   1.608   5.786   5.493
 3195TIP3    H1 9530   1.577   5.786   5.584
 3195TIP3    H2 9531   1.531   5.810   5.442
 3196TIP3   OH2 9532   7.354   5.253   0.845
 3196TIP3    H1 9533   7.383   5.308   0.772
 3196TIP3    H2 9534   7.401   5.288   0.921
 3197TIP3   OH2 9535   5.335   2.663   0.698
 3197TIP3    H1 9536   5.335   2.757   0.684
 3197TIP3    H2 9537   5.425   2.643   0.725
 3198TIP3   OH2 9538   7.693   6.612   0.683
 3198TIP3    H1 9539   7.766   6.553   0.700
 3198TIP3    H2 9540   7.712   6.689   0.736
 3199TIP3   OH2 9541   2.717   4.143   1.968
 3199TIP3    H1 9542   2.675   4.159   2.052
 3199TIP3    H2 9543   2.711   4.227   1.922
 3200TIP3   OH2 9544   8.091   4.765   6.234
 3200TIP3    H1 9545   8.001   4.783   6.207
 3200TIP3    H2 9546   8.140   4.757   6.152
 3201TIP3   OH2 9547   4.063   3.509   3.058
 3201TIP3    H1 9548   4.016   3.580   3.014
 3201TIP3    H2 9549   4.015   3.430   3.034
 3202TIP3   OH2 9550   0.367   4.617   4.670
 3202TIP3    H1 9551   0.394   4.702   4.706
 3202TIP3    H2 9552   0.286   4.596   4.716
 3203TIP3   OH2 9553   7.796   0.832   3.242
 3203TIP3    H1 9554   7.846   0.807   3.319
 3203TIP3    H2 9555   7.834   0.916   3.215
 3204TIP3   OH2 9556   0.370   3.433   5.266
 3204TIP3    H1 9557   0.367   3.349   5.221
 3204TIP3    H2 9558   0.361   3.498   5.196
 3205TIP3   OH2 9559   4.598   7.721   6.345
 3205TIP3    H1 9560   4.554   7.755   6.423
 3205TIP3    H2 9561   4.551   7.640   6.325
 3206TIP3   OH2 9562   2.944   5.119   0.217
 3206TIP3    H1 9563   2.903   5.098   0.133
 3206TIP3    H2 9564   2.946   5.215   0.219
 3207TIP3   OH2 9565   6.677   1.155   1.796
 3207TIP3    H1 9566   6.593   1.134   1.838
 3207TIP3    H2 9567   6.742   1.110   1.849
 3208TIP3   OH2 9568   1.864   1.373   1.651
 3208TIP3    H1 9569   1.887   1.315   1.578
 3208TIP3    H2 9570   1.921   1.449   1.640
 3209TIP3   OH2 9571   1.312   4.290   5.862
 3209TIP3    H1 9572   1.312   4.197   5.837
 3209TIP3    H2 9573   1.404   4.316   5.857
 3210TIP3   OH2 9574   3.688   7.458   4.072
 3210TIP3    H1 9575   3.663   7.498   3.989
 3210TIP3    H2 9576   3.762   7.509   4.103
 3211TIP3   OH2 9577   5.451   2.668   1.316
 3211TIP3    H1 9578   5.460   2.651   1.410
 3211TIP3    H2 9579   5.529   2.627   1.277
 3212TIP3   OH2 9580   5.592   0.071   2.152
 3212TIP3    H1 9581   5.514   0.063   2.207
 3212TIP3    H2 9582   5.621  -0.019   2.138
 3213TIP3   OH2 9583   0.394   3.422   1.894
 3213TIP3    H1 9584   0.389   3.482   1.968
 3213TIP3    H2 9585   0.466   3.362   1.916
 3214TIP3   OH2 9586   1.972   5.386   0.821
 3214TIP3    H1 9587   1.889   5.347   0.850
 3214TIP3    H2 9588   1.986   5.352   0.733
 3215TIP3   OH2 9589   7.828   7.125   1.180
 3215TIP3    H1 9590   7.878   7.076   1.114
 3215TIP3    H2 9591   7.780   7.058   1.229
 3216TIP3   OH2 9592   4.393   7.056   0.758
 3216TIP3    H1 9593   4.358   7.119   0.695
 3216TIP3    H2 9594   4.487   7.076   0.761
 3217TIP3   OH2 9595   7.293   4.742   0.865
 3217TIP3    H1 9596   7.309   4.727   0.958
 3217TIP3    H2 9597   7.292   4.838   0.857
 3218TIP3   OH2 9598   7.156   5.426   0.975
 3218TIP3    H1 9599   7.092   5.389   0.915
 3218TIP3    H2 9600   7.239   5.383   0.953
 3219TIP3   OH2 9601   4.662   1.336   2.364
 3219TIP3    H1 9602   4.661   1.427   2.335
 3219TIP3    H2 9603   4.572   1.305   2.352
 3220TIP3   OH2 9604   5.190   1.708   3.026
 3220TIP3    H1 9605   5.123   1.655   2.983
 3220TIP3    H2 9606   5.206   1.781   2.966
 3221TIP3   OH2 9607   6.067   5.615   2.099
 3221TIP3    H1 9608   5.995   5.615   2.037
 3221TIP3    H2 9609   6.115   5.696   2.080
 3222TIP3   OH2 9610   0.196   5.672   5.719
 3222TIP3    H1 9611   0.124   5.731   5.700
 3222TIP3    H2 9612   0.185   5.599   5.658
 3223TIP3   OH2 9613   5.015   7.661   5.473
 3223TIP3    H1 9614   5.075   7.713   5.527
 3223TIP3    H2 9615   5.049   7.572   5.477
 3224TIP3   OH2 9616   6.044   4.308   1.146
 3224TIP3    H1 9617   6.049   4.223   1.189
 3224TIP3    H2 9618   6.030   4.287   1.054
 3225TIP3   OH2 9619   3.823   4.101   4.804
 3225TIP3    H1 9620   3.914   4.118   4.829
 3225TIP3    H2 9621   3.811   4.007   4.817
 3226TIP3   OH2 9622   4.782   6.254   3.413
 3226TIP3    H1 9623   4.721   6.250   3.340
 3226TIP3    H2 9624   4.779   6.346   3.441
 3227TIP3   OH2 9625   7.307   1.578   3.311
 3227TIP3    H1 9626   7.334   1.526   3.387
 3227TIP3    H2 9627   7.250   1.520   3.261
 3228TIP3   OH2 9628   0.063   3.437   3.304
 3228TIP3    H1 9629   0.119   3.360   3.297
 3228TIP3    H2 9630  -0.026   3.402   3.316
 3229TIP3   OH2 9631   3.372   6.291   0.809
 3229TIP3    H1 9632   3.404   6.351   0.876
 3229TIP3    H2 9633   3.338   6.348   0.740
 3230TIP3   OH2 9634   3.551   0.289   3.662
 3230TIP3    H1 9635   3.608   0.302   3.737
 3230TIP3    H2 9636   3.561   0.196   3.640
 3231TIP3   OH2 9637   0.785   5.871   5.156
 3231TIP3    H1 9638   0.759   5.807   5.222
 3231TIP3    H2 9639   0.801   5.951   5.206
 3232TIP3   OH2 9640   3.893   5.936   4.267
 3232TIP3    H1 9641   3.851   5.875   4.329
 3232TIP3    H2 9642   3.849   6.020   4.283
 3233TIP3   OH2 9643   7.836   6.897   4.604
 3233TIP3    H1 9644   7.847   6.830   4.537
 3233TIP3    H2 9645   7.762   6.867   4.656
 3234TIP3   OH2 9646   6.019   3.601   0.784
 3234TIP3    H1 9647   6.008   3.514   0.820
 3234TIP3    H2 9648   6.103   3.631   0.818
 3235TIP3   OH2 9649   1.287   4.607   4.235
 3235TIP3    H1 9650   1.260   4.695   4.260
 3235TIP3    H2 9651   1.217   4.550   4.268
 3236TIP3   OH2 9652   1.141   3.061   5.214
 3236TIP3    H1 9653   1.054   3.087   5.184
 3236TIP3    H2 9654   1.177   3.010   5.141
 3237TIP3   OH2 9655   3.290   0.232   0.215
 3237TIP3    H1 9656   3.216   0.236   0.154
 3237TIP3    H2 9657   3.363   0.271   0.166
 3238TIP3   OH2 9658   1.725   0.619   0.477
 3238TIP3    H1 9659   1.718   0.582   0.389
 3238TIP3    H2 9660   1.787   0.692   0.468
 3239TIP3   OH2 9661   7.087   2.426   1.550
 3239TIP3    H1 9662   7.086   2.440   1.455
 3239TIP3    H2 9663   7.172   2.461   1.578
 3240TIP3   OH2 9664   2.987   4.499   5.364
 3240TIP3    H1 9665   2.934   4.430   5.402
 3240TIP3    H2 9666   2.939   4.527   5.286
 3241TIP3   OH2 9667   3.264   4.652   2.823
 3241TIP3    H1 9668   3.254   4.563   2.791
 3241TIP3    H2 9669   3.319   4.695   2.758
 3242TIP3   OH2 9670   2.221   3.111   1.949
 3242TIP3    H1 9671   2.185   3.026   1.925
 3242TIP3    H2 9672   2.303   3.117   1.900
 3243TIP3   OH2 9673   2.353   5.257   5.544
 3243TIP3    H1 9674   2.332   5.286   5.456
 3243TIP3    H2 9675   2.270   5.222   5.578
 3244TIP3   OH2 9676   6.672   7.778   4.412
 3244TIP3    H1 9677   6.584   7.785   4.450
 3244TIP3    H2 9678   6.671   7.694   4.366
 3245TIP3   OH2 9679   3.013   6.967   3.493
 3245TIP3    H1 9680   2.940   6.932   3.442
 3245TIP3    H2 9681   3.020   6.908   3.568
 3246TIP3   OH2 9682   0.523   2.282   3.370
 3246TIP3    H1 9683   0.549   2.191   3.384
 3246TIP3    H2 9684   0.529   2.322   3.456
 3247TIP3   OH2 9685   0.366   3.133   2.546
 3247TIP3    H1 9686   0.306   3.169   2.611
 3247TIP3    H2 9687   0.447   3.117   2.596
 3248TIP3   OH2 9688   3.050   6.285   3.629
 3248TIP3    H1 9689   3.029   6.231   3.553
 3248TIP3    H2 9690   3.032   6.374   3.600
 3249TIP3   OH2 9691   4.401   7.748   4.416
 3249TIP3    H1 9692   4.365   7.834   4.437
 3249TIP3    H2 9693   4.359   7.723   4.334
 3250TIP3   OH2 9694   2.060   1.134   2.527
 3250TIP3    H1 9695   2.037   1.046   2.557
 3250TIP3    H2 9696   1.982   1.165   2.481
 3251TIP3   OH2 9697   7.898   5.848   4.444
 3251TIP3    H1 9698   7.992   5.831   4.454
 3251TIP3    H2 9699   7.855   5.783   4.499
 3252TIP3   OH2 9700   2.000   3.547   1.399
 3252TIP3    H1 9701   1.962   3.516   1.318
 3252TIP3    H2 9702   2.081   3.591   1.372
 3253TIP3   OH2 9703   4.827   1.749   0.573
 3253TIP3    H1 9704   4.856   1.755   0.482
 3253TIP3    H2 9705   4.733   1.769   0.570
 3254TIP3   OH2 9706   5.145   4.171   1.135
 3254TIP3    H1 9707   5.171   4.079   1.136
 3254TIP3    H2 9708   5.225   4.219   1.156
 3255TIP3   OH2 9709   5.763   7.538   4.402
 3255TIP3    H1 9710   5.830   7.543   4.334
 3255TIP3    H2 9711   5.764   7.625   4.443
 3256TIP3   OH2 9712   4.148   7.823   0.196
 3256TIP3    H1 9713   4.240   7.808   0.219
 3256TIP3    H2 9714   4.118   7.888   0.259
 3257TIP3   OH2 9715   0.730   5.169   3.558
 3257TIP3    H1 9716   0.643   5.129   3.559
 3257TIP3    H2 9717   0.713   5.263   3.560
 3258TIP3   OH2 9718   5.979   1.882   6.471
 3258TIP3    H1 9719   6.033   1.863   6.394
 3258TIP3    H2 9720   6.041   1.914   6.536
 3259TIP3   OH2 9721   2.746   7.319   4.587
 3259TIP3    H1 9722   2.755   7.282   4.499
 3259TIP3    H2 9723   2.651   7.324   4.601
 3260TIP3   OH2 9724   2.664   4.842   2.692
 3260TIP3    H1 9725   2.596   4.783   2.724
 3260TIP3    H2 9726   2.743   4.788   2.688
 3261TIP3   OH2 9727   7.422   7.684   6.771
 3261TIP3    H1 9728   7.463   7.600   6.750
 3261TIP3    H2 9729   7.329   7.665   6.778
 3262TIP3   OH2 9730   0.299   4.864   1.403
 3262TIP3    H1 9731   0.254   4.948   1.403
 3262TIP3    H2 9732   0.267   4.819   1.481
 3263TIP3   OH2 9733   0.274   3.179   1.887
 3263TIP3    H1 9734   0.190   3.192   1.931
 3263TIP3    H2 9735   0.288   3.260   1.838
 3264TIP3   OH2 9736   4.213   6.146   4.830
 3264TIP3    H1 9737   4.207   6.051   4.830
 3264TIP3    H2 9738   4.285   6.166   4.770
 3265TIP3   OH2 9739   4.955   7.369   4.608
 3265TIP3    H1 9740   4.985   7.352   4.697
 3265TIP3    H2 9741   4.863   7.344   4.608
 3266TIP3   OH2 9742   4.098   1.567   0.631
 3266TIP3    H1 9743   4.068   1.642   0.682
 3266TIP3    H2 9744   4.192   1.582   0.619
 3267TIP3   OH2 9745   4.521   1.980   5.789
 3267TIP3    H1 9746   4.502   1.916   5.721
 3267TIP3    H2 9747   4.440   1.986   5.840
 3268TIP3   OH2 9748   4.319   2.138   4.323
 3268TIP3    H1 9749   4.229   2.165   4.308
 3268TIP3    H2 9750   4.340   2.173   4.410
 3269TIP3   OH2 9751   5.880   7.763   3.069
 3269TIP3    H1 9752   5.959   7.737   3.022
 3269TIP3    H2 9753   5.898   7.742   3.161
 3270TIP3   OH2 9754   3.823   4.344   4.640
 3270TIP3    H1 9755   3.843   4.278   4.707
 3270TIP3    H2 9756   3.747   4.309   4.594
 3271TIP3   OH2 9757   0.501   5.975   5.325
 3271TIP3    H1 9758   0.596   5.985   5.319
 3271TIP3    H2 9759   0.482   5.900   5.268
 3272TIP3   OH2 9760   1.078   3.384   5.565
 3272TIP3    H1 9761   0.997   3.369   5.613
 3272TIP3    H2 9762   1.136   3.313   5.593
 3273TIP3   OH2 9763   5.660   4.172   6.119
 3273TIP3    H1 9764   5.696   4.240   6.177
 3273TIP3    H2 9765   5.620   4.220   6.047
 3274TIP3   OH2 9766   6.817   2.170   6.583
 3274TIP3    H1 9767   6.767   2.147   6.661
 3274TIP3    H2 9768   6.868   2.091   6.564
 3275TIP3   OH2 9769   0.541   5.172   0.511
 3275TIP3    H1 9770   0.515   5.086   0.545
 3275TIP3    H2 9771   0.610   5.152   0.447
 3276TIP3   OH2 9772   2.789   1.994   5.227
 3276TIP3    H1 9773   2.820   1.910   5.261
 3276TIP3    H2 9774   2.867   2.050   5.230
 3277TIP3   OH2 9775   3.943   1.079   4.060
 3277TIP3    H1 9776   3.890   1.147   4.102
 3277TIP3    H2 9777   3.911   1.075   3.970
 3278TIP3   OH2 9778   6.436   0.278   2.931
 3278TIP3    H1 9779   6.445   0.199   2.878
 3278TIP3    H2 9780   6.356   0.263   2.982
 3279TIP3   OH2 9781   5.176   3.284   3.904
 3279TIP3    H1 9782   5.255   3.333   3.880
 3279TIP3    H2 9783   5.186   3.267   3.998
 3280TIP3   OH2 9784   7.751   0.233   0.664
 3280TIP3    H1 9785   7.770   0.206   0.754
 3280TIP3    H2 9786   7.694   0.309   0.673
 3281TIP3   OH2 9787   3.561   3.170   5.037
 3281TIP3    H1 9788   3.605   3.088   5.014
 3281TIP3    H2 9789   3.499   3.145   5.106
 3282TIP3   OH2 9790   3.452   2.798   6.296
 3282TIP3    H1 9791   3.544   2.798   6.325
 3282TIP3    H2 9792   3.436   2.889   6.270
 3283TIP3   OH2 9793   3.112   4.801   3.327
 3283TIP3    H1 9794   3.091   4.776   3.237
 3283TIP3    H2 9795   3.132   4.718   3.371
 3284TIP3   OH2 9796   1.100   0.695   2.757
 3284TIP3    H1 9797   1.057   0.691   2.843
 3284TIP3    H2 9798   1.089   0.786   2.729
 3285TIP3   OH2 9799   6.005   3.663   1.902
 3285TIP3    H1 9800   6.040   3.712   1.977
 3285TIP3    H2 9801   5.957   3.591   1.942
 3286TIP3   OH2 9802   3.798   4.888   5.302
 3286TIP3    H1 9803   3.733   4.904   5.233
 3286TIP3    H2 9804   3.851   4.815   5.269
 3287TIP3   OH2 9805   1.982   1.530   6.522
 3287TIP3    H1 9806   2.022   1.539   6.608
 3287TIP3    H2 9807   1.918   1.602   6.518
 3288TIP3   OH2 9808   1.374   3.659   0.814
 3288TIP3    H1 9809   1.331   3.744   0.800
 3288TIP3    H2 9810   1.451   3.680   0.867
 3289TIP3   OH2 9811   7.493   1.453   6.270
 3289TIP3    H1 9812   7.556   1.399   6.224
 3289TIP3    H2 9813   7.533   1.471   6.355
 3290TIP3   OH2 9814   1.004   5.628   2.195
 3290TIP3    H1 9815   1.032   5.712   2.158
 3290TIP3    H2 9816   0.966   5.651   2.280
 3291TIP3   OH2 9817   0.956   1.926   4.089
 3291TIP3    H1 9818   0.864   1.910   4.111
 3291TIP3    H2 9819   0.980   1.853   4.032
 3292TIP3   OH2 9820   5.005   3.210   2.604
 3292TIP3    H1 9821   5.030   3.145   2.538
 3292TIP3    H2 9822   4.910   3.217   2.596
 3293TIP3   OH2 9823   5.287   5.378   4.342
 3293TIP3    H1 9824   5.372   5.340   4.322
 3293TIP3    H2 9825   5.254   5.325   4.415
 3294TIP3   OH2 9826   7.214   2.580   5.846
 3294TIP3    H1 9827   7.225   2.674   5.858
 3294TIP3    H2 9828   7.119   2.568   5.839
 3295TIP3   OH2 9829   7.919   6.279   2.006
 3295TIP3    H1 9830   7.829   6.292   2.037
 3295TIP3    H2 9831   7.938   6.187   2.023
 3296TIP3   OH2 9832   4.238   6.313   5.041
 3296TIP3    H1 9833   4.237   6.402   5.006
 3296TIP3    H2 9834   4.253   6.257   4.965
 3297TIP3   OH2 9835   7.075   5.770   1.351
 3297TIP3    H1 9836   7.043   5.706   1.414
 3297TIP3    H2 9837   7.004   5.835   1.345
 3298TIP3   OH2 9838   0.479   7.478   5.096
 3298TIP3    H1 9839   0.486   7.570   5.118
 3298TIP3    H2 9840   0.455   7.477   5.004
 3299TIP3   OH2 9841   3.391   4.002   2.208
 3299TIP3    H1 9842   3.332   3.927   2.201
 3299TIP3    H2 9843   3.449   3.979   2.281
 3300TIP3   OH2 9844   4.314   7.554   3.393
 3300TIP3    H1 9845   4.228   7.551   3.352
 3300TIP3    H2 9846   4.304   7.616   3.465
 3301TIP3   OH2 9847   3.529   1.774   4.366
 3301TIP3    H1 9848   3.478   1.837   4.417
 3301TIP3    H2 9849   3.466   1.705   4.344
 3302TIP3   OH2 9850   7.197   0.733   0.144
 3302TIP3    H1 9851   7.116   0.710   0.190
 3302TIP3    H2 9852   7.266   0.720   0.209
 3303TIP3   OH2 9853   6.870   3.497   0.071
 3303TIP3    H1 9854   6.965   3.482   0.072
 3303TIP3    H2 9855   6.847   3.507   0.163
 3304TIP3   OH2 9856   3.287   7.489   1.063
 3304TIP3    H1 9857   3.248   7.481   1.150
 3304TIP3    H2 9858   3.216   7.471   1.002
 3305TIP3   OH2 9859   7.540   5.942   0.193
 3305TIP3    H1 9860   7.569   5.850   0.192
 3305TIP3    H2 9861   7.559   5.973   0.105
 3306TIP3   OH2 9862   5.551   1.635   2.085
 3306TIP3    H1 9863   5.515   1.564   2.033
 3306TIP3    H2 9864   5.475   1.689   2.108
 3307TIP3   OH2 9865   3.935   4.229   3.357
 3307TIP3    H1 9866   3.976   4.306   3.318
 3307TIP3    H2 9867   3.977   4.219   3.442
 3308TIP3   OH2 9868   5.026   7.361   4.345
 3308TIP3    H1 9869   5.122   7.357   4.347
 3308TIP3    H2 9870   5.000   7.375   4.436
 3309TIP3   OH2 9871   6.588   1.772   3.318
 3309TIP3    H1 9872   6.623   1.730   3.396
 3309TIP3    H2 9873   6.511   1.820   3.349
 3310TIP3   OH2 9874   4.741   5.197   2.770
 3310TIP3    H1 9875   4.650   5.168   2.760
 3310TIP3    H2 9876   4.784   5.124   2.815
 3311TIP3   OH2 9877   3.173   3.028   6.522
 3311TIP3    H1 9878   3.170   3.002   6.429
 3311TIP3    H2 9879   3.265   3.021   6.546
 3312TIP3   OH2 9880   1.648   5.487   4.621
 3312TIP3    H1 9881   1.563   5.469   4.662
 3312TIP3    H2 9882   1.627   5.505   4.529
 3313TIP3   OH2 9883   6.958   5.563   1.139
 3313TIP3    H1 9884   6.989   5.603   1.220
 3313TIP3    H2 9885   7.027   5.500   1.116
 3314TIP3   OH2 9886   3.878   4.129   6.442
 3314TIP3    H1 9887   3.923   4.073   6.379
 3314TIP3    H2 9888   3.874   4.076   6.522
 3315TIP3   OH2 9889   6.399   7.158   0.701
 3315TIP3    H1 9890   6.363   7.247   0.698
 3315TIP3    H2 9891   6.453   7.152   0.622
 3316TIP3   OH2 9892   0.386   2.654   4.978
 3316TIP3    H1 9893   0.409   2.563   4.999
 3316TIP3    H2 9894   0.437   2.674   4.900
 3317TIP3   OH2 9895   7.092   3.462   2.391
 3317TIP3    H1 9896   7.026   3.418   2.445
 3317TIP3    H2 9897   7.045   3.536   2.351
 3318TIP3   OH2 9898   0.892   1.233   5.200
 3318TIP3    H1 9899   0.890   1.313   5.147
 3318TIP3    H2 9900   0.972   1.241   5.252
 3319TIP3   OH2 9901   4.236   2.604   3.500
 3319TIP3    H1 9902   4.145   2.578   3.513
 3319TIP3    H2 9903   4.239   2.637   3.410
 3320TIP3   OH2 9904   1.985   0.917   5.574
 3320TIP3    H1 9905   1.901   0.947   5.540
 3320TIP3    H2 9906   2.049   0.980   5.541
 3321TIP3   OH2 9907   6.564   6.579   5.218
 3321TIP3    H1 9908   6.528   6.574   5.306
 3321TIP3    H2 9909   6.488   6.582   5.160
 3322TIP3   OH2 9910   8.079   1.156   2.022
 3322TIP3    H1 9911   8.051   1.246   2.033
 3322TIP3    H2 9912   7.998   1.106   2.016
 3323TIP3   OH2 9913   7.078   1.729   3.341
 3323TIP3    H1 9914   7.080   1.784   3.419
 3323TIP3    H2 9915   7.168   1.700   3.329
 3324TIP3   OH2 9916   1.549   4.421   2.128
 3324TIP3    H1 9917   1.463   4.432   2.168
 3324TIP3    H2 9918   1.534   4.362   2.054
 3325TIP3   OH2 9919   5.916   7.633   6.181
 3325TIP3    H1 9920   6.005   7.668   6.177
 3325TIP3    H2 9921   5.861   7.706   6.154
 3326TIP3   OH2 9922   4.318   3.080   3.036
 3326TIP3    H1 9923   4.335   3.173   3.020
 3326TIP3    H2 9924   4.327   3.071   3.131
 3327TIP3   OH2 9925   8.226   5.279   2.740
 3327TIP3    H1 9926   8.299   5.334   2.765
 3327TIP3    H2 9927   8.194   5.242   2.822
 3328TIP3   OH2 9928   5.521   7.641   0.493
 3328TIP3    H1 9929   5.459   7.630   0.564
 3328TIP3    H2 9930   5.573   7.718   0.518
 3329TIP3   OH2 9931   2.771   0.247   5.309
 3329TIP3    H1 9932   2.862   0.216   5.307
 3329TIP3    H2 9933   2.740   0.236   5.220
 3330TIP3   OH2 9934   7.329   3.606   2.746
 3330TIP3    H1 9935   7.383   3.536   2.710
 3330TIP3    H2 9936   7.279   3.564   2.815
 3331TIP3   OH2 9937   1.758   5.152   1.756
 3331TIP3    H1 9938   1.683   5.191   1.802
 3331TIP3    H2 9939   1.719   5.109   1.679
 3332TIP3   OH2 9940   2.039   2.561   5.615
 3332TIP3    H1 9941   1.998   2.646   5.633
 3332TIP3    H2 9942   2.062   2.528   5.702
 3333TIP3   OH2 9943   5.288   0.910   6.294
 3333TIP3    H1 9944   5.297   0.909   6.198
 3333TIP3    H2 9945   5.289   0.817   6.319
 3334TIP3   OH2 9946   4.371   4.634   3.155
 3334TIP3    H1 9947   4.432   4.562   3.139
 3334TIP3    H2 9948   4.336   4.654   3.068
 3335TIP3   OH2 9949   7.869   6.438   1.107
 3335TIP3    H1 9950   7.909   6.384   1.175
 3335TIP3    H2 9951   7.829   6.375   1.047
 3336TIP3   OH2 9952   2.752   6.786   1.788
 3336TIP3    H1 9953   2.724   6.819   1.873
 3336TIP3    H2 9954   2.740   6.860   1.728
 3337TIP3   OH2 9955   3.427   0.633   4.678
 3337TIP3    H1 9956   3.479   0.676   4.611
 3337TIP3    H2 9957   3.471   0.654   4.760
 3338TIP3   OH2 9958   4.718   2.734   2.916
 3338TIP3    H1 9959   4.731   2.685   2.997
 3338TIP3    H2 9960   4.626   2.758   2.917
 3339TIP3   OH2 9961   5.637   1.570   4.430
 3339TIP3    H1 9962   5.566   1.618   4.473
 3339TIP3    H2 9963   5.607   1.557   4.340
 3340TIP3   OH2 9964   2.575   6.151   4.161
 3340TIP3    H1 9965   2.486   6.126   4.137
 3340TIP3    H2 9966   2.614   6.183   4.079
 3341TIP3   OH2 9967   3.681   1.907   6.106
 3341TIP3    H1 9968   3.688   1.869   6.019
 3341TIP3    H2 9969   3.769   1.902   6.142
 3342TIP3   OH2 9970   3.139   4.151   1.358
 3342TIP3    H1 9971   3.114   4.227   1.306
 3342TIP3    H2 9972   3.107   4.170   1.446
 3343TIP3   OH2 9973   6.382   6.027   6.007
 3343TIP3    H1 9974   6.457   5.997   6.058
 3343TIP3    H2 9975   6.315   5.959   6.022
 3344TIP3   OH2 9976   1.829   7.732   2.879
 3344TIP3    H1 9977   1.765   7.695   2.941
 3344TIP3    H2 9978   1.785   7.808   2.842
 3345TIP3   OH2 9979   4.609   0.581   6.599
 3345TIP3    H1 9980   4.534   0.609   6.546
 3345TIP3    H2 9981   4.575   0.511   6.654
 3346TIP3   OH2 9982   4.705   5.730   5.206
 3346TIP3    H1 9983   4.630   5.765   5.254
 3346TIP3    H2 9984   4.766   5.803   5.200
 3347TIP3   OH2 9985   3.561   7.134   1.478
 3347TIP3    H1 9986   3.596   7.161   1.562
 3347TIP3    H2 9987   3.574   7.039   1.475
 3348TIP3   OH2 9988   3.454   3.083   3.404
 3348TIP3    H1 9989   3.425   3.058   3.492
 3348TIP3    H2 9990   3.509   3.160   3.417
 3349TIP3   OH2 9991   4.112   6.416   0.014
 3349TIP3    H1 9992   4.019   6.434   0.031
 3349TIP3    H2 9993   4.112   6.364  -0.067
 3350TIP3   OH2 9994   6.678   5.752   3.726
 3350TIP3    H1 9995   6.744   5.798   3.778
 3350TIP3    H2 9996   6.722   5.673   3.695
 3351TIP3   OH2 9997   6.720   7.652   5.424
 3351TIP3    H1 9998   6.625   7.660   5.413
 3351TIP3    H2 9999   6.733   7.645   5.518
 3352TIP3   OH210000   6.951   2.341   2.297
 3352TIP3    H110001   6.993   2.276   2.353
 3352TIP3    H210002   6.873   2.369   2.347
 3353TIP3   OH210003   6.303   4.023   5.165
 3353TIP3    H110004   6.349   4.074   5.098
 3353TIP3    H210005   6.215   4.009   5.129
 3354TIP3   OH210006   5.424   7.686   0.059
 3354TIP3    H110007   5.372   7.672   0.138
 3354TIP3    H210008   5.428   7.781   0.049
 3355TIP3   OH210009   3.579   4.533   5.587
 3355TIP3    H110010   3.610   4.623   5.598
 3355TIP3    H210011   3.581   4.519   5.492
 3356TIP3   OH210012   1.634   2.035   6.514
 3356TIP3    H110013   1.654   1.948   6.549
 3356TIP3    H210014   1.606   2.085   6.591
 3357TIP3   OH210015   7.434   2.857   2.129
 3357TIP3    H110016   7.450   2.879   2.037
 3357TIP3    H210017   7.345   2.820   2.129
 3358TIP3   OH210018   7.623   5.555   1.655
 3358TIP3    H110019   7.597   5.467   1.682
 3358TIP3    H210020   7.652   5.598   1.735
 3359TIP3   OH210021   2.517   6.255   4.881
 3359TIP3    H110022   2.584   6.191   4.857
 3359TIP3    H210023   2.565   6.335   4.900
 3360TIP3   OH210024   5.947   4.880   2.943
 3360TIP3    H110025   5.940   4.957   2.886
 3360TIP3    H210026   5.899   4.905   3.022
 3361TIP3   OH210027   2.445   0.359   2.364
 3361TIP3    H110028   2.516   0.330   2.422
 3361TIP3    H210029   2.452   0.302   2.287
 3362TIP3   OH210030   8.258   3.324   2.564
 3362TIP3    H110031   8.279   3.355   2.652
 3362TIP3    H210032   8.163   3.310   2.567
 3363TIP3   OH210033   4.569   3.217   2.318
 3363TIP3    H110034   4.585   3.227   2.224
 3363TIP3    H210035   4.583   3.124   2.335
 3364TIP3   OH210036   6.757   4.509   5.856
 3364TIP3    H110037   6.774   4.529   5.948
 3364TIP3    H210038   6.839   4.528   5.812
 3365TIP3   OH210039   0.500   7.777   5.083
 3365TIP3    H110040   0.411   7.812   5.074
 3365TIP3    H210041   0.546   7.808   5.005
 3366TIP3   OH210042   0.954   3.320   0.129
 3366TIP3    H110043   1.014   3.378   0.082
 3366TIP3    H210044   0.926   3.372   0.205
 3367TIP3   OH210045   2.640   5.227   1.989
 3367TIP3    H110046   2.623   5.232   2.083
 3367TIP3    H210047   2.566   5.177   1.954
 3368TIP3   OH210048   5.836   1.279   4.131
 3368TIP3    H110049   5.808   1.188   4.143
 3368TIP3    H210050   5.757   1.326   4.106
 3369TIP3   OH210051   6.755   4.933   3.655
 3369TIP3    H110052   6.810   5.008   3.679
 3369TIP3    H210053   6.808   4.883   3.593
 3370TIP3   OH210054   2.570   6.779   5.139
 3370TIP3    H110055   2.560   6.789   5.045
 3370TIP3    H210056   2.558   6.867   5.174
 3371TIP3   OH210057   2.916   3.935   2.180
 3371TIP3    H110058   2.833   3.924   2.134
 3371TIP3    H210059   2.898   3.908   2.270
 3372TIP3   OH210060   3.453   5.999   6.374
 3372TIP3    H110061   3.519   6.031   6.436
 3372TIP3    H210062   3.481   5.911   6.351
 3373TIP3   OH210063   5.239   3.906   1.636
 3373TIP3    H110064   5.332   3.925   1.650
 3373TIP3    H210065   5.233   3.877   1.545
 3374TIP3   OH210066   0.215   4.187   5.645
 3374TIP3    H110067   0.219   4.135   5.725
 3374TIP3    H210068   0.292   4.244   5.649
 3375TIP3   OH210069   6.166   3.130   5.001
 3375TIP3    H110070   6.135   3.050   5.045
 3375TIP3    H210071   6.241   3.158   5.053
 3376TIP3   OH210072   6.107   2.492   1.636
 3376TIP3    H110073   6.196   2.512   1.606
 3376TIP3    H210074   6.116   2.482   1.731
 3377TIP3   OH210075   2.317   0.861   4.041
 3377TIP3    H110076   2.353   0.775   4.064
 3377TIP3    H210077   2.360   0.921   4.102
 3378TIP3   OH210078   6.277   7.731   0.997
 3378TIP3    H110079   6.246   7.658   0.942
 3378TIP3    H210080   6.318   7.688   1.072
 3379TIP3   OH210081   2.070   0.481   5.973
 3379TIP3    H110082   2.068   0.556   5.913
 3379TIP3    H210083   2.099   0.518   6.057
 3380TIP3   OH210084   4.736   4.969   1.347
 3380TIP3    H110085   4.812   4.950   1.401
 3380TIP3    H210086   4.765   4.949   1.258
 3381TIP3   OH210087   3.158   5.677   1.546
 3381TIP3    H110088   3.199   5.652   1.629
 3381TIP3    H210089   3.064   5.671   1.563
 3382TIP3   OH210090   3.403   0.630   3.206
 3382TIP3    H110091   3.331   0.688   3.233
 3382TIP3    H210092   3.481   0.669   3.245
 3383TIP3   OH210093   6.875   0.572   6.731
 3383TIP3    H110094   6.826   0.490   6.739
 3383TIP3    H210095   6.811   0.635   6.699
 3384TIP3   OH210096   4.844   1.625   4.006
 3384TIP3    H110097   4.893   1.673   3.939
 3384TIP3    H210098   4.908   1.563   4.042
 3385TIP3   OH210099   3.246   7.627   3.759
 3385TIP3    H110100   3.268   7.627   3.852
 3385TIP3    H210101   3.165   7.576   3.754
 3386TIP3   OH210102   4.622   2.540   0.611
 3386TIP3    H110103   4.526   2.538   0.611
 3386TIP3    H210104   4.644   2.620   0.659
 3387TIP3   OH210105   7.980   6.567   0.660
 3387TIP3    H110106   8.064   6.585   0.701
 3387TIP3    H210107   7.980   6.473   0.646
 3388TIP3   OH210108   1.072   5.180   3.171
 3388TIP3    H110109   0.984   5.197   3.204
 3388TIP3    H210110   1.125   5.168   3.249
 3389TIP3   OH210111   3.358   5.164   4.325
 3389TIP3    H110112   3.317   5.136   4.243
 3389TIP3    H210113   3.293   5.144   4.392
 3390TIP3   OH210114   1.280   6.809   1.780
 3390TIP3    H110115   1.216   6.786   1.712
 3390TIP3    H210116   1.227   6.820   1.860
 3391TIP3   OH210117   0.299   3.617   6.058
 3391TIP3    H110118   0.265   3.567   6.132
 3391TIP3    H210119   0.319   3.551   5.991
 3392TIP3   OH210120   1.035   1.405   4.576
 3392TIP3    H110121   1.111   1.347   4.575
 3392TIP3    H210122   0.967   1.354   4.620
 3393TIP3   OH210123   4.646   6.101   0.193
 3393TIP3    H110124   4.591   6.057   0.259
 3393TIP3    H210125   4.588   6.165   0.152
 3394TIP3   OH210126   7.737   4.037   2.469
 3394TIP3    H110127   7.829   4.029   2.441
 3394TIP3    H210128   7.722   4.131   2.478
 3395TIP3   OH210129   2.474   6.199   1.033
 3395TIP3    H110130   2.439   6.198   1.122
 3395TIP3    H210131   2.441   6.118   0.993
 3396TIP3   OH210132   1.411   0.675   4.916
 3396TIP3    H110133   1.479   0.645   4.855
 3396TIP3    H210134   1.400   0.601   4.977
 3397TIP3   OH210135   0.499   6.143   1.530
 3397TIP3    H110136   0.484   6.049   1.530
 3397TIP3    H210137   0.411   6.181   1.537
 3398TIP3   OH210138   3.439   2.585   4.074
 3398TIP3    H110139   3.396   2.650   4.130
 3398TIP3    H210140   3.512   2.633   4.036
 3399TIP3   OH210141   1.540   6.200   2.508
 3399TIP3    H110142   1.612   6.261   2.522
 3399TIP3    H210143   1.563   6.123   2.561
 3400TIP3   OH210144   6.504   4.015   4.151
 3400TIP3    H110145   6.580   4.047   4.102
 3400TIP3    H210146   6.449   4.093   4.164
 3401TIP3   OH210147   3.517   1.411   0.336
 3401TIP3    H110148   3.596   1.418   0.389
 3401TIP3    H210149   3.537   1.341   0.273
 3402TIP3   OH210150   3.271   0.113   4.166
 3402TIP3    H110151   3.207   0.099   4.097
 3402TIP3    H210152   3.323   0.033   4.168
 3403TIP3   OH210153   2.922   0.510   5.661
 3403TIP3    H110154   2.858   0.459   5.612
 3403TIP3    H210155   2.876   0.590   5.686
 3404TIP3   OH210156   0.274   3.049   3.096
 3404TIP3    H110157   0.360   3.071   3.131
 3404TIP3    H210158   0.213   3.074   3.166
 3405TIP3   OH210159   7.981   5.507   2.692
 3405TIP3    H110160   7.973   5.567   2.766
 3405TIP3    H210161   8.055   5.450   2.716
 3406TIP3   OH210162   1.919   2.028   1.456
 3406TIP3    H110163   1.972   2.058   1.382
 3406TIP3    H210164   1.975   2.040   1.532
 3407TIP3   OH210165   1.284   4.768   6.062
 3407TIP3    H110166   1.298   4.818   5.982
 3407TIP3    H210167   1.369   4.727   6.081
 3408TIP3   OH210168   2.590   4.155   1.499
 3408TIP3    H110169   2.537   4.107   1.435
 3408TIP3    H210170   2.644   4.214   1.447
 3409TIP3   OH210171   4.853   1.216   6.566
 3409TIP3    H110172   4.908   1.142   6.541
 3409TIP3    H210173   4.766   1.179   6.577
 3410TIP3   OH210174   2.664   1.316   4.778
 3410TIP3    H110175   2.623   1.287   4.697
 3410TIP3    H210176   2.606   1.283   4.847
 3411TIP3   OH210177   6.917   6.275   1.756
 3411TIP3    H110178   6.924   6.300   1.848
 3411TIP3    H210179   6.829   6.239   1.747
 3412TIP3   OH210180   6.510   3.296   1.091
 3412TIP3    H110181   6.483   3.306   1.000
 3412TIP3    H210182   6.467   3.369   1.136
 3413TIP3   OH210183   3.911   6.964   6.215
 3413TIP3    H110184   3.921   6.881   6.261
 3413TIP3    H210185   3.840   6.950   6.154
 3414TIP3   OH210186   7.045   5.197   2.080
 3414TIP3    H110187   7.056   5.102   2.088
 3414TIP3    H210188   7.107   5.223   2.011
 3415TIP3   OH210189   0.003   4.369   2.440
 3415TIP3    H110190  -0.055   4.429   2.393
 3415TIP3    H210191  -0.039   4.357   2.525
 3416TIP3   OH210192   8.303   1.488   3.966
 3416TIP3    H110193   8.212   1.487   3.996
 3416TIP3    H210194   8.314   1.405   3.919
 3417TIP3   OH210195   4.762   5.296   5.331
 3417TIP3    H110196   4.797   5.208   5.330
 3417TIP3    H210197   4.691   5.293   5.395
 3418TIP3   OH210198   0.424   2.583   2.481
 3418TIP3    H110199   0.430   2.495   2.445
 3418TIP3    H210200   0.458   2.575   2.571
 3419TIP3   OH210201   7.993   0.895   5.766
 3419TIP3    H110202   7.965   0.812   5.804
 3419TIP3    H210203   8.074   0.917   5.813
 3420TIP3   OH210204   2.685   4.349   6.448
 3420TIP3    H110205   2.659   4.360   6.539
 3420TIP3    H210206   2.609   4.377   6.397
 3421TIP3   OH210207   7.805   1.268   1.711
 3421TIP3    H110208   7.887   1.255   1.663
 3421TIP3    H210209   7.753   1.190   1.691
 3422TIP3   OH210210   6.336   1.107   4.733
 3422TIP3    H110211   6.344   1.159   4.813
 3422TIP3    H210212   6.411   1.134   4.679
 3423TIP3   OH210213   3.108   3.709   6.436
 3423TIP3    H110214   3.019   3.710   6.400
 3423TIP3    H210215   3.136   3.617   6.428
 3424TIP3   OH210216   7.582   1.592   5.977
 3424TIP3    H110217   7.591   1.528   6.048
 3424TIP3    H210218   7.658   1.576   5.922
 3425TIP3   OH210219   1.746   3.326   1.599
 3425TIP3    H110220   1.684   3.339   1.527
 3425TIP3    H210221   1.739   3.233   1.620
 3426TIP3   OH210222   6.047   1.506   0.499
 3426TIP3    H110223   6.140   1.524   0.485
 3426TIP3    H210224   6.010   1.506   0.411
 3427TIP3   OH210225   2.919   7.082   3.061
 3427TIP3    H110226   3.001   7.104   3.104
 3427TIP3    H210227   2.888   7.165   3.025
 3428TIP3   OH210228   6.921   0.450   1.414
 3428TIP3    H110229   6.985   0.519   1.395
 3428TIP3    H210230   6.900   0.413   1.328
 3429TIP3   OH210231   2.828   0.049   4.414
 3429TIP3    H110232   2.913   0.053   4.369
 3429TIP3    H210233   2.776  -0.011   4.362
 3430TIP3   OH210234   2.848   2.704   4.935
 3430TIP3    H110235   2.814   2.731   5.020
 3430TIP3    H210236   2.778   2.727   4.873
 3431TIP3   OH210237   3.541   7.465   1.571
 3431TIP3    H110238   3.489   7.528   1.622
 3431TIP3    H210239   3.567   7.399   1.635
 3432TIP3   OH210240   0.882   4.810   4.681
 3432TIP3    H110241   0.951   4.781   4.621
 3432TIP3    H210242   0.850   4.891   4.644
 3433TIP3   OH210243   2.648   7.145   6.253
 3433TIP3    H110244   2.730   7.194   6.252
 3433TIP3    H210245   2.608   7.163   6.168
 3434TIP3   OH210246   0.340   4.782   5.774
 3434TIP3    H110247   0.340   4.869   5.736
 3434TIP3    H210248   0.307   4.795   5.863
 3435TIP3   OH210249   4.571   3.610   5.219
 3435TIP3    H110250   4.529   3.619   5.133
 3435TIP3    H210251   4.647   3.555   5.202
 3436TIP3   OH210252   2.974   3.424   0.218
 3436TIP3    H110253   3.039   3.361   0.186
 3436TIP3    H210254   2.989   3.429   0.312
 3437TIP3   OH210255   6.305   6.589   4.250
 3437TIP3    H110256   6.248   6.649   4.298
 3437TIP3    H210257   6.245   6.525   4.212
 3438TIP3   OH210258   7.406   1.149   5.820
 3438TIP3    H110259   7.459   1.225   5.796
 3438TIP3    H210260   7.332   1.185   5.868
 3439TIP3   OH210261   7.419   1.618   5.636
 3439TIP3    H110262   7.434   1.526   5.618
 3439TIP3    H210263   7.346   1.642   5.578
 3440TIP3   OH210264   6.792   4.995   5.964
 3440TIP3    H110265   6.872   4.943   5.958
 3440TIP3    H210266   6.815   5.067   6.022
 3441TIP3   OH210267   5.710   4.859   0.284
 3441TIP3    H110268   5.660   4.941   0.275
 3441TIP3    H210269   5.642   4.791   0.287
 3442TIP3   OH210270   1.320   6.406   1.720
 3442TIP3    H110271   1.409   6.437   1.736
 3442TIP3    H210272   1.265   6.463   1.774
 3443TIP3   OH210273   3.557   1.196   0.169
 3443TIP3    H110274   3.485   1.190   0.106
 3443TIP3    H210275   3.612   1.120   0.149
 3444TIP3   OH210276   6.452   6.585   0.502
 3444TIP3    H110277   6.380   6.523   0.509
 3444TIP3    H210278   6.412   6.666   0.471
 3445TIP3   OH210279   0.766   6.462   5.109
 3445TIP3    H110280   0.726   6.523   5.172
 3445TIP3    H210281   0.860   6.467   5.127
 3446TIP3   OH210282   6.805   3.852   0.559
 3446TIP3    H110283   6.887   3.814   0.529
 3446TIP3    H210284   6.832   3.924   0.616
 3447TIP3   OH210285   7.199   6.203   4.830
 3447TIP3    H110286   7.228   6.152   4.905
 3447TIP3    H210287   7.279   6.215   4.778
 3448TIP3   OH210288   5.163   2.344   4.938
 3448TIP3    H110289   5.224   2.336   4.865
 3448TIP3    H210290   5.151   2.254   4.968
 3449TIP3   OH210291   4.282   5.820   0.857
 3449TIP3    H110292   4.282   5.725   0.870
 3449TIP3    H210293   4.324   5.855   0.936
 3450TIP3   OH210294   0.747   7.759   6.516
 3450TIP3    H110295   0.825   7.707   6.535
 3450TIP3    H210296   0.736   7.752   6.421
 3451TIP3   OH210297   3.215   0.582   2.002
 3451TIP3    H110298   3.132   0.536   2.013
 3451TIP3    H210299   3.191   0.674   1.993
 3452TIP3   OH210300   4.921   1.945   2.388
 3452TIP3    H110301   4.924   1.869   2.330
 3452TIP3    H210302   4.957   2.017   2.335
 3453TIP3   OH210303   3.400   3.513   0.374
 3453TIP3    H110304   3.429   3.533   0.463
 3453TIP3    H210305   3.317   3.468   0.385
 3454TIP3   OH210306   5.873   7.355   6.156
 3454TIP3    H110307   5.782   7.324   6.146
 3454TIP3    H210308   5.867   7.450   6.151
 3455TIP3   OH210309   6.931   6.276   1.043
 3455TIP3    H110310   6.846   6.269   1.087
 3455TIP3    H210311   6.964   6.362   1.068
 3456TIP3   OH210312   0.944   4.356   4.863
 3456TIP3    H110313   0.914   4.316   4.945
 3456TIP3    H210314   0.965   4.281   4.807
 3457TIP3   OH210315   0.639   5.606   5.233
 3457TIP3    H110316   0.688   5.585   5.154
 3457TIP3    H210317   0.566   5.661   5.204
 3458TIP3   OH210318   4.891   3.915   1.768
 3458TIP3    H110319   4.801   3.891   1.748
 3458TIP3    H210320   4.926   3.949   1.686
 3459TIP3   OH210321   6.891   6.022   0.128
 3459TIP3    H110322   6.962   6.076   0.096
 3459TIP3    H210323   6.854   6.071   0.201
 3460TIP3   OH210324   1.977   6.503   4.943
 3460TIP3    H110325   1.936   6.418   4.957
 3460TIP3    H210326   1.974   6.516   4.848
 3461TIP3   OH210327   7.818   4.794  -0.015
 3461TIP3    H110328   7.898   4.779   0.035
 3461TIP3    H210329   7.752   4.817   0.051
 3462TIP3   OH210330   7.342   7.092   4.842
 3462TIP3    H110331   7.314   7.183   4.853
 3462TIP3    H210332   7.260   7.043   4.835
 3463TIP3   OH210333   7.157   1.226   6.432
 3463TIP3    H110334   7.174   1.242   6.340
 3463TIP3    H210335   7.062   1.212   6.437
 3464TIP3   OH210336   3.696   1.291   3.192
 3464TIP3    H110337   3.765   1.225   3.194
 3464TIP3    H210338   3.725   1.353   3.125
 3465TIP3   OH210339   3.967   1.799   2.624
 3465TIP3    H110340   4.038   1.739   2.604
 3465TIP3    H210341   4.005   1.860   2.688
 3466TIP3   OH210342   2.303   5.922   2.036
 3466TIP3    H110343   2.284   5.831   2.011
 3466TIP3    H210344   2.228   5.972   2.004
 3467TIP3   OH210345   6.787   2.722   0.745
 3467TIP3    H110346   6.778   2.679   0.830
 3467TIP3    H210347   6.875   2.759   0.746
 3468TIP3   OH210348   0.446   5.204   6.221
 3468TIP3    H110349   0.407   5.241   6.301
 3468TIP3    H210350   0.470   5.115   6.245
 3469TIP3   OH210351   1.313   0.598   1.593
 3469TIP3    H110352   1.223   0.598   1.562
 3469TIP3    H210353   1.340   0.506   1.588
 3470TIP3   OH210354   6.765   6.610   5.489
 3470TIP3    H110355   6.844   6.600   5.437
 3470TIP3    H210356   6.794   6.656   5.568
 3471TIP3   OH210357   5.596   6.901   4.141
 3471TIP3    H110358   5.508   6.924   4.170
 3471TIP3    H210359   5.632   6.848   4.213
 3472TIP3   OH210360   2.703   7.661   0.690
 3472TIP3    H110361   2.793   7.640   0.715
 3472TIP3    H210362   2.655   7.664   0.773
 3473TIP3   OH210363   6.534   5.121   4.989
 3473TIP3    H110364   6.497   5.037   5.018
 3473TIP3    H210365   6.472   5.187   5.020
 3474TIP3   OH210366   3.416   6.246   3.939
 3474TIP3    H110367   3.461   6.243   3.854
 3474TIP3    H210368   3.329   6.210   3.921
 3475TIP3   OH210369   2.882   6.889   2.280
 3475TIP3    H110370   2.826   6.966   2.286
 3475TIP3    H210371   2.958   6.919   2.229
 3476TIP3   OH210372   6.156   4.576   5.482
 3476TIP3    H110373   6.072   4.533   5.501
 3476TIP3    H210374   6.220   4.526   5.532
 3477TIP3   OH210375   2.816   0.540   1.090
 3477TIP3    H110376   2.754   0.594   1.140
 3477TIP3    H210377   2.868   0.604   1.040
 3478TIP3   OH210378   1.061   2.228   1.473
 3478TIP3    H110379   1.064   2.199   1.564
 3478TIP3    H210380   0.985   2.183   1.436
 3479TIP3   OH210381   2.357   5.060   1.089
 3479TIP3    H110382   2.438   5.088   1.132
 3479TIP3    H210383   2.303   5.139   1.084
 3480TIP3   OH210384   1.275   2.790   3.532
 3480TIP3    H110385   1.297   2.779   3.625
 3480TIP3    H210386   1.345   2.844   3.497
 3481TIP3   OH210387   1.121   1.364   1.895
 3481TIP3    H110388   1.054   1.306   1.859
 3481TIP3    H210389   1.157   1.316   1.969
 3482TIP3   OH210390   6.306   1.437   5.613
 3482TIP3    H110391   6.388   1.416   5.569
 3482TIP3    H210392   6.317   1.529   5.639
 3483TIP3   OH210393   1.147   5.033   0.530
 3483TIP3    H110394   1.137   4.949   0.575
 3483TIP3    H210395   1.057   5.063   0.514
 3484TIP3   OH210396   3.118   6.671   2.109
 3484TIP3    H110397   3.192   6.708   2.157
 3484TIP3    H210398   3.051   6.656   2.177
 3485TIP3   OH210399   5.986   1.559   6.521
 3485TIP3    H110400   6.011   1.594   6.435
 3485TIP3    H210401   5.890   1.555   6.518
 3486TIP3   OH210402   5.154   7.054   6.141
 3486TIP3    H110403   5.065   7.052   6.106
 3486TIP3    H210404   5.152   7.122   6.208
 3487TIP3   OH210405   4.507   1.776   3.812
 3487TIP3    H110406   4.572   1.725   3.763
 3487TIP3    H210407   4.555   1.809   3.888
 3488TIP3   OH210408   3.355   0.199   6.361
 3488TIP3    H110409   3.413   0.123   6.352
 3488TIP3    H210410   3.269   0.161   6.380
 3489TIP3   OH210411   1.231   7.657   5.155
 3489TIP3    H110412   1.280   7.738   5.167
 3489TIP3    H210413   1.265   7.598   5.222
 3490TIP3   OH210414   6.919   5.357   0.060
 3490TIP3    H110415   6.855   5.305   0.010
 3490TIP3    H210416   6.992   5.297   0.075
 3491TIP3   OH210417   6.767   5.088   3.307
 3491TIP3    H110418   6.835   5.032   3.345
 3491TIP3    H210419   6.724   5.033   3.242
 3492TIP3   OH210420   0.021   6.865   5.134
 3492TIP3    H110421   0.006   6.937   5.074
 3492TIP3    H210422   0.061   6.905   5.211
 3493TIP3   OH210423   1.759   5.476   2.621
 3493TIP3    H110424   1.685   5.533   2.643
 3493TIP3    H210425   1.792   5.445   2.705
 3494TIP3   OH210426   4.724   0.416   4.042
 3494TIP3    H110427   4.791   0.484   4.047
 3494TIP3    H210428   4.712   0.387   4.132
 3495TIP3   OH210429   6.517   5.617   3.916
 3495TIP3    H110430   6.531   5.668   3.836
 3495TIP3    H210431   6.423   5.619   3.931
 3496TIP3   OH210432   1.426   0.851   1.843
 3496TIP3    H110433   1.457   0.762   1.826
 3496TIP3    H210434   1.405   0.885   1.756
 3497TIP3   OH210435   6.145   0.447   2.450
 3497TIP3    H110436   6.128   0.430   2.542
 3497TIP3    H210437   6.077   0.399   2.403
 3498TIP3   OH210438   3.702   5.659   2.523
 3498TIP3    H110439   3.750   5.614   2.593
 3498TIP3    H210440   3.628   5.602   2.504
 3499TIP3   OH210441   2.034   2.603   0.502
 3499TIP3    H110442   1.993   2.684   0.472
 3499TIP3    H210443   2.053   2.555   0.421
 3500TIP3   OH210444   7.852   5.975   0.244
 3500TIP3    H110445   7.796   6.045   0.210
 3500TIP3    H210446   7.808   5.944   0.323
 3501TIP3   OH210447   6.344   1.946   1.661
 3501TIP3    H110448   6.311   1.874   1.608
 3501TIP3    H210449   6.293   2.022   1.632
 3502TIP3   OH210450   7.409   2.828   0.354
 3502TIP3    H110451   7.427   2.889   0.282
 3502TIP3    H210452   7.375   2.750   0.311
 3503TIP3   OH210453   4.356   7.734   0.872
 3503TIP3    H110454   4.358   7.780   0.787
 3503TIP3    H210455   4.275   7.684   0.870
 3504TIP3   OH210456   3.402   6.452   1.783
 3504TIP3    H110457   3.455   6.387   1.738
 3504TIP3    H210458   3.461   6.490   1.849
 3505TIP3   OH210459   6.536   6.695   2.354
 3505TIP3    H110460   6.531   6.790   2.365
 3505TIP3    H210461   6.610   6.668   2.410
 3506TIP3   OH210462   0.152   3.736   0.501
 3506TIP3    H110463   0.210   3.727   0.426
 3506TIP3    H210464   0.073   3.687   0.477
 3507TIP3   OH210465   7.587   6.630   5.001
 3507TIP3    H110466   7.613   6.541   5.023
 3507TIP3    H210467   7.646   6.685   5.052
 3508TIP3   OH210468   2.985   7.752   2.356
 3508TIP3    H110469   3.057   7.776   2.297
 3508TIP3    H210470   2.919   7.714   2.299
 3509TIP3   OH210471   0.657   6.812   2.956
 3509TIP3    H110472   0.749   6.787   2.949
 3509TIP3    H210473   0.609   6.729   2.950
 3510TIP3   OH210474   3.464   3.349   2.774
 3510TIP3    H110475   3.465   3.322   2.866
 3510TIP3    H210476   3.410   3.427   2.773
 3511TIP3   OH210477   0.596   6.911   0.514
 3511TIP3    H110478   0.642   6.851   0.455
 3511TIP3    H210479   0.579   6.859   0.593
 3512TIP3   OH210480   0.348   5.055   3.792
 3512TIP3    H110481   0.426   5.024   3.839
 3512TIP3    H210482   0.341   5.148   3.816
 3513TIP3   OH210483   8.039   6.078   4.709
 3513TIP3    H110484   8.070   5.993   4.741
 3513TIP3    H210485   7.956   6.091   4.754
 3514TIP3   OH210486   7.895   2.536   3.895
 3514TIP3    H110487   7.832   2.498   3.833
 3514TIP3    H210488   7.877   2.491   3.978
 3515TIP3   OH210489   5.263   3.419   5.293
 3515TIP3    H110490   5.355   3.444   5.286
 3515TIP3    H210491   5.255   3.385   5.382
 3516TIP3   OH210492   4.071   5.351   0.979
 3516TIP3    H110493   3.997   5.295   0.959
 3516TIP3    H210494   4.045   5.398   1.058
 3517TIP3   OH210495   5.249   4.653   0.571
 3517TIP3    H110496   5.332   4.649   0.619
 3517TIP3    H210497   5.271   4.697   0.489
 3518TIP3   OH210498   7.079   1.514   5.091
 3518TIP3    H110499   7.053   1.578   5.024
 3518TIP3    H210500   7.135   1.564   5.150
 3519TIP3   OH210501   1.510   0.210   6.377
 3519TIP3    H110502   1.471   0.243   6.458
 3519TIP3    H210503   1.574   0.145   6.405
 3520TIP3   OH210504   2.504   7.317   3.745
 3520TIP3    H110505   2.571   7.253   3.720
 3520TIP3    H210506   2.544   7.402   3.725
 3521TIP3   OH210507   3.951   7.299   2.106
 3521TIP3    H110508   3.928   7.228   2.166
 3521TIP3    H210509   4.044   7.285   2.087
 3522TIP3   OH210510   6.396   7.605   4.475
 3522TIP3    H110511   6.438   7.668   4.535
 3522TIP3    H210512   6.404   7.521   4.519
 3523TIP3   OH210513   6.885   1.158   6.371
 3523TIP3    H110514   6.859   1.082   6.318
 3523TIP3    H210515   6.802   1.199   6.396
 3524TIP3   OH210516   3.057   4.714   3.817
 3524TIP3    H110517   3.150   4.705   3.798
 3524TIP3    H210518   3.030   4.626   3.845
 3525TIP3   OH210519   1.555   2.007   0.312
 3525TIP3    H110520   1.569   1.912   0.320
 3525TIP3    H210521   1.637   2.046   0.344
 3526TIP3   OH210522   3.493   0.097   3.007
 3526TIP3    H110523   3.427   0.135   2.948
 3526TIP3    H210524   3.511   0.010   2.970
 3527TIP3   OH210525   3.170   7.793   4.518
 3527TIP3    H110526   3.174   7.846   4.598
 3527TIP3    H210527   3.262   7.779   4.494
 3528TIP3   OH210528   1.772   2.785   1.467
 3528TIP3    H110529   1.764   2.749   1.555
 3528TIP3    H210530   1.726   2.869   1.471
 3529TIP3   OH210531   7.748   7.418   6.380
 3529TIP3    H110532   7.831   7.398   6.423
 3529TIP3    H210533   7.687   7.431   6.453
 3530TIP3   OH210534   3.910   3.831   5.137
 3530TIP3    H110535   3.938   3.913   5.097
 3530TIP3    H210536   3.991   3.784   5.155
 3531TIP3   OH210537   3.892   6.776   1.533
 3531TIP3    H110538   3.834   6.795   1.459
 3531TIP3    H210539   3.980   6.786   1.498
 3532TIP3   OH210540   5.866   5.955   2.119
 3532TIP3    H110541   5.929   5.993   2.057
 3532TIP3    H210542   5.913   5.949   2.201
 3533TIP3   OH210543   7.002   6.659   2.013
 3533TIP3    H110544   7.095   6.663   1.994
 3533TIP3    H210545   6.975   6.571   1.986
 3534TIP3   OH210546   5.053   5.674   6.467
 3534TIP3    H110547   4.982   5.686   6.403
 3534TIP3    H210548   5.067   5.579   6.468
 3535TIP3   OH210549   2.238   1.089   0.471
 3535TIP3    H110550   2.313   1.110   0.526
 3535TIP3    H210551   2.261   1.005   0.431
 3536TIP3   OH210552   3.023   3.691   0.149
 3536TIP3    H110553   2.999   3.599   0.141
 3536TIP3    H210554   3.107   3.698   0.104
 3537TIP3   OH210555   0.857   2.550   2.298
 3537TIP3    H110556   0.769   2.578   2.274
 3537TIP3    H210557   0.844   2.481   2.363
 3538TIP3   OH210558   6.136   7.239   6.065
 3538TIP3    H110559   6.106   7.274   5.981
 3538TIP3    H210560   6.058   7.238   6.120
 3539TIP3   OH210561   6.740   4.368   1.465
 3539TIP3    H110562   6.827   4.348   1.430
 3539TIP3    H210563   6.749   4.456   1.501
 3540TIP3   OH210564   3.775   5.093   2.334
 3540TIP3    H110565   3.866   5.063   2.340
 3540TIP3    H210566   3.766   5.120   2.243
 3541TIP3   OH210567   5.506   1.020   5.134
 3541TIP3    H110568   5.441   0.950   5.140
 3541TIP3    H210569   5.483   1.068   5.054
 3542TIP3   OH210570   7.831   2.294   1.912
 3542TIP3    H110571   7.859   2.385   1.921
 3542TIP3    H210572   7.912   2.244   1.903
 3543TIP3   OH210573   4.085   0.854   1.687
 3543TIP3    H110574   4.113   0.865   1.596
 3543TIP3    H210575   4.019   0.785   1.683
 3544TIP3   OH210576   6.696   3.745   4.102
 3544TIP3    H110577   6.766   3.781   4.048
 3544TIP3    H210578   6.624   3.807   4.092
 3545TIP3   OH210579   0.817   3.669   5.815
 3545TIP3    H110580   0.765   3.600   5.855
 3545TIP3    H210581   0.835   3.730   5.887
 3546TIP3   OH210582   4.206   5.377   1.479
 3546TIP3    H110583   4.267   5.417   1.542
 3546TIP3    H210584   4.242   5.290   1.463
 3547TIP3   OH210585   5.885   4.639   3.132
 3547TIP3    H110586   5.820   4.654   3.201
 3547TIP3    H210587   5.903   4.545   3.135
 3548TIP3   OH210588   0.118   2.006   4.380
 3548TIP3    H110589   0.090   1.920   4.409
 3548TIP3    H210590   0.204   2.019   4.422
 3549TIP3   OH210591   7.069   5.695   2.717
 3549TIP3    H110592   7.018   5.762   2.762
 3549TIP3    H210593   7.073   5.622   2.779
 3550TIP3   OH210594   4.056   4.998   6.564
 3550TIP3    H110595   4.095   5.049   6.635
 3550TIP3    H210596   3.994   5.058   6.522
 3551TIP3   OH210597   5.959   1.765   5.735
 3551TIP3    H110598   5.945   1.831   5.667
 3551TIP3    H210599   5.895   1.696   5.714
 3552TIP3   OH210600   4.652   0.647   2.010
 3552TIP3    H110601   4.632   0.617   1.921
 3552TIP3    H210602   4.747   0.643   2.015
 3553TIP3   OH210603   5.790   5.534   1.567
 3553TIP3    H110604   5.790   5.453   1.618
 3553TIP3    H210605   5.741   5.596   1.621
 3554TIP3   OH210606   5.824   6.229   4.348
 3554TIP3    H110607   5.732   6.203   4.346
 3554TIP3    H210608   5.864   6.178   4.277
 3555TIP3   OH210609   6.155   3.077   6.477
 3555TIP3    H110610   6.144   3.006   6.540
 3555TIP3    H210611   6.074   3.127   6.484
 3556TIP3   OH210612   7.694   1.275   3.217
 3556TIP3    H110613   7.736   1.232   3.142
 3556TIP3    H210614   7.707   1.368   3.202
 3557TIP3   OH210615   2.674   4.515   0.940
 3557TIP3    H110616   2.620   4.511   1.019
 3557TIP3    H210617   2.751   4.565   0.966
 3558TIP3   OH210618   1.213   6.300   5.540
 3558TIP3    H110619   1.303   6.323   5.563
 3558TIP3    H210620   1.161   6.325   5.616
 3559TIP3   OH210621   5.220   5.877   5.122
 3559TIP3    H110622   5.312   5.865   5.148
 3559TIP3    H210623   5.221   5.871   5.027
 3560TIP3   OH210624   7.820   7.677   5.269
 3560TIP3    H110625   7.845   7.738   5.339
 3560TIP3    H210626   7.776   7.605   5.314
 3561TIP3   OH210627   0.724   1.667   2.948
 3561TIP3    H110628   0.715   1.599   2.881
 3561TIP3    H210629   0.639   1.710   2.949
 3562TIP3   OH210630   2.878   7.248   0.629
 3562TIP3    H110631   2.963   7.278   0.596
 3562TIP3    H210632   2.833   7.329   0.656
 3563TIP3   OH210633   1.385   6.400   2.310
 3563TIP3    H110634   1.398   6.478   2.365
 3563TIP3    H210635   1.459   6.343   2.332
 3564TIP3   OH210636   5.549   5.029   2.110
 3564TIP3    H110637   5.470   5.061   2.153
 3564TIP3    H210638   5.548   4.934   2.125
 3565TIP3   OH210639   0.943   6.298   4.302
 3565TIP3    H110640   0.858   6.257   4.293
 3565TIP3    H210641   0.945   6.331   4.392
 3566TIP3   OH210642   7.063   4.736   3.762
 3566TIP3    H110643   7.055   4.798   3.690
 3566TIP3    H210644   7.150   4.753   3.799
 3567TIP3   OH210645   7.342   6.237   5.838
 3567TIP3    H110646   7.270   6.258   5.778
 3567TIP3    H210647   7.353   6.142   5.829
 3568TIP3   OH210648   0.713   0.059   1.852
 3568TIP3    H110649   0.696   0.130   1.790
 3568TIP3    H210650   0.670   0.085   1.932
 3569TIP3   OH210651   4.391   6.755   5.105
 3569TIP3    H110652   4.363   6.680   5.158
 3569TIP3    H210653   4.310   6.792   5.071
 3570TIP3   OH210654   7.000   3.104   3.474
 3570TIP3    H110655   6.955   3.070   3.552
 3570TIP3    H210656   7.093   3.101   3.498
 3571TIP3   OH210657   0.229   1.390   5.154
 3571TIP3    H110658   0.257   1.374   5.064
 3571TIP3    H210659   0.290   1.340   5.208
 3572TIP3   OH210660   2.065   6.730   1.201
 3572TIP3    H110661   2.037   6.812   1.158
 3572TIP3    H210662   1.983   6.688   1.226
 3573TIP3   OH210663   1.500   7.473   4.420
 3573TIP3    H110664   1.440   7.544   4.442
 3573TIP3    H210665   1.500   7.416   4.497
 3574TIP3   OH210666   2.905   3.627   5.086
 3574TIP3    H110667   2.870   3.705   5.130
 3574TIP3    H210668   2.944   3.575   5.156
 3575TIP3   OH210669   4.150   2.699   6.469
 3575TIP3    H110670   4.117   2.769   6.414
 3575TIP3    H210671   4.240   2.685   6.439
 3576TIP3   OH210672   4.964   1.088   6.229
 3576TIP3    H110673   4.945   1.051   6.315
 3576TIP3    H210674   4.914   1.170   6.227
 3577TIP3   OH210675   6.635   4.771   6.015
 3577TIP3    H110676   6.700   4.841   6.014
 3577TIP3    H210677   6.608   4.761   5.924
 3578TIP3   OH210678   5.771   0.422   1.861
 3578TIP3    H110679   5.712   0.452   1.931
 3578TIP3    H210680   5.755   0.484   1.789
 3579TIP3   OH210681   6.232   5.992   4.762
 3579TIP3    H110682   6.318   6.011   4.725
 3579TIP3    H210683   6.250   5.970   4.853
 3580TIP3   OH210684   6.848   0.971   0.767
 3580TIP3    H110685   6.778   1.036   0.778
 3580TIP3    H210686   6.924   1.022   0.738
 3581TIP3   OH210687   6.553   2.444   4.778
 3581TIP3    H110688   6.488   2.445   4.848
 3581TIP3    H210689   6.575   2.352   4.767
 3582TIP3   OH210690   0.658   3.129   2.683
 3582TIP3    H110691   0.686   3.207   2.634
 3582TIP3    H210692   0.733   3.070   2.678
 3583TIP3   OH210693   7.773   0.812   2.738
 3583TIP3    H110694   7.721   0.891   2.748
 3583TIP3    H210695   7.791   0.784   2.827
 3584TIP3   OH210696   5.038   5.724   4.034
 3584TIP3    H110697   4.966   5.722   4.097
 3584TIP3    H210698   5.085   5.642   4.049
 3585TIP3   OH210699   6.300   2.894   4.214
 3585TIP3    H110700   6.265   2.826   4.272
 3585TIP3    H210701   6.395   2.883   4.220
 3586TIP3   OH210702   2.350   4.409   3.553
 3586TIP3    H110703   2.378   4.499   3.534
 3586TIP3    H210704   2.425   4.370   3.599
 3587TIP3   OH210705   0.985   4.003   3.468
 3587TIP3    H110706   0.991   4.078   3.409
 3587TIP3    H210707   1.073   3.991   3.503
 3588TIP3   OH210708   2.670   3.968   4.988
 3588TIP3    H110709   2.576   3.987   4.980
 3588TIP3    H210710   2.673   3.881   5.028
 3589TIP3   OH210711   8.130   0.002   2.058
 3589TIP3    H110712   8.091  -0.025   2.141
 3589TIP3    H210713   8.095   0.089   2.042
 3590TIP3   OH210714   0.971   6.332   4.576
 3590TIP3    H110715   1.042   6.329   4.640
 3590TIP3    H210716   0.921   6.252   4.593
 3591TIP3   OH210717   6.899   6.299   4.332
 3591TIP3    H110718   6.942   6.283   4.248
 3591TIP3    H210719   6.833   6.366   4.314
 3592TIP3   OH210720   2.749   2.913   5.152
 3592TIP3    H110721   2.792   2.970   5.087
 3592TIP3    H210722   2.802   2.924   5.231
 3593TIP3   OH210723   7.433   4.418   4.248
 3593TIP3    H110724   7.448   4.425   4.343
 3593TIP3    H210725   7.501   4.473   4.209
 3594TIP3   OH210726   6.163   7.003   4.750
 3594TIP3    H110727   6.163   6.937   4.819
 3594TIP3    H210728   6.189   7.084   4.794
 3595TIP3   OH210729   6.538   0.715   2.621
 3595TIP3    H110730   6.497   0.668   2.548
 3595TIP3    H210731   6.489   0.687   2.698
 3596TIP3   OH210732   6.288   1.651   6.621
 3596TIP3    H110733   6.255   1.567   6.589
 3596TIP3    H210734   6.246   1.716   6.565
 3597TIP3   OH210735   6.292   4.173   0.653
 3597TIP3    H110736   6.326   4.218   0.730
 3597TIP3    H210737   6.369   4.138   0.609
 3598TIP3   OH210738   3.782   5.537   5.539
 3598TIP3    H110739   3.855   5.485   5.573
 3598TIP3    H210740   3.811   5.565   5.452
 3599TIP3   OH210741   0.037   6.677   2.603
 3599TIP3    H110742   0.086   6.602   2.636
 3599TIP3    H210743   0.096   6.719   2.541
 3600TIP3   OH210744   0.723   0.822   6.448
 3600TIP3    H110745   0.659   0.751   6.438
 3600TIP3    H210746   0.716   0.872   6.367
 3601TIP3   OH210747   5.152   7.791   0.719
 3601TIP3    H110748   5.219   7.858   0.715
 3601TIP3    H210749   5.074   7.832   0.681
 3602TIP3   OH210750   4.274   6.867   5.412
 3602TIP3    H110751   4.330   6.795   5.384
 3602TIP3    H210752   4.213   6.880   5.339
 3603TIP3   OH210753   4.733   3.200   4.355
 3603TIP3    H110754   4.659   3.140   4.368
 3603TIP3    H210755   4.781   3.164   4.280
 3604TIP3   OH210756   0.503   5.471   6.700
 3604TIP3    H110757   0.524   5.536   6.633
 3604TIP3    H210758   0.490   5.521   6.780
 3605TIP3   OH210759   5.962   7.233   4.136
 3605TIP3    H110760   5.973   7.197   4.224
 3605TIP3    H210761   5.868   7.247   4.127
 3606TIP3   OH210762   5.878   4.122   4.829
 3606TIP3    H110763   5.798   4.174   4.830
 3606TIP3    H210764   5.849   4.032   4.824
 3607TIP3   OH210765   1.894   1.666   3.251
 3607TIP3    H110766   1.804   1.668   3.218
 3607TIP3    H210767   1.885   1.643   3.343
 3608TIP3   OH210768   1.035   0.437   0.228
 3608TIP3    H110769   1.123   0.460   0.199
 3608TIP3    H210770   1.008   0.368   0.167
 3609TIP3   OH210771   7.531   6.495   1.036
 3609TIP3    H110772   7.441   6.512   1.006
 3609TIP3    H210773   7.575   6.579   1.028
 3610TIP3   OH210774   5.440   6.743   2.826
 3610TIP3    H110775   5.444   6.821   2.771
 3610TIP3    H210776   5.469   6.672   2.769
 3611TIP3   OH210777   1.122   3.243   5.884
 3611TIP3    H110778   1.030   3.232   5.906
 3611TIP3    H210779   1.137   3.337   5.889
 3612TIP3   OH210780   4.539   2.933   5.022
 3612TIP3    H110781   4.522   2.899   5.110
 3612TIP3    H210782   4.482   3.010   5.015
 3613TIP3   OH210783   1.633   3.981   3.903
 3613TIP3    H110784   1.705   4.043   3.898
 3613TIP3    H210785   1.652   3.916   3.835
 3614TIP3   OH210786   3.097   5.377   4.785
 3614TIP3    H110787   3.012   5.335   4.795
 3614TIP3    H210788   3.122   5.361   4.694
 3615TIP3   OH210789   5.564   2.524   1.591
 3615TIP3    H110790   5.588   2.432   1.580
 3615TIP3    H210791   5.505   2.524   1.667
 3616TIP3   OH210792   0.620   3.213   5.341
 3616TIP3    H110793   0.555   3.195   5.273
 3616TIP3    H210794   0.665   3.293   5.311
 3617TIP3   OH210795   2.576   5.229   2.248
 3617TIP3    H110796   2.601   5.295   2.312
 3617TIP3    H210797   2.493   5.194   2.281
 3618TIP3   OH210798   2.062   2.791   4.923
 3618TIP3    H110799   2.117   2.780   5.001
 3618TIP3    H210800   2.085   2.879   4.891
 3619TIP3   OH210801   0.345   2.408   6.185
 3619TIP3    H110802   0.323   2.500   6.202
 3619TIP3    H210803   0.437   2.400   6.209
 3620TIP3   OH210804   5.778   5.530   6.379
 3620TIP3    H110805   5.683   5.542   6.377
 3620TIP3    H210806   5.799   5.494   6.293
 3621TIP3   OH210807   2.233   7.117   4.207
 3621TIP3    H110808   2.219   7.186   4.271
 3621TIP3    H210809   2.257   7.040   4.258
 3622TIP3   OH210810   0.719   6.805   0.277
 3622TIP3    H110811   0.657   6.848   0.218
 3622TIP3    H210812   0.778   6.757   0.219
 3623TIP3   OH210813   1.944   4.066   1.219
 3623TIP3    H110814   1.917   4.074   1.310
 3623TIP3    H210815   2.035   4.036   1.224
 3624TIP3   OH210816   5.487   3.855   4.631
 3624TIP3    H110817   5.408   3.909   4.636
 3624TIP3    H210818   5.499   3.839   4.537
 3625TIP3   OH210819   2.579   5.776   4.288
 3625TIP3    H110820   2.657   5.829   4.305
 3625TIP3    H210821   2.534   5.821   4.217
 3626TIP3   OH210822   7.220   7.177   5.534
 3626TIP3    H110823   7.262   7.112   5.591
 3626TIP3    H210824   7.271   7.174   5.453
 3627TIP3   OH210825   2.790   3.305   1.876
 3627TIP3    H110826   2.745   3.274   1.954
 3627TIP3    H210827   2.849   3.234   1.853
 3628TIP3   OH210828   5.069   2.739   1.914
 3628TIP3    H110829   4.986   2.693   1.905
 3628TIP3    H210830   5.115   2.693   1.984
 3629TIP3   OH210831   2.271   6.302   3.150
 3629TIP3    H110832   2.300   6.389   3.178
 3629TIP3    H210833   2.350   6.262   3.113
 3630TIP3   OH210834   7.541   5.165   6.030
 3630TIP3    H110835   7.500   5.251   6.043
 3630TIP3    H210836   7.533   5.121   6.115
 3631TIP3   OH210837   7.261   7.089   3.515
 3631TIP3    H110838   7.342   7.057   3.556
 3631TIP3    H210839   7.271   7.184   3.514
 3632TIP3   OH210840   3.287   1.273   6.448
 3632TIP3    H110841   3.214   1.219   6.478
 3632TIP3    H210842   3.285   1.265   6.353
 3633TIP3   OH210843   3.631   2.760   3.989
 3633TIP3    H110844   3.691   2.694   4.025
 3633TIP3    H210845   3.688   2.830   3.956
 3634TIP3   OH210846   7.964   0.235   2.028
 3634TIP3    H110847   7.921   0.248   1.944
 3634TIP3    H210848   8.013   0.317   2.042
 3635TIP3   OH210849   1.177   0.186   5.910
 3635TIP3    H110850   1.262   0.200   5.869
 3635TIP3    H210851   1.194   0.122   5.979
 3636TIP3   OH210852   1.478   1.387   4.894
 3636TIP3    H110853   1.535   1.456   4.927
 3636TIP3    H210854   1.423   1.364   4.969
 3637TIP3   OH210855   2.799   6.170   0.958
 3637TIP3    H110856   2.762   6.189   1.044
 3637TIP3    H210857   2.885   6.211   0.959
 3638TIP3   OH210858   5.333   2.486   0.889
 3638TIP3    H110859   5.306   2.531   0.808
 3638TIP3    H210860   5.324   2.552   0.957
 3639TIP3   OH210861   1.856   5.588   0.575
 3639TIP3    H110862   1.793   5.598   0.503
 3639TIP3    H210863   1.828   5.652   0.640
 3640TIP3   OH210864   0.116   3.890   4.789
 3640TIP3    H110865   0.116   3.970   4.843
 3640TIP3    H210866   0.029   3.888   4.750
 3641TIP3   OH210867   4.406   5.217   4.227
 3641TIP3    H110868   4.377   5.133   4.192
 3641TIP3    H210869   4.421   5.272   4.150
 3642TIP3   OH210870   3.078   6.399   1.867
 3642TIP3    H110871   3.165   6.380   1.904
 3642TIP3    H210872   3.027   6.431   1.941
 3643TIP3   OH210873   0.182   6.251   5.795
 3643TIP3    H110874   0.208   6.259   5.704
 3643TIP3    H210875   0.221   6.168   5.824
 3644TIP3   OH210876   1.833   1.644   5.388
 3644TIP3    H110877   1.918   1.610   5.358
 3644TIP3    H210878   1.853   1.689   5.470
 3645TIP3   OH210879   4.583   4.598   4.575
 3645TIP3    H110880   4.592   4.548   4.657
 3645TIP3    H210881   4.543   4.681   4.602
 3646TIP3   OH210882   3.009   0.800   5.616
 3646TIP3    H110883   2.935   0.781   5.674
 3646TIP3    H210884   3.011   0.726   5.555
 3647TIP3   OH210885   6.040   4.607   1.360
 3647TIP3    H110886   5.976   4.606   1.289
 3647TIP3    H210887   6.047   4.700   1.385
 3648TIP3   OH210888   3.578   7.544   6.762
 3648TIP3    H110889   3.588   7.557   6.668
 3648TIP3    H210890   3.498   7.492   6.771
 3649TIP3   OH210891   0.160   3.645   6.735
 3649TIP3    H110892   0.069   3.670   6.747
 3649TIP3    H210893   0.155   3.562   6.687
 3650TIP3   OH210894   1.559   2.049   2.150
 3650TIP3    H110895   1.551   2.007   2.236
 3650TIP3    H210896   1.652   2.071   2.142
 3651TIP3   OH210897   4.211   6.383   0.484
 3651TIP3    H110898   4.270   6.337   0.544
 3651TIP3    H210899   4.269   6.436   0.429
 3652TIP3   OH210900   4.552   6.454   4.599
 3652TIP3    H110901   4.499   6.481   4.523
 3652TIP3    H210902   4.516   6.504   4.672
 3653TIP3   OH210903   7.068   3.962   2.714
 3653TIP3    H110904   7.140   3.925   2.664
 3653TIP3    H210905   7.021   3.886   2.749
 3654TIP3   OH210906   6.544   4.940   5.400
 3654TIP3    H110907   6.507   4.927   5.487
 3654TIP3    H210908   6.528   4.858   5.355
 3655TIP3   OH210909   6.172   7.378   1.745
 3655TIP3    H110910   6.108   7.332   1.690
 3655TIP3    H210911   6.257   7.342   1.719
 3656TIP3   OH210912   5.942   2.280   0.507
 3656TIP3    H110913   5.860   2.256   0.464
 3656TIP3    H210914   5.916   2.325   0.587
 3657TIP3   OH210915   3.053   1.992   3.589
 3657TIP3    H110916   3.019   1.998   3.678
 3657TIP3    H210917   3.034   1.902   3.563
 3658TIP3   OH210918   8.105   3.060   2.899
 3658TIP3    H110919   8.118   3.144   2.856
 3658TIP3    H210920   8.181   3.008   2.874
 3659TIP3   OH210921   6.499   3.281   6.756
 3659TIP3    H110922   6.430   3.275   6.822
 3659TIP3    H210923   6.477   3.358   6.704
 3660TIP3   OH210924   1.084   6.192   5.319
 3660TIP3    H110925   1.146   6.230   5.381
 3660TIP3    H210926   1.064   6.105   5.354
 3661TIP3   OH210927   1.827   4.594   4.387
 3661TIP3    H110928   1.831   4.524   4.322
 3661TIP3    H210929   1.798   4.551   4.467
 3662TIP3   OH210930   0.036   3.750   5.461
 3662TIP3    H110931   0.017   3.840   5.486
 3662TIP3    H210932   0.130   3.740   5.475
 3663TIP3   OH210933   1.844   4.199   4.380
 3663TIP3    H110934   1.816   4.272   4.325
 3663TIP3    H210935   1.829   4.228   4.470
 3664TIP3   OH210936   3.758   7.660   1.954
 3664TIP3    H110937   3.818   7.638   2.025
 3664TIP3    H210938   3.780   7.598   1.884
 3665TIP3   OH210939   5.052   0.803   4.762
 3665TIP3    H110940   4.985   0.869   4.783
 3665TIP3    H210941   5.008   0.719   4.773
 3666TIP3   OH210942   3.064   2.449   0.341
 3666TIP3    H110943   3.129   2.407   0.284
 3666TIP3    H210944   3.115   2.480   0.416
 3667TIP3   OH210945   0.842   2.222   2.225
 3667TIP3    H110946   0.832   2.278   2.302
 3667TIP3    H210947   0.757   2.179   2.217
 3668TIP3   OH210948   7.473   6.587   0.540
 3668TIP3    H110949   7.499   6.495   0.552
 3668TIP3    H210950   7.539   6.637   0.587
 3669TIP3   OH210951   5.657   6.441   5.310
 3669TIP3    H110952   5.600   6.516   5.327
 3669TIP3    H210953   5.723   6.474   5.248
 3670TIP3   OH210954   5.464   6.787   3.798
 3670TIP3    H110955   5.420   6.867   3.827
 3670TIP3    H210956   5.392   6.728   3.774
 3671TIP3   OH210957   0.754   4.783   6.231
 3671TIP3    H110958   0.707   4.737   6.160
 3671TIP3    H210959   0.816   4.840   6.185
 3672TIP3   OH210960   1.976   0.636   1.530
 3672TIP3    H110961   1.960   0.674   1.444
 3672TIP3    H210962   2.071   0.638   1.540
 3673TIP3   OH210963   3.839   6.087   4.969
 3673TIP3    H110964   3.807   6.012   4.919
 3673TIP3    H210965   3.841   6.159   4.906
 3674TIP3   OH210966   7.056   7.390   0.079
 3674TIP3    H110967   7.052   7.479   0.044
 3674TIP3    H210968   6.996   7.340   0.024
 3675TIP3   OH210969   2.854   0.921   6.577
 3675TIP3    H110970   2.946   0.937   6.596
 3675TIP3    H210971   2.832   0.844   6.628
 3676TIP3   OH210972   1.275   4.453   6.648
 3676TIP3    H110973   1.291   4.450   6.742
 3676TIP3    H210974   1.187   4.417   6.637
 3677TIP3   OH210975   1.496   5.201   0.953
 3677TIP3    H110976   1.422   5.196   1.013
 3677TIP3    H210977   1.457   5.191   0.866
 3678TIP3   OH210978   6.633   3.714   0.401
 3678TIP3    H110979   6.680   3.766   0.467
 3678TIP3    H210980   6.700   3.656   0.365
 3679TIP3   OH210981   6.136   5.024   2.618
 3679TIP3    H110982   6.134   5.062   2.530
 3679TIP3    H210983   6.121   5.098   2.676
 3680TIP3   OH210984   0.815   1.334   5.851
 3680TIP3    H110985   0.747   1.270   5.870
 3680TIP3    H210986   0.873   1.331   5.927
 3681TIP3   OH210987   0.674   0.634   4.458
 3681TIP3    H110988   0.761   0.624   4.418
 3681TIP3    H210989   0.692   0.674   4.543
 3682TIP3   OH210990   6.778   3.477   5.239
 3682TIP3    H110991   6.782   3.431   5.156
 3682TIP3    H210992   6.867   3.473   5.274
 3683TIP3   OH210993   6.064   2.444   5.180
 3683TIP3    H110994   6.036   2.472   5.268
 3683TIP3    H210995   6.021   2.360   5.166
 3684TIP3   OH210996   4.519   5.889   5.532
 3684TIP3    H110997   4.601   5.929   5.500
 3684TIP3    H210998   4.478   5.957   5.584
 3685TIP3   OH210999   2.012   6.300   3.254
 3685TIP3    H111000   2.097   6.318   3.213
 3685TIP3    H211001   2.019   6.209   3.285
 3686TIP3   OH211002   7.305   1.912   1.527
 3686TIP3    H111003   7.280   1.998   1.561
 3686TIP3    H211004   7.279   1.914   1.435
 3687TIP3   OH211005   2.670   3.425   1.158
 3687TIP3    H111006   2.577   3.432   1.179
 3687TIP3    H211007   2.714   3.469   1.230
 3688TIP3   OH211008   4.864   5.713   1.337
 3688TIP3    H111009   4.860   5.678   1.248
 3688TIP3    H211010   4.776   5.702   1.371
 3689TIP3   OH211011   4.197   5.190   6.066
 3689TIP3    H111012   4.287   5.175   6.094
 3689TIP3    H211013   4.145   5.179   6.146
 3690TIP3   OH211014   3.514   6.375   5.709
 3690TIP3    H111015   3.516   6.469   5.724
 3690TIP3    H211016   3.429   6.348   5.743
 3691TIP3   OH211017   4.004   1.192   2.323
 3691TIP3    H111018   4.019   1.118   2.265
 3691TIP3    H211019   3.982   1.265   2.265
 3692TIP3   OH211020   1.449   7.206   5.784
 3692TIP3    H111021   1.455   7.269   5.712
 3692TIP3    H211022   1.456   7.120   5.742
 3693TIP3   OH211023   8.185   6.513   3.489
 3693TIP3    H111024   8.139   6.492   3.571
 3693TIP3    H211025   8.244   6.439   3.474
 3694TIP3   OH211026   7.964   5.608   4.146
 3694TIP3    H111027   7.874   5.641   4.156
 3694TIP3    H211028   7.963   5.523   4.190
 3695TIP3   OH211029   5.013   3.490   3.825
 3695TIP3    H111030   5.066   3.500   3.746
 3695TIP3    H211031   5.046   3.410   3.867
 3696TIP3   OH211032   4.475   1.801   6.111
 3696TIP3    H111033   4.417   1.787   6.185
 3696TIP3    H211034   4.419   1.794   6.034
 3697TIP3   OH211035   6.270   1.987   5.629
 3697TIP3    H111036   6.244   2.078   5.611
 3697TIP3    H211037   6.255   1.976   5.723
 3698TIP3   OH211038   6.741  -0.012   2.863
 3698TIP3    H111039   6.722   0.046   2.937
 3698TIP3    H211040   6.820  -0.059   2.889
 3699TIP3   OH211041   6.419   3.733   3.835
 3699TIP3    H111042   6.415   3.713   3.742
 3699TIP3    H211043   6.437   3.649   3.877
 3700TIP3   OH211044   1.371   1.173   6.356
 3700TIP3    H111045   1.352   1.093   6.306
 3700TIP3    H211046   1.363   1.146   6.448
 3701TIP3   OH211047   4.022   0.522   0.714
 3701TIP3    H111048   4.086   0.480   0.772
 3701TIP3    H211049   3.948   0.462   0.713
 3702TIP3   OH211050   4.939   7.602   2.811
 3702TIP3    H111051   4.939   7.697   2.808
 3702TIP3    H211052   4.864   7.576   2.757
 3703TIP3   OH211053   7.235   1.954   5.023
 3703TIP3    H111054   7.314   1.911   5.057
 3703TIP3    H211055   7.183   1.974   5.100
 3704TIP3   OH211056   1.532   1.744   1.811
 3704TIP3    H111057   1.602   1.739   1.746
 3704TIP3    H211058   1.477   1.817   1.783
 3705TIP3   OH211059   4.792   3.328   1.707
 3705TIP3    H111060   4.806   3.247   1.658
 3705TIP3    H211061   4.814   3.305   1.798
 3706TIP3   OH211062   1.143   4.455   0.719
 3706TIP3    H111063   1.208   4.391   0.749
 3706TIP3    H211064   1.099   4.411   0.647
 3707TIP3   OH211065   8.142   3.164   6.242
 3707TIP3    H111066   8.067   3.199   6.193
 3707TIP3    H211067   8.198   3.239   6.258
 3708TIP3   OH211068   4.442   7.060   1.047
 3708TIP3    H111069   4.455   7.107   0.964
 3708TIP3    H211070   4.385   6.987   1.024
 3709TIP3   OH211071   2.498   4.087   6.533
 3709TIP3    H111072   2.575   4.079   6.476
 3709TIP3    H211073   2.512   4.168   6.582
 3710TIP3   OH211074   3.869   3.314   3.010
 3710TIP3    H111075   3.848   3.245   3.073
 3710TIP3    H211076   3.798   3.377   3.018
 3711TIP3   OH211077   0.224   1.727   0.319
 3711TIP3    H111078   0.214   1.695   0.409
 3711TIP3    H211079   0.243   1.648   0.268
 3712TIP3   OH211080   4.853   4.914   6.542
 3712TIP3    H111081   4.925   4.951   6.492
 3712TIP3    H211082   4.811   4.989   6.584
 3713TIP3   OH211083   4.611   0.407   5.662
 3713TIP3    H111084   4.545   0.427   5.729
 3713TIP3    H211085   4.695   0.414   5.708
 3714TIP3   OH211086   2.413   4.405   0.425
 3714TIP3    H111087   2.450   4.383   0.340
 3714TIP3    H211088   2.325   4.438   0.405
 3715TIP3   OH211089   3.013   6.940   1.881
 3715TIP3    H111090   2.957   6.864   1.895
 3715TIP3    H211091   3.078   6.910   1.817
 3716TIP3   OH211092   4.029   3.957   5.644
 3716TIP3    H111093   3.996   3.870   5.623
 3716TIP3    H211094   3.951   4.014   5.642
 3717TIP3   OH211095   4.012   1.083   1.832
 3717TIP3    H111096   4.009   1.019   1.760
 3717TIP3    H211097   3.984   1.165   1.792
 3718TIP3   OH211098   7.771   2.392   3.571
 3718TIP3    H111099   7.793   2.317   3.626
 3718TIP3    H211100   7.781   2.359   3.481
 3719TIP3   OH211101   5.887   3.223   4.850
 3719TIP3    H111102   5.798   3.252   4.869
 3719TIP3    H211103   5.908   3.162   4.921
 3720TIP3   OH211104   7.636   4.551   2.742
 3720TIP3    H111105   7.667   4.534   2.831
 3720TIP3    H211106   7.621   4.645   2.739
 3721TIP3   OH211107   4.020   2.566   2.779
 3721TIP3    H111108   3.988   2.648   2.816
 3721TIP3    H211109   4.112   2.562   2.805
 3722TIP3   OH211110   5.760   4.347   2.686
 3722TIP3    H111111   5.804   4.307   2.611
 3722TIP3    H211112   5.708   4.277   2.724
 3723TIP3   OH211113   1.144   3.728   1.719
 3723TIP3    H111114   1.072   3.746   1.780
 3723TIP3    H211115   1.224   3.743   1.770
 3724TIP3   OH211116   5.570   6.335   5.775
 3724TIP3    H111117   5.662   6.344   5.800
 3724TIP3    H211118   5.538   6.261   5.826
 3725TIP3   OH211119   6.016   3.211   3.663
 3725TIP3    H111120   6.047   3.166   3.741
 3725TIP3    H211121   5.973   3.290   3.697
 3726TIP3   OH211122   1.206   7.141   3.067
 3726TIP3    H111123   1.222   7.053   3.033
 3726TIP3    H211124   1.160   7.186   2.996
 3727TIP3   OH211125   6.246   5.704   6.495
 3727TIP3    H111126   6.160   5.745   6.495
 3727TIP3    H211127   6.250   5.656   6.578
 3728TIP3   OH211128   3.477   6.649   3.286
 3728TIP3    H111129   3.564   6.627   3.318
 3728TIP3    H211130   3.460   6.585   3.217
 3729TIP3   OH211131   1.816   2.437   4.402
 3729TIP3    H111132   1.816   2.422   4.308
 3729TIP3    H211133   1.723   2.450   4.424
 3730TIP3   OH211134   6.004   5.986   0.748
 3730TIP3    H111135   6.072   5.967   0.684
 3730TIP3    H211136   6.014   6.079   0.768
 3731TIP3   OH211137   6.836   2.261   2.734
 3731TIP3    H111138   6.932   2.255   2.736
 3731TIP3    H211139   6.808   2.202   2.804
 3732TIP3   OH211140   4.242   2.693   0.785
 3732TIP3    H111141   4.235   2.656   0.872
 3732TIP3    H211142   4.152   2.710   0.758
 3733TIP3   OH211143   6.020   1.704   3.862
 3733TIP3    H111144   6.002   1.690   3.769
 3733TIP3    H211145   5.947   1.661   3.907
 3734TIP3   OH211146   0.119   4.001   5.041
 3734TIP3    H111147   0.128   4.075   5.101
 3734TIP3    H211148   0.200   3.952   5.050
 3735TIP3   OH211149   7.672   2.784   4.123
 3735TIP3    H111150   7.688   2.795   4.029
 3735TIP3    H211151   7.756   2.754   4.158
 3736TIP3   OH211152   4.830   0.458   3.498
 3736TIP3    H111153   4.904   0.464   3.437
 3736TIP3    H211154   4.756   0.433   3.442
 3737TIP3   OH211155   7.020   3.341   4.557
 3737TIP3    H111156   7.079   3.267   4.539
 3737TIP3    H211157   7.048   3.374   4.642
 3738TIP3   OH211158   1.344   2.468   5.773
 3738TIP3    H111159   1.267   2.448   5.826
 3738TIP3    H211160   1.404   2.395   5.789
 3739TIP3   OH211161   1.911   0.562   2.010
 3739TIP3    H111162   1.992   0.553   1.961
 3739TIP3    H211163   1.857   0.487   1.983
 3740TIP3   OH211164   7.413   6.268   2.525
 3740TIP3    H111165   7.332   6.240   2.485
 3740TIP3    H211166   7.457   6.319   2.457
 3741TIP3   OH211167   1.515   2.380   4.432
 3741TIP3    H111168   1.440   2.397   4.374
 3741TIP3    H211169   1.547   2.294   4.405
 3742TIP3   OH211170   3.571   5.318   1.519
 3742TIP3    H111171   3.665   5.318   1.533
 3742TIP3    H211172   3.534   5.285   1.601
 3743TIP3   OH211173   4.714   2.081   1.849
 3743TIP3    H111174   4.763   2.124   1.780
 3743TIP3    H211175   4.664   2.013   1.803
 3744TIP3   OH211176   7.015   0.295   0.838
 3744TIP3    H111177   7.024   0.305   0.743
 3744TIP3    H211178   6.934   0.245   0.850
 3745TIP3   OH211179   4.234   6.828   1.892
 3745TIP3    H111180   4.154   6.799   1.847
 3745TIP3    H211181   4.304   6.776   1.851
 3746TIP3   OH211182   8.211   2.105   4.195
 3746TIP3    H111183   8.201   2.187   4.244
 3746TIP3    H211184   8.279   2.057   4.243
 3747TIP3   OH211185   1.246   7.425   5.367
 3747TIP3    H111186   1.154   7.416   5.392
 3747TIP3    H211187   1.272   7.336   5.341
 3748TIP3   OH211188   7.290   0.312   3.921
 3748TIP3    H111189   7.364   0.301   3.981
 3748TIP3    H211190   7.245   0.228   3.923
 3749TIP3   OH211191   1.408   3.852   4.016
 3749TIP3    H111192   1.350   3.866   3.941
 3749TIP3    H211193   1.484   3.907   3.997
 3750TIP3   OH211194   8.214   6.930   5.651
 3750TIP3    H111195   8.141   6.869   5.658
 3750TIP3    H211196   8.285   6.890   5.701
 3751TIP3   OH211197   5.354   3.517   4.526
 3751TIP3    H111198   5.339   3.590   4.467
 3751TIP3    H211199   5.291   3.529   4.596
 3752TIP3   OH211200   5.157   2.737   5.955
 3752TIP3    H111201   5.063   2.727   5.967
 3752TIP3    H211202   5.173   2.704   5.867
 3753TIP3   OH211203   4.598   4.312   5.855
 3753TIP3    H111204   4.669   4.307   5.919
 3753TIP3    H211205   4.518   4.302   5.907
 3754TIP3   OH211206   7.736   0.360   0.923
 3754TIP3    H111207   7.777   0.424   0.981
 3754TIP3    H211208   7.675   0.412   0.871
 3755TIP3   OH211209   3.861   7.474   0.014
 3755TIP3    H111210   3.945   7.507   0.047
 3755TIP3    H211211   3.809   7.552  -0.001
 3756TIP3   OH211212   6.583   1.449   0.984
 3756TIP3    H111213   6.537   1.457   1.068
 3756TIP3    H211214   6.576   1.536   0.945
 3757TIP3   OH211215   5.727   0.922   6.027
 3757TIP3    H111216   5.780   0.972   5.965
 3757TIP3    H211217   5.788   0.899   6.097
 3758TIP3   OH211218   4.769   6.276   3.039
 3758TIP3    H111219   4.722   6.255   2.958
 3758TIP3    H211220   4.732   6.216   3.105
 3759TIP3   OH211221   4.500   1.352   3.719
 3759TIP3    H111222   4.542   1.281   3.670
 3759TIP3    H211223   4.505   1.324   3.810
 3760TIP3   OH211224   3.460   0.648   1.907
 3760TIP3    H111225   3.383   0.603   1.940
 3760TIP3    H211226   3.533   0.610   1.957
 3761TIP3   OH211227   2.436   0.728   3.674
 3761TIP3    H111228   2.346   0.746   3.702
 3761TIP3    H211229   2.460   0.648   3.721
 3762TIP3   OH211230   6.093   0.182   4.228
 3762TIP3    H111231   6.054   0.215   4.147
 3762TIP3    H211232   6.019   0.176   4.289
 3763TIP3   OH211233   0.875   3.286   4.871
 3763TIP3    H111234   0.867   3.380   4.884
 3763TIP3    H211235   0.889   3.275   4.777
 3764TIP3   OH211236   0.786   0.208   4.408
 3764TIP3    H111237   0.850   0.238   4.472
 3764TIP3    H211238   0.826   0.132   4.367
 3765TIP3   OH211239   5.281   3.013   1.077
 3765TIP3    H111240   5.351   3.010   1.142
 3765TIP3    H211241   5.319   2.973   0.999
 3766TIP3   OH211242   4.234   0.603   2.496
 3766TIP3    H111243   4.308   0.572   2.548
 3766TIP3    H211244   4.188   0.523   2.470
 3767TIP3   OH211245   0.148   0.392   3.575
 3767TIP3    H111246   0.061   0.429   3.584
 3767TIP3    H211247   0.145   0.341   3.494
 3768TIP3   OH211248   1.534   1.009   4.428
 3768TIP3    H111249   1.507   1.041   4.515
 3768TIP3    H211250   1.521   0.914   4.433
 3769TIP3   OH211251   4.634   7.177   3.721
 3769TIP3    H111252   4.689   7.249   3.691
 3769TIP3    H211253   4.685   7.098   3.702
 3770TIP3   OH211254   7.932   0.605   0.690
 3770TIP3    H111255   7.866   0.588   0.624
 3770TIP3    H211256   8.011   0.563   0.657
 3771TIP3   OH211257   6.183   4.229   1.576
 3771TIP3    H111258   6.262   4.251   1.526
 3771TIP3    H211259   6.192   4.135   1.594
 3772TIP3   OH211260   7.457   0.281   4.127
 3772TIP3    H111261   7.548   0.305   4.110
 3772TIP3    H211262   7.463   0.199   4.177
 3773TIP3   OH211263   1.718   5.928   2.217
 3773TIP3    H111264   1.666   5.887   2.287
 3773TIP3    H211265   1.676   5.898   2.136
 3774TIP3   OH211266   1.674   2.791   0.668
 3774TIP3    H111267   1.767   2.808   0.652
 3774TIP3    H211268   1.671   2.748   0.753
 3775TIP3   OH211269   7.133   3.405   0.853
 3775TIP3    H111270   7.136   3.324   0.803
 3775TIP3    H211271   7.129   3.377   0.945
 3776TIP3   OH211272   5.109   1.172   5.992
 3776TIP3    H111273   5.179   1.183   6.056
 3776TIP3    H211274   5.046   1.114   6.035
 3777TIP3   OH211275   2.033   5.405   5.385
 3777TIP3    H111276   1.977   5.330   5.406
 3777TIP3    H211277   1.974   5.467   5.342
 3778TIP3   OH211278   4.999   6.949   2.129
 3778TIP3    H111279   4.934   6.937   2.199
 3778TIP3    H211280   5.049   6.867   2.128
 3779TIP3   OH211281   7.134   4.232   0.146
 3779TIP3    H111282   7.084   4.243   0.065
 3779TIP3    H211283   7.221   4.205   0.117
 3780TIP3   OH211284   5.355   4.814   6.353
 3780TIP3    H111285   5.339   4.779   6.266
 3780TIP3    H211286   5.394   4.900   6.338
 3781TIP3   OH211287   1.461   2.867   1.970
 3781TIP3    H111288   1.501   2.820   2.043
 3781TIP3    H211289   1.375   2.894   2.002
 3782TIP3   OH211290   1.781   2.793   4.080
 3782TIP3    H111291   1.800   2.871   4.133
 3782TIP3    H211292   1.774   2.827   3.991
 3783TIP3   OH211293   3.875   1.543   5.293
 3783TIP3    H111294   3.805   1.535   5.228
 3783TIP3    H211295   3.853   1.621   5.343
 3784TIP3   OH211296   2.488   2.941   3.414
 3784TIP3    H111297   2.463   2.852   3.440
 3784TIP3    H211298   2.578   2.933   3.384
 3785TIP3   OH211299   4.981   6.162   5.908
 3785TIP3    H111300   5.031   6.243   5.904
 3785TIP3    H211301   4.955   6.154   5.999
 3786TIP3   OH211302   5.783   0.995   3.971
 3786TIP3    H111303   5.866   1.034   3.943
 3786TIP3    H211304   5.800   0.965   4.060
 3787TIP3   OH211305   6.579   3.558   2.435
 3787TIP3    H111306   6.569   3.569   2.341
 3787TIP3    H211307   6.596   3.464   2.447
 3788TIP3   OH211308   6.414   1.071   2.869
 3788TIP3    H111309   6.414   0.986   2.914
 3788TIP3    H211310   6.352   1.060   2.797
 3789TIP3   OH211311   2.887   0.654   5.396
 3789TIP3    H111312   2.860   0.741   5.366
 3789TIP3    H211313   2.810   0.599   5.380
 3790TIP3   OH211314   4.628   5.822   1.203
 3790TIP3    H111315   4.661   5.757   1.142
 3790TIP3    H211316   4.706   5.873   1.228
 3791TIP3   OH211317   7.974   5.689   0.745
 3791TIP3    H111318   8.066   5.667   0.732
 3791TIP3    H211319   7.968   5.782   0.725
 3792TIP3   OH211320   5.058   5.386   0.874
 3792TIP3    H111321   5.133   5.403   0.816
 3792TIP3    H211322   4.982   5.394   0.816
 3793TIP3   OH211323   1.780   3.781   5.336
 3793TIP3    H111324   1.840   3.753   5.266
 3793TIP3    H211325   1.813   3.867   5.363
 3794TIP3   OH211326   6.125   4.556   1.975
 3794TIP3    H111327   6.188   4.619   1.940
 3794TIP3    H211328   6.141   4.556   2.069
 3795TIP3   OH211329   4.346   0.732   2.021
 3795TIP3    H111330   4.432   0.692   2.009
 3795TIP3    H211331   4.325   0.716   2.113
 3796TIP3   OH211332   8.084   5.194   1.686
 3796TIP3    H111333   8.094   5.237   1.771
 3796TIP3    H211334   8.145   5.120   1.690
 3797TIP3   OH211335   5.386   6.738   1.650
 3797TIP3    H111336   5.471   6.780   1.641
 3797TIP3    H211337   5.406   6.644   1.650
 3798TIP3   OH211338   4.234   5.280   0.010
 3798TIP3    H111339   4.261   5.371   0.021
 3798TIP3    H211340   4.164   5.267   0.074
 3799TIP3   OH211341   1.169   5.717   1.812
 3799TIP3    H111342   1.104   5.659   1.852
 3799TIP3    H211343   1.129   5.804   1.814
 3800TIP3   OH211344   4.903   3.252   1.937
 3800TIP3    H111345   4.902   3.346   1.953
 3800TIP3    H211346   4.945   3.215   2.014
 3801TIP3   OH211347   3.073   1.072   2.962
 3801TIP3    H111348   3.084   1.086   3.056
 3801TIP3    H211349   3.040   1.156   2.929
 3802TIP3   OH211350   3.287   7.061   4.400
 3802TIP3    H111351   3.192   7.050   4.394
 3802TIP3    H211352   3.321   7.026   4.318
 3803TIP3   OH211353   0.116   5.050   4.301
 3803TIP3    H111354   0.026   5.067   4.328
 3803TIP3    H211355   0.169   5.084   4.374
 3804TIP3   OH211356   1.032   2.993   1.709
 3804TIP3    H111357   0.967   2.942   1.662
 3804TIP3    H211358   1.010   2.981   1.802
 3805TIP3   OH211359   0.453   7.074   3.842
 3805TIP3    H111360   0.385   7.026   3.794
 3805TIP3    H211361   0.469   7.152   3.789
 3806TIP3   OH211362   1.965   4.714   3.044
 3806TIP3    H111363   1.931   4.624   3.043
 3806TIP3    H211364   1.921   4.755   3.118
 3807TIP3   OH211365   5.579   4.712   0.629
 3807TIP3    H111366   5.529   4.752   0.699
 3807TIP3    H211367   5.550   4.757   0.550
 3808TIP3   OH211368   0.401   3.271   6.503
 3808TIP3    H111369   0.433   3.210   6.436
 3808TIP3    H211370   0.451   3.249   6.581
 3809TIP3   OH211371   1.745   7.290   5.199
 3809TIP3    H111372   1.750   7.335   5.283
 3809TIP3    H211373   1.834   7.260   5.183
 3810TIP3   OH211374   3.014   3.423   1.158
 3810TIP3    H111375   3.027   3.419   1.064
 3810TIP3    H211376   2.956   3.498   1.171
 3811TIP3   OH211377   3.739   0.016   4.454
 3811TIP3    H111378   3.680  -0.034   4.511
 3811TIP3    H211379   3.798   0.061   4.514
 3812TIP3   OH211380   5.368   0.174   6.689
 3812TIP3    H111381   5.352   0.243   6.624
 3812TIP3    H211382   5.300   0.187   6.755
 3813TIP3   OH211383   4.703   2.907   3.902
 3813TIP3    H111384   4.678   2.978   3.842
 3813TIP3    H211385   4.619   2.869   3.929
 3814TIP3   OH211386   1.051   1.698   4.327
 3814TIP3    H111387   0.969   1.742   4.351
 3814TIP3    H211388   1.055   1.704   4.231
 3815TIP3   OH211389   7.885   0.729   2.505
 3815TIP3    H111390   7.825   0.721   2.578
 3815TIP3    H211391   7.938   0.806   2.525
 3816TIP3   OH211392   3.518   2.229   3.455
 3816TIP3    H111393   3.481   2.182   3.381
 3816TIP3    H211394   3.553   2.310   3.417
 3817TIP3   OH211395   3.063   0.025   4.328
 3817TIP3    H111396   3.145   0.049   4.284
 3817TIP3    H211397   3.053  -0.069   4.311
 3818TIP3   OH211398   6.962   2.497   5.754
 3818TIP3    H111399   6.898   2.508   5.824
 3818TIP3    H211400   6.926   2.544   5.679
 3819TIP3   OH211401   4.555   0.419   2.167
 3819TIP3    H111402   4.641   0.412   2.208
 3819TIP3    H211403   4.560   0.499   2.115
 3820TIP3   OH211404   6.648   3.655   1.816
 3820TIP3    H111405   6.607   3.733   1.779
 3820TIP3    H211406   6.583   3.620   1.878
 3821TIP3   OH211407   1.182   4.726   0.660
 3821TIP3    H111408   1.181   4.641   0.703
 3821TIP3    H211409   1.272   4.737   0.630
 3822TIP3   OH211410   5.866   2.006   1.044
 3822TIP3    H111411   5.948   2.048   1.016
 3822TIP3    H211412   5.882   1.983   1.136
 3823TIP3   OH211413   2.377   3.411   1.554
 3823TIP3    H111414   2.452   3.452   1.597
 3823TIP3    H211415   2.316   3.391   1.625
 3824TIP3   OH211416   0.587   7.497   2.566
 3824TIP3    H111417   0.555   7.505   2.655
 3824TIP3    H211418   0.625   7.409   2.562
 3825TIP3   OH211419   4.820   2.611   1.832
 3825TIP3    H111420   4.745   2.618   1.892
 3825TIP3    H211421   4.783   2.633   1.747
 3826TIP3   OH211422   2.595   3.555   3.909
 3826TIP3    H111423   2.586   3.465   3.876
 3826TIP3    H211424   2.581   3.547   4.003
 3827TIP3   OH211425   6.777   6.091   5.925
 3827TIP3    H111426   6.706   6.145   5.961
 3827TIP3    H211427   6.731   6.020   5.880
 3828TIP3   OH211428   4.212   1.423   5.862
 3828TIP3    H111429   4.293   1.376   5.840
 3828TIP3    H211430   4.221   1.443   5.955
 3829TIP3   OH211431   4.218   3.551   0.679
 3829TIP3    H111432   4.219   3.456   0.682
 3829TIP3    H211433   4.222   3.578   0.771
 3830TIP3   OH211434   2.622   7.032   3.834
 3830TIP3    H111435   2.644   7.035   3.927
 3830TIP3    H211436   2.528   7.020   3.832
 3831TIP3   OH211437   4.022   2.634   4.342
 3831TIP3    H111438   4.096   2.640   4.403
 3831TIP3    H211439   3.944   2.640   4.397
 3832TIP3   OH211440   5.628   3.483   5.075
 3832TIP3    H111441   5.647   3.577   5.081
 3832TIP3    H211442   5.581   3.473   4.993
 3833TIP3   OH211443   3.275   6.379   2.974
 3833TIP3    H111444   3.293   6.400   2.883
 3833TIP3    H211445   3.205   6.440   2.999
 3834TIP3   OH211446   6.202   6.288   1.842
 3834TIP3    H111447   6.237   6.341   1.771
 3834TIP3    H211448   6.117   6.327   1.861
 3835TIP3   OH211449   0.135   0.132   1.157
 3835TIP3    H111450   0.114   0.139   1.064
 3835TIP3    H211451   0.230   0.118   1.158
 3836TIP3   OH211452   5.925   2.488   4.844
 3836TIP3    H111453   5.833   2.506   4.824
 3836TIP3    H211454   5.970   2.571   4.828
 3837TIP3   OH211455   2.231   6.980   0.783
 3837TIP3    H111456   2.140   7.006   0.799
 3837TIP3    H211457   2.263   7.041   0.717
 3838TIP3   OH211458   4.809   7.475   0.362
 3838TIP3    H111459   4.894   7.518   0.366
 3838TIP3    H211460   4.781   7.484   0.271
 3839TIP3   OH211461   8.002   3.886   1.009
 3839TIP3    H111462   8.058   3.912   0.936
 3839TIP3    H211463   7.947   3.816   0.973
 3840TIP3   OH211464   7.459   7.713   3.690
 3840TIP3    H111465   7.511   7.634   3.676
 3840TIP3    H211466   7.523   7.782   3.703
 3841TIP3   OH211467   2.708   0.754   1.504
 3841TIP3    H111468   2.752   0.824   1.552
 3841TIP3    H211469   2.778   0.694   1.481
 3842TIP3   OH211470   7.605   3.793   0.620
 3842TIP3    H111471   7.596   3.702   0.590
 3842TIP3    H211472   7.529   3.807   0.675
 3843TIP3   OH211473   7.751   4.034   0.671
 3843TIP3    H111474   7.712   3.948   0.682
 3843TIP3    H211475   7.823   4.020   0.610
 3844TIP3   OH211476   4.773   5.323   4.600
 3844TIP3    H111477   4.817   5.326   4.515
 3844TIP3    H211478   4.701   5.261   4.587
 3845TIP3   OH211479   6.562   1.948   6.201
 3845TIP3    H111480   6.544   2.014   6.267
 3845TIP3    H211481   6.657   1.952   6.188
 3846TIP3   OH211482   3.815   4.689   0.846
 3846TIP3    H111483   3.810   4.699   0.750
 3846TIP3    H211484   3.731   4.721   0.878
 3847TIP3   OH211485   3.248   5.484   5.005
 3847TIP3    H111486   3.201   5.452   4.927
 3847TIP3    H211487   3.193   5.457   5.078
 3848TIP3   OH211488   1.878   6.433   5.743
 3848TIP3    H111489   1.922   6.389   5.816
 3848TIP3    H211490   1.800   6.379   5.726
 3849TIP3   OH211491   7.268   1.315   6.182
 3849TIP3    H111492   7.236   1.397   6.142
 3849TIP3    H211493   7.352   1.338   6.220
 3850TIP3   OH211494   1.111   3.131   3.291
 3850TIP3    H111495   1.110   3.208   3.234
 3850TIP3    H211496   1.076   3.060   3.236
 3851TIP3   OH211497   6.027   0.263   5.748
 3851TIP3    H111498   6.064   0.340   5.705
 3851TIP3    H211499   6.026   0.196   5.680
 3852TIP3   OH211500   5.502   5.710   3.815
 3852TIP3    H111501   5.419   5.712   3.768
 3852TIP3    H211502   5.534   5.620   3.802
 3853TIP3   OH211503   0.181   3.537   1.215
 3853TIP3    H111504   0.119   3.605   1.191
 3853TIP3    H211505   0.170   3.470   1.147
 3854TIP3   OH211506   3.320   1.380   3.743
 3854TIP3    H111507   3.260   1.306   3.747
 3854TIP3    H211508   3.401   1.342   3.708
 3855TIP3   OH211509   6.131   0.011   2.713
 3855TIP3    H111510   6.101  -0.011   2.625
 3855TIP3    H211511   6.056  -0.006   2.769
 3856TIP3   OH211512   0.202   2.966   0.314
 3856TIP3    H111513   0.133   3.003   0.369
 3856TIP3    H211514   0.167   2.882   0.285
 3857TIP3   OH211515   0.245   2.576   3.526
 3857TIP3    H111516   0.208   2.500   3.480
 3857TIP3    H211517   0.298   2.620   3.460
 3858TIP3   OH211518   1.888   0.341   6.495
 3858TIP3    H111519   1.805   0.296   6.508
 3858TIP3    H211520   1.894   0.355   6.400
 3859TIP3   OH211521   4.452   3.484   3.776
 3859TIP3    H111522   4.514   3.532   3.720
 3859TIP3    H211523   4.502   3.462   3.854
 3860TIP3   OH211524   5.146   7.213   2.546
 3860TIP3    H111525   5.057   7.250   2.546
 3860TIP3    H211526   5.150   7.162   2.627
 3861TIP3   OH211527   7.978   7.809   3.940
 3861TIP3    H111528   7.923   7.739   3.975
 3861TIP3    H211529   8.067   7.773   3.942
 3862TIP3   OH211530   2.180   7.139   5.876
 3862TIP3    H111531   2.187   7.230   5.906
 3862TIP3    H211532   2.194   7.144   5.782
 3863TIP3   OH211533   7.617   4.721   1.653
 3863TIP3    H111534   7.609   4.809   1.617
 3863TIP3    H211535   7.710   4.700   1.646
 3864TIP3   OH211536   7.257   3.811   1.488
 3864TIP3    H111537   7.254   3.884   1.426
 3864TIP3    H211538   7.165   3.797   1.514
 3865TIP3   OH211539   1.949   2.436   3.273
 3865TIP3    H111540   1.875   2.455   3.331
 3865TIP3    H211541   2.020   2.411   3.331
 3866TIP3   OH211542   7.666   5.975   3.785
 3866TIP3    H111543   7.601   6.037   3.752
 3866TIP3    H211544   7.735   5.974   3.719
 3867TIP3   OH211545   5.123   7.326   6.735
 3867TIP3    H111546   5.180   7.254   6.762
 3867TIP3    H211547   5.127   7.326   6.639
 3868TIP3   OH211548   7.606   7.103   4.755
 3868TIP3    H111549   7.646   7.160   4.821
 3868TIP3    H211550   7.518   7.086   4.788
 3869TIP3   OH211551   6.294   1.773   1.879
 3869TIP3    H111552   6.224   1.834   1.903
 3869TIP3    H211553   6.350   1.824   1.821
 3870TIP3   OH211554   1.226   5.608   2.467
 3870TIP3    H111555   1.228   5.687   2.414
 3870TIP3    H211556   1.265   5.634   2.550
 3871TIP3   OH211557   0.562   3.733   5.978
 3871TIP3    H111558   0.560   3.783   5.896
 3871TIP3    H211559   0.481   3.682   5.977
 3872TIP3   OH211560   6.526   3.042   2.397
 3872TIP3    H111561   6.462   3.059   2.466
 3872TIP3    H211562   6.550   2.950   2.408
 3873TIP3   OH211563   1.525   3.771   0.338
 3873TIP3    H111564   1.562   3.855   0.366
 3873TIP3    H211565   1.430   3.783   0.347
 3874TIP3   OH211566   5.591   5.345   1.456
 3874TIP3    H111567   5.649   5.420   1.441
 3874TIP3    H211568   5.594   5.331   1.550
 3875TIP3   OH211569   5.574   7.272   1.116
 3875TIP3    H111570   5.485   7.270   1.080
 3875TIP3    H211571   5.569   7.332   1.190
 3876TIP3   OH211572   1.599   2.616   3.117
 3876TIP3    H111573   1.680   2.660   3.144
 3876TIP3    H211574   1.545   2.686   3.081
 3877TIP3   OH211575   7.141   5.473   5.204
 3877TIP3    H111576   7.234   5.489   5.186
 3877TIP3    H211577   7.132   5.377   5.203
 3878TIP3   OH211578   7.286   7.125   6.382
 3878TIP3    H111579   7.268   7.052   6.440
 3878TIP3    H211580   7.297   7.085   6.296
 3879TIP3   OH211581   2.091   2.802   3.562
 3879TIP3    H111582   2.173   2.766   3.530
 3879TIP3    H211583   2.107   2.822   3.654
 3880TIP3   OH211584   6.163   4.981   0.923
 3880TIP3    H111585   6.146   4.940   1.008
 3880TIP3    H211586   6.147   5.074   0.937
 3881TIP3   OH211587   5.114   2.886   3.659
 3881TIP3    H111588   5.043   2.863   3.718
 3881TIP3    H211589   5.171   2.942   3.712
 3882TIP3   OH211590   6.411   1.281   0.436
 3882TIP3    H111591   6.482   1.307   0.495
 3882TIP3    H211592   6.333   1.279   0.491
 3883TIP3   OH211593   2.635   4.710   0.001
 3883TIP3    H111594   2.578   4.788   0.000
 3883TIP3    H211595   2.597   4.654   0.068
 3884TIP3   OH211596   7.826   5.019   3.112
 3884TIP3    H111597   7.787   5.010   3.199
 3884TIP3    H211598   7.911   4.976   3.119
 3885TIP3   OH211599   7.856   0.998   2.018
 3885TIP3    H111600   7.817   0.962   1.938
 3885TIP3    H211601   7.840   0.930   2.084
 3886TIP3   OH211602   0.674   3.361   2.533
 3886TIP3    H111603   0.597   3.416   2.523
 3886TIP3    H211604   0.725   3.402   2.603
 3887TIP3   OH211605   3.789   1.446   2.987
 3887TIP3    H111606   3.810   1.538   3.001
 3887TIP3    H211607   3.807   1.431   2.894
 3888TIP3   OH211608   8.109   3.903   0.150
 3888TIP3    H111609   8.033   3.962   0.156
 3888TIP3    H211610   8.072   3.820   0.119
 3889TIP3   OH211611   6.839   2.522   5.486
 3889TIP3    H111612   6.758   2.526   5.536
 3889TIP3    H211613   6.854   2.612   5.457
 3890TIP3   OH211614   7.260   3.736   6.503
 3890TIP3    H111615   7.178   3.716   6.549
 3890TIP3    H211616   7.240   3.722   6.411
 3891TIP3   OH211617   1.986   0.109   6.727
 3891TIP3    H111618   2.032   0.120   6.643
 3891TIP3    H211619   1.978   0.014   6.737
 3892TIP3   OH211620   4.180   5.164   6.760
 3892TIP3    H111621   4.164   5.119   6.843
 3892TIP3    H211622   4.275   5.161   6.748
 3893TIP3   OH211623   3.599   3.543  -0.016
 3893TIP3    H111624   3.672   3.584   0.031
 3893TIP3    H211625   3.545   3.617  -0.045
 3894TIP3   OH211626   2.859   3.083   5.818
 3894TIP3    H111627   2.916   3.134   5.876
 3894TIP3    H211628   2.790   3.050   5.876
 3895TIP3   OH211629   4.595   0.968   6.088
 3895TIP3    H111630   4.529   0.991   6.023
 3895TIP3    H211631   4.568   1.015   6.167
 3896TIP3   OH211632   7.480   6.975   6.025
 3896TIP3    H111633   7.519   7.002   6.108
 3896TIP3    H211634   7.523   6.891   6.004
 3897TIP3   OH211635   7.016   7.687   1.440
 3897TIP3    H111636   6.990   7.622   1.375
 3897TIP3    H211637   6.998   7.645   1.524
 3898TIP3   OH211638   6.441   4.351   5.151
 3898TIP3    H111639   6.434   4.301   5.233
 3898TIP3    H211640   6.490   4.429   5.176
 3899TIP3   OH211641   4.318   1.678   5.825
 3899TIP3    H111642   4.259   1.603   5.816
 3899TIP3    H211643   4.293   1.719   5.908
 3900TIP3   OH211644   5.801   5.809   2.915
 3900TIP3    H111645   5.722   5.768   2.878
 3900TIP3    H211646   5.774   5.841   3.001
 3901TIP3   OH211647   6.980   0.949   3.698
 3901TIP3    H111648   6.939   0.945   3.784
 3901TIP3    H211649   7.034   1.028   3.700
 3902TIP3   OH211650   1.682   1.495   6.303
 3902TIP3    H111651   1.645   1.455   6.382
 3902TIP3    H211652   1.703   1.585   6.330
 3903TIP3   OH211653   3.985   4.084   2.206
 3903TIP3    H111654   3.988   4.004   2.154
 3903TIP3    H211655   4.044   4.144   2.161
 3904TIP3   OH211656   4.517   7.334   1.883
 3904TIP3    H111657   4.596   7.363   1.928
 3904TIP3    H211658   4.522   7.238   1.888
 3905TIP3   OH211659   3.276   3.053   4.876
 3905TIP3    H111660   3.344   3.061   4.810
 3905TIP3    H211661   3.212   2.992   4.839
 3906TIP3   OH211662   5.194   5.246   5.446
 3906TIP3    H111663   5.250   5.239   5.369
 3906TIP3    H211664   5.162   5.336   5.445
 3907TIP3   OH211665   0.887   1.057   5.609
 3907TIP3    H111666   0.821   0.988   5.621
 3907TIP3    H211667   0.835   1.135   5.590
 3908TIP3   OH211668   0.175   7.710   2.762
 3908TIP3    H111669   0.140   7.678   2.845
 3908TIP3    H211670   0.185   7.632   2.708
 3909TIP3   OH211671   6.933   7.461   5.026
 3909TIP3    H111672   6.847   7.459   5.068
 3909TIP3    H211673   6.995   7.440   5.097
 3910TIP3   OH211674   1.223   6.273   6.025
 3910TIP3    H111675   1.258   6.346   6.077
 3910TIP3    H211676   1.301   6.224   5.997
 3911TIP3   OH211677   5.553   0.970   5.401
 3911TIP3    H111678   5.513   0.983   5.315
 3911TIP3    H211679   5.636   0.925   5.382
 3912TIP3   OH211680   1.550   2.381   4.127
 3912TIP3    H111681   1.494   2.443   4.080
 3912TIP3    H211682   1.636   2.391   4.086
 3913TIP3   OH211683   5.854   6.807   6.542
 3913TIP3    H111684   5.912   6.869   6.585
 3913TIP3    H211685   5.816   6.756   6.614
 3914TIP3   OH211686   0.613   0.494   1.918
 3914TIP3    H111687   0.617   0.440   1.839
 3914TIP3    H211688   0.652   0.577   1.892
 3915TIP3   OH211689   0.267   0.868   2.992
 3915TIP3    H111690   0.178   0.832   2.989
 3915TIP3    H211691   0.296   0.870   2.901
 3916TIP3   OH211692   1.349   6.589   4.134
 3916TIP3    H111693   1.343   6.569   4.041
 3916TIP3    H211694   1.269   6.554   4.172
 3917TIP3   OH211695   3.416   7.300   3.824
 3917TIP3    H111696   3.322   7.287   3.823
 3917TIP3    H211697   3.449   7.242   3.893
 3918TIP3   OH211698   3.114   0.451   2.863
 3918TIP3    H111699   3.033   0.427   2.908
 3918TIP3    H211700   3.085   0.483   2.778
 3919TIP3   OH211701   7.204   6.411   2.164
 3919TIP3    H111702   7.202   6.345   2.095
 3919TIP3    H211703   7.125   6.394   2.215
 3920TIP3   OH211704   2.149   3.958   6.556
 3920TIP3    H111705   2.094   3.930   6.629
 3920TIP3    H211706   2.087   3.971   6.484
 3921TIP3   OH211707   7.912   2.563   1.934
 3921TIP3    H111708   7.942   2.626   1.868
 3921TIP3    H211709   7.867   2.616   2.000
 3922TIP3   OH211710   6.266   4.800   2.689
 3922TIP3    H111711   6.262   4.774   2.782
 3922TIP3    H211712   6.217   4.882   2.684
 3923TIP3   OH211713   7.926   5.064   0.571
 3923TIP3    H111714   8.020   5.057   0.590
 3923TIP3    H211715   7.888   5.099   0.652
 3924TIP3   OH211716   3.107   2.593   4.045
 3924TIP3    H111717   3.202   2.599   4.035
 3924TIP3    H211718   3.076   2.553   3.964
 3925TIP3   OH211719   5.779   0.995   4.245
 3925TIP3    H111720   5.776   1.040   4.329
 3925TIP3    H211721   5.688   0.974   4.225
 3926TIP3   OH211722   1.165   2.070   1.164
 3926TIP3    H111723   1.194   2.103   1.248
 3926TIP3    H211724   1.085   2.021   1.183
 3927TIP3   OH211725   1.980   4.240   1.769
 3927TIP3    H111726   2.027   4.251   1.852
 3927TIP3    H211727   1.906   4.183   1.791
 3928TIP3   OH211728   0.614   3.622   6.525
 3928TIP3    H111729   0.619   3.556   6.595
 3928TIP3    H211730   0.530   3.605   6.482
 3929TIP3   OH211731   8.042   2.567   3.090
 3929TIP3    H111732   8.124   2.614   3.084
 3929TIP3    H211733   8.063   2.487   3.139
 3930TIP3   OH211734   0.698   2.098   1.219
 3930TIP3    H111735   0.717   2.164   1.152
 3930TIP3    H211736   0.604   2.106   1.235
 3931TIP3   OH211737   2.532   3.600   3.591
 3931TIP3    H111738   2.525   3.507   3.567
 3931TIP3    H211739   2.511   3.602   3.685
 3932TIP3   OH211740   0.725   6.372   2.569
 3932TIP3    H111741   0.679   6.433   2.627
 3932TIP3    H211742   0.684   6.385   2.483
 3933TIP3   OH211743   3.992   4.218   2.704
 3933TIP3    H111744   3.971   4.196   2.614
 3933TIP3    H211745   3.945   4.301   2.720
 3934TIP3   OH211746   2.221   0.129   4.377
 3934TIP3    H111747   2.146   0.078   4.347
 3934TIP3    H211748   2.288   0.063   4.396
 3935TIP3   OH211749   1.485   7.031   2.425
 3935TIP3    H111750   1.473   6.949   2.378
 3935TIP3    H211751   1.501   7.096   2.356
 3936TIP3   OH211752   0.271   5.831   0.954
 3936TIP3    H111753   0.328   5.763   0.918
 3936TIP3    H211754   0.194   5.831   0.897
 3937TIP3   OH211755   6.810   0.927   3.489
 3937TIP3    H111756   6.883   0.922   3.550
 3937TIP3    H211757   6.849   0.905   3.404
 3938TIP3   OH211758   6.679   6.951   1.148
 3938TIP3    H111759   6.749   6.931   1.086
 3938TIP3    H211760   6.648   7.038   1.122
 3939TIP3   OH211761   8.247   6.364   6.034
 3939TIP3    H111762   8.329   6.325   6.062
 3939TIP3    H211763   8.186   6.290   6.027
 3940TIP3   OH211764   2.011   6.466   4.405
 3940TIP3    H111765   2.038   6.485   4.495
 3940TIP3    H211766   2.007   6.370   4.401
 3941TIP3   OH211767   4.051   2.998   2.184
 3941TIP3    H111768   3.993   2.934   2.144
 3941TIP3    H211769   4.078   3.055   2.112
 3942TIP3   OH211770   3.149   2.071   1.330
 3942TIP3    H111771   3.060   2.092   1.303
 3942TIP3    H211772   3.182   2.012   1.262
 3943TIP3   OH211773   8.052   7.457   4.317
 3943TIP3    H111774   7.992   7.410   4.260
 3943TIP3    H211775   8.089   7.389   4.374
 3944TIP3   OH211776   0.451   5.912   3.515
 3944TIP3    H111777   0.473   5.952   3.431
 3944TIP3    H211778   0.362   5.877   3.503
 3945TIP3   OH211779   1.091   3.144   3.628
 3945TIP3    H111780   1.014   3.152   3.572
 3945TIP3    H211781   1.165   3.143   3.567
 3946TIP3   OH211782   1.084   2.866   5.839
 3946TIP3    H111783   1.150   2.906   5.896
 3946TIP3    H211784   1.035   2.940   5.803
 3947TIP3   OH211785   3.376   1.275   2.401
 3947TIP3    H111786   3.386   1.313   2.489
 3947TIP3    H211787   3.333   1.191   2.416
 3948TIP3   OH211788   3.483   4.837   6.766
 3948TIP3    H111789   3.570   4.803   6.786
 3948TIP3    H211790   3.482   4.847   6.671
 3949TIP3   OH211791   8.081   5.457   1.221
 3949TIP3    H111792   8.170   5.476   1.251
 3949TIP3    H211793   8.082   5.364   1.199
 3950TIP3   OH211794   6.965   6.677   0.623
 3950TIP3    H111795   7.059   6.694   0.633
 3950TIP3    H211796   6.943   6.623   0.698
 3951TIP3   OH211797   7.294   5.778   5.071
 3951TIP3    H111798   7.265   5.715   5.006
 3951TIP3    H211799   7.338   5.726   5.138
 3952TIP3   OH211800   0.934   6.317   2.723
 3952TIP3    H111801   0.913   6.230   2.757
 3952TIP3    H211802   0.879   6.326   2.645
 3953TIP3   OH211803   2.398   0.358   4.231
 3953TIP3    H111804   2.466   0.351   4.297
 3953TIP3    H211805   2.445   0.368   4.148
 3954TIP3   OH211806   0.344   0.351   5.580
 3954TIP3    H111807   0.306   0.439   5.579
 3954TIP3    H211808   0.321   0.317   5.667
 3955TIP3   OH211809   0.143   4.642   2.251
 3955TIP3    H111810   0.214   4.579   2.261
 3955TIP3    H211811   0.187   4.723   2.224
 3956TIP3   OH211812   5.558   7.771   6.422
 3956TIP3    H111813   5.472   7.733   6.403
 3956TIP3    H211814   5.604   7.702   6.472
 3957TIP3   OH211815   7.548   7.256   2.552
 3957TIP3    H111816   7.567   7.343   2.517
 3957TIP3    H211817   7.486   7.218   2.488
 3958TIP3   OH211818   5.300   5.655   5.767
 3958TIP3    H111819   5.246   5.580   5.742
 3958TIP3    H211820   5.322   5.639   5.859
 3959TIP3   OH211821   0.805   5.735   3.320
 3959TIP3    H111822   0.785   5.658   3.373
 3959TIP3    H211823   0.780   5.809   3.375
 3960TIP3   OH211824   2.818   4.637   5.176
 3960TIP3    H111825   2.843   4.630   5.084
 3960TIP3    H211826   2.796   4.729   5.188
 3961TIP3   OH211827   1.280   4.241   2.273
 3961TIP3    H111828   1.194   4.207   2.300
 3961TIP3    H211829   1.341   4.204   2.337
 3962TIP3   OH211830   3.367   4.527   4.160
 3962TIP3    H111831   3.461   4.513   4.175
 3962TIP3    H211832   3.330   4.536   4.248
 3963TIP3   OH211833   7.775   3.270   6.743
 3963TIP3    H111834   7.733   3.356   6.742
 3963TIP3    H211835   7.759   3.237   6.831
 3964TIP3   OH211836   3.700   2.163   4.267
 3964TIP3    H111837   3.652   2.161   4.184
 3964TIP3    H211838   3.734   2.074   4.278
 3965TIP3   OH211839   1.200   4.266   5.135
 3965TIP3    H111840   1.252   4.280   5.055
 3965TIP3    H211841   1.243   4.320   5.201
 3966TIP3   OH211842   4.399   5.598   0.933
 3966TIP3    H111843   4.365   5.510   0.914
 3966TIP3    H211844   4.452   5.586   1.011
 3967TIP3   OH211845   5.903   4.845   2.521
 3967TIP3    H111846   5.852   4.916   2.483
 3967TIP3    H211847   5.956   4.887   2.589
 3968TIP3   OH211848   3.329   4.436   1.490
 3968TIP3    H111849   3.331   4.372   1.420
 3968TIP3    H211850   3.351   4.386   1.569
 3969TIP3   OH211851   1.878   7.673   4.702
 3969TIP3    H111852   1.947   7.698   4.763
 3969TIP3    H211853   1.816   7.622   4.755
 3970TIP3   OH211854   1.287   2.361   2.626
 3970TIP3    H111855   1.213   2.301   2.621
 3970TIP3    H211856   1.260   2.438   2.576
 3971TIP3   OH211857   1.533   0.283   0.858
 3971TIP3    H111858   1.491   0.232   0.789
 3971TIP3    H211859   1.561   0.364   0.815
 3972TIP3   OH211860   7.344   5.992   0.654
 3972TIP3    H111861   7.387   6.024   0.575
 3972TIP3    H211862   7.301   6.069   0.691
 3973TIP3   OH211863   4.382   0.062   4.988
 3973TIP3    H111864   4.346   0.147   4.962
 3973TIP3    H211865   4.468   0.082   5.023
 3974TIP3   OH211866   5.557   1.015   2.539
 3974TIP3    H111867   5.497   0.991   2.610
 3974TIP3    H211868   5.623   0.946   2.539
 3975TIP3   OH211869   7.141   2.671   1.192
 3975TIP3    H111870   7.133   2.758   1.153
 3975TIP3    H211871   7.147   2.611   1.117
 3976TIP3   OH211872   7.273   4.036   3.781
 3976TIP3    H111873   7.231   4.041   3.867
 3976TIP3    H211874   7.255   3.947   3.751
 3977TIP3   OH211875   3.064   3.987   4.123
 3977TIP3    H111876   3.078   4.078   4.097
 3977TIP3    H211877   3.147   3.960   4.163
 3978TIP3   OH211878   0.139   2.781   0.959
 3978TIP3    H111879   0.197   2.737   1.020
 3978TIP3    H211880   0.062   2.804   1.011
 3979TIP3   OH211881  -0.009   2.699   4.647
 3979TIP3    H111882   0.036   2.620   4.617
 3979TIP3    H211883   0.060   2.755   4.682
 3980TIP3   OH211884   5.857   6.722   3.269
 3980TIP3    H111885   5.819   6.652   3.321
 3980TIP3    H211886   5.806   6.800   3.294
 3981TIP3   OH211887   4.974   5.366   3.755
 3981TIP3    H111888   4.919   5.297   3.794
 3981TIP3    H211889   4.911   5.427   3.716
 3982TIP3   OH211890   5.240   2.295   2.009
 3982TIP3    H111891   5.220   2.313   2.100
 3982TIP3    H211892   5.172   2.341   1.960
 3983TIP3   OH211893   8.223   2.423   0.589
 3983TIP3    H111894   8.305   2.434   0.541
 3983TIP3    H211895   8.247   2.439   0.681
 3984TIP3   OH211896   1.962   1.094   4.596
 3984TIP3    H111897   2.021   1.032   4.554
 3984TIP3    H211898   1.906   1.126   4.525
 3985TIP3   OH211899   2.534   7.401   2.088
 3985TIP3    H111900   2.495   7.352   2.160
 3985TIP3    H211901   2.559   7.485   2.127
 3986TIP3   OH211902   4.102   0.779   0.307
 3986TIP3    H111903   4.086   0.873   0.295
 3986TIP3    H211904   4.118   0.770   0.401
 3987TIP3   OH211905   7.265   4.993   0.925
 3987TIP3    H111906   7.175   4.999   0.958
 3987TIP3    H211907   7.294   5.085   0.919
 3988TIP3   OH211908   0.855   5.537   5.393
 3988TIP3    H111909   0.783   5.569   5.340
 3988TIP3    H211910   0.861   5.443   5.372
 3989TIP3   OH211911   5.749   2.200   3.405
 3989TIP3    H111912   5.746   2.266   3.336
 3989TIP3    H211913   5.839   2.204   3.439
 3990TIP3   OH211914   1.380   3.630   3.366
 3990TIP3    H111915   1.387   3.703   3.304
 3990TIP3    H211916   1.329   3.665   3.439
 3991TIP3   OH211917   1.186   3.664   6.371
 3991TIP3    H111918   1.229   3.650   6.287
 3991TIP3    H211919   1.118   3.729   6.353
 3992TIP3   OH211920   1.495   2.678   4.059
 3992TIP3    H111921   1.586   2.706   4.069
 3992TIP3    H211922   1.456   2.690   4.146
 3993TIP3   OH211923   4.592   4.472   5.395
 3993TIP3    H111924   4.515   4.447   5.447
 3993TIP3    H211925   4.638   4.535   5.451
 3994TIP3   OH211926   1.468   5.556   4.074
 3994TIP3    H111927   1.430   5.473   4.044
 3994TIP3    H211928   1.436   5.567   4.163
 3995TIP3   OH211929   5.476   3.465   6.006
 3995TIP3    H111930   5.513   3.525   5.942
 3995TIP3    H211931   5.427   3.520   6.066
 3996TIP3   OH211932   3.832   3.938   0.371
 3996TIP3    H111933   3.889   3.885   0.427
 3996TIP3    H211934   3.890   3.969   0.301
 3997TIP3   OH211935   6.171   0.232   1.410
 3997TIP3    H111936   6.245   0.249   1.468
 3997TIP3    H211937   6.201   0.163   1.351
 3998TIP3   OH211938   7.780   6.876   5.757
 3998TIP3    H111939   7.718   6.846   5.823
 3998TIP3    H211940   7.806   6.963   5.786
 3999TIP3   OH211941   8.276   6.502   4.305
 3999TIP3    H111942   8.277   6.408   4.323
 3999TIP3    H211943   8.282   6.543   4.391
 4000TIP3   OH211944   1.674   2.104   1.626
 4000TIP3    H111945   1.709   2.153   1.701
 4000TIP3    H211946   1.746   2.047   1.599
 4001TIP3   OH211947   0.923   6.550   2.324
 4001TIP3    H111948   0.879   6.564   2.240
 4001TIP3    H211949   0.995   6.613   2.324
 4002TIP3   OH211950   4.755   4.448   3.171
 4002TIP3    H111951   4.736   4.387   3.243
 4002TIP3    H211952   4.675   4.447   3.117
 4003TIP3   OH211953   0.984   0.714   1.758
 4003TIP3    H111954   0.972   0.799   1.716
 4003TIP3    H211955   0.930   0.719   1.837
 4004TIP3   OH211956   0.155   2.692   3.756
 4004TIP3    H111957   0.074   2.646   3.774
 4004TIP3    H211958   0.204   2.634   3.698
 4005TIP3   OH211959   3.870   1.601   0.830
 4005TIP3    H111960   3.845   1.607   0.738
 4005TIP3    H211961   3.920   1.681   0.846
 4006TIP3   OH211962   6.352   7.775   6.463
 4006TIP3    H111963   6.264   7.744   6.444
 4006TIP3    H211964   6.381   7.818   6.382
 4007TIP3   OH211965   0.425   6.198   5.029
 4007TIP3    H111966   0.339   6.193   4.987
 4007TIP3    H211967   0.459   6.284   5.006
 4008TIP3   OH211968   5.324   6.976   5.931
 4008TIP3    H111969   5.393   6.974   5.997
 4008TIP3    H211970   5.243   6.985   5.981
 4009TIP3   OH211971   6.164   6.536   4.028
 4009TIP3    H111972   6.174   6.444   4.052
 4009TIP3    H211973   6.115   6.574   4.100
 4010TIP3   OH211974   0.184   3.509   2.540
 4010TIP3    H111975   0.117   3.448   2.507
 4010TIP3    H211976   0.207   3.474   2.626
 4011TIP3   OH211977   2.558   0.086   6.627
 4011TIP3    H111978   2.471   0.050   6.644
 4011TIP3    H211979   2.590   0.036   6.552
 4012TIP3   OH211980   3.964   7.796   5.793
 4012TIP3    H111981   3.925   7.871   5.749
 4012TIP3    H211982   3.906   7.722   5.774
 4013TIP3   OH211983   7.025   3.801   0.391
 4013TIP3    H111984   6.990   3.859   0.324
 4013TIP3    H211985   7.102   3.847   0.425
 4014TIP3   OH211986   5.913   0.715   5.447
 4014TIP3    H111987   6.007   0.707   5.460
 4014TIP3    H211988   5.892   0.804   5.474
 4015TIP3   OH211989   3.278   2.631   1.401
 4015TIP3    H111990   3.321   2.675   1.474
 4015TIP3    H211991   3.210   2.692   1.373
 4016TIP3   OH211992   8.034   3.660   5.300
 4016TIP3    H111993   8.067   3.654   5.390
 4016TIP3    H211994   8.107   3.631   5.245
 4017TIP3   OH211995   0.251   4.887   2.274
 4017TIP3    H111996   0.282   4.977   2.262
 4017TIP3    H211997   0.273   4.866   2.365
 4018TIP3   OH211998   5.220   5.270   4.742
 4018TIP3    H111999   5.237   5.228   4.657
 4018TIP3    H212000   5.210   5.363   4.721
 4019TIP3   OH212001   7.058   3.365   1.128
 4019TIP3    H112002   7.090   3.377   1.217
 4019TIP3    H212003   6.986   3.303   1.136
 4020TIP3   OH212004   4.228   6.224   4.424
 4020TIP3    H112005   4.295   6.186   4.481
 4020TIP3    H212006   4.235   6.318   4.438
 4021TIP3   OH212007   1.837   1.812   0.810
 4021TIP3    H112008   1.846   1.824   0.715
 4021TIP3    H212009   1.745   1.834   0.828
 4022TIP3   OH212010   7.890   6.918   3.272
 4022TIP3    H112011   7.884   7.008   3.302
 4022TIP3    H212012   7.804   6.880   3.290
 4023TIP3   OH212013   6.639   7.052   4.731
 4023TIP3    H112014   6.672   7.101   4.807
 4023TIP3    H212015   6.610   6.968   4.768
 4024TIP3   OH212016   4.563   1.892   4.051
 4024TIP3    H112017   4.472   1.918   4.066
 4024TIP3    H212018   4.615   1.969   4.075
 4025TIP3   OH212019   2.248   0.361   2.740
 4025TIP3    H112020   2.227   0.309   2.663
 4025TIP3    H212021   2.299   0.435   2.707
 4026TIP3   OH212022   0.641   0.306   0.161
 4026TIP3    H112023   0.660   0.382   0.215
 4026TIP3    H212024   0.702   0.313   0.087
 4027TIP3   OH212025   6.556   7.536   0.905
 4027TIP3    H112026   6.561   7.588   0.824
 4027TIP3    H212027   6.600   7.591   0.970
 4028TIP3   OH212028   3.486   5.657   2.210
 4028TIP3    H112029   3.446   5.740   2.234
 4028TIP3    H212030   3.521   5.623   2.292
 4029TIP3   OH212031   4.301   0.414   0.666
 4029TIP3    H112032   4.291   0.406   0.761
 4029TIP3    H212033   4.213   0.400   0.631
 4030TIP3   OH212034   7.641   2.079   4.036
 4030TIP3    H112035   7.618   2.166   4.070
 4030TIP3    H212036   7.717   2.096   3.979
 4031TIP3   OH212037   0.827   3.354   5.662
 4031TIP3    H112038   0.790   3.400   5.586
 4031TIP3    H212039   0.754   3.347   5.723
 4032TIP3   OH212040   0.453   1.849   6.171
 4032TIP3    H112041   0.438   1.788   6.099
 4032TIP3    H212042   0.372   1.899   6.178
 4033TIP3   OH212043   3.896   1.755   1.332
 4033TIP3    H112044   3.890   1.661   1.353
 4033TIP3    H212045   3.934   1.795   1.410
 4034TIP3   OH212046   0.021   0.948   6.166
 4034TIP3    H112047  -0.034   0.870   6.164
 4034TIP3    H212048   0.108   0.916   6.188
 4035TIP3   OH212049   1.724   2.099   1.110
 4035TIP3    H112050   1.808   2.080   1.153
 4035TIP3    H212051   1.684   2.167   1.163
 4036TIP3   OH212052   2.229   3.461   5.077
 4036TIP3    H112053   2.183   3.388   5.118
 4036TIP3    H212054   2.240   3.435   4.985
 4037TIP3   OH212055   4.389   4.721   2.836
 4037TIP3    H112056   4.364   4.646   2.782
 4037TIP3    H212057   4.305   4.761   2.862
 4038TIP3   OH212058   2.406   6.285   6.598
 4038TIP3    H112059   2.425   6.364   6.649
 4038TIP3    H212060   2.428   6.309   6.508
 4039TIP3   OH212061   8.125   7.190   4.450
 4039TIP3    H112062   8.052   7.175   4.509
 4039TIP3    H212063   8.108   7.132   4.376
 4040TIP3   OH212064   2.405   1.083   0.820
 4040TIP3    H112065   2.325   1.044   0.857
 4040TIP3    H212066   2.373   1.151   0.761
 4041TIP3   OH212067   0.139   0.424   0.460
 4041TIP3    H112068   0.168   0.511   0.487
 4041TIP3    H212069   0.044   0.433   0.451
 4042TIP3   OH212070   4.672   6.641   1.911
 4042TIP3    H112071   4.713   6.725   1.891
 4042TIP3    H212072   4.655   6.602   1.826
 4043TIP3   OH212073   6.250   5.874   2.031
 4043TIP3    H112074   6.207   5.937   2.089
 4043TIP3    H212075   6.259   5.921   1.948
 4044TIP3   OH212076   3.177   2.189   3.469
 4044TIP3    H112077   3.235   2.163   3.397
 4044TIP3    H212078   3.168   2.110   3.522
 4045TIP3   OH212079   3.713   2.554   3.639
 4045TIP3    H112080   3.706   2.648   3.655
 4045TIP3    H212081   3.705   2.545   3.544
 4046TIP3   OH212082   3.850   3.947   6.023
 4046TIP3    H112083   3.832   3.883   5.955
 4046TIP3    H212084   3.764   3.983   6.046
 4047TIP3   OH212085   6.946   4.165   3.898
 4047TIP3    H112086   6.942   4.121   3.983
 4047TIP3    H212087   6.936   4.258   3.919
 4048TIP3   OH212088   5.290   7.827   3.142
 4048TIP3    H112089   5.366   7.854   3.194
 4048TIP3    H212090   5.326   7.769   3.075
 4049TIP3   OH212091   6.653   1.081   3.153
 4049TIP3    H112092   6.678   1.080   3.061
 4049TIP3    H212093   6.732   1.110   3.199
 4050TIP3   OH212094   5.253   4.768   2.465
 4050TIP3    H112095   5.286   4.755   2.376
 4050TIP3    H212096   5.161   4.791   2.453
 4051TIP3   OH212097   6.752   2.920   0.198
 4051TIP3    H112098   6.694   2.979   0.149
 4051TIP3    H212099   6.720   2.924   0.288
 4052TIP3   OH212100   1.829   4.234   3.424
 4052TIP3    H112101   1.783   4.313   3.395
 4052TIP3    H212102   1.922   4.255   3.414
 4053TIP3   OH212103   7.072   6.559   6.676
 4053TIP3    H112104   7.101   6.598   6.759
 4053TIP3    H212105   7.038   6.633   6.625
 4054TIP3   OH212106   6.709   0.929   2.683
 4054TIP3    H112107   6.666   0.846   2.668
 4054TIP3    H212108   6.802   0.908   2.683
 4055TIP3   OH212109   3.534   1.840   5.844
 4055TIP3    H112110   3.458   1.797   5.806
 4055TIP3    H212111   3.498   1.909   5.899
 4056TIP3   OH212112   0.268   7.782   1.381
 4056TIP3    H112113   0.355   7.775   1.421
 4056TIP3    H212114   0.214   7.722   1.432
 4057TIP3   OH212115   6.222   2.951   0.436
 4057TIP3    H112116   6.152   2.949   0.501
 4057TIP3    H212117   6.300   2.975   0.486
 4058TIP3   OH212118   3.174   2.173   5.109
 4058TIP3    H112119   3.225   2.223   5.173
 4058TIP3    H212120   3.215   2.192   5.025
 4059TIP3   OH212121   3.404   1.903   1.566
 4059TIP3    H112122   3.496   1.877   1.562
 4059TIP3    H212123   3.395   1.972   1.501
 4060TIP3   OH212124   0.042   2.004   3.234
 4060TIP3    H112125   0.054   1.910   3.249
 4060TIP3    H212126   0.118   2.030   3.182
 4061TIP3   OH212127   5.857   5.620   0.096
 4061TIP3    H112128   5.771   5.658   0.114
 4061TIP3    H212129   5.843   5.563   0.021
 4062TIP3   OH212130   2.539   1.932   5.672
 4062TIP3    H112131   2.559   1.921   5.579
 4062TIP3    H212132   2.449   1.902   5.681
 4063TIP3   OH212133   3.773   4.682   2.990
 4063TIP3    H112134   3.708   4.747   2.964
 4063TIP3    H212135   3.724   4.617   3.041
 4064TIP3   OH212136   1.108   3.566   5.136
 4064TIP3    H112137   1.092   3.519   5.054
 4064TIP3    H212138   1.077   3.507   5.205
 4065TIP3   OH212139   3.519   2.248   1.814
 4065TIP3    H112140   3.463   2.291   1.878
 4065TIP3    H212141   3.495   2.288   1.730
 4066TIP3   OH212142   0.886   1.980   5.050
 4066TIP3    H112143   0.979   1.976   5.071
 4066TIP3    H212144   0.875   1.918   4.978
 4067TIP3   OH212145   1.510   2.061   5.242
 4067TIP3    H112146   1.515   2.117   5.319
 4067TIP3    H212147   1.582   1.999   5.253
 4068TIP3   OH212148   4.732   1.625   4.793
 4068TIP3    H112149   4.661   1.561   4.797
 4068TIP3    H212150   4.783   1.599   4.716
 4069TIP3   OH212151   7.327   3.046   1.249
 4069TIP3    H112152   7.306   3.021   1.339
 4069TIP3    H212153   7.320   3.141   1.248
 4070TIP3   OH212154   8.091   1.836   5.650
 4070TIP3    H112155   8.016   1.892   5.671
 4070TIP3    H212156   8.144   1.837   5.730
 4071TIP3   OH212157   2.195   3.743   0.421
 4071TIP3    H112158   2.227   3.655   0.443
 4071TIP3    H212159   2.258   3.802   0.461
 4072TIP3   OH212160   0.193   6.133   4.187
 4072TIP3    H112161   0.111   6.151   4.233
 4072TIP3    H212162   0.261   6.150   4.252
 4073TIP3   OH212163   2.992   7.250   4.745
 4073TIP3    H112164   3.080   7.264   4.710
 4073TIP3    H212165   2.935   7.298   4.686
 4074TIP3   OH212166   4.253   2.978   0.341
 4074TIP3    H112167   4.204   2.946   0.416
 4074TIP3    H212168   4.210   3.061   0.319
 4075TIP3   OH212169   0.687   1.473   4.253
 4075TIP3    H112170   0.598   1.439   4.249
 4075TIP3    H212171   0.702   1.490   4.346
 4076TIP3   OH212172   4.609   7.550   5.262
 4076TIP3    H112173   4.663   7.629   5.269
 4076TIP3    H212174   4.661   7.482   5.304
 4077TIP3   OH212175   7.553   7.420   6.712
 4077TIP3    H112176   7.518   7.370   6.638
 4077TIP3    H212177   7.648   7.407   6.708
 4078TIP3   OH212178   1.579   0.975   2.847
 4078TIP3    H112179   1.575   1.051   2.788
 4078TIP3    H212180   1.490   0.940   2.846
 4079TIP3   OH212181   0.526   2.543   1.052
 4079TIP3    H112182   0.465   2.479   1.015
 4079TIP3    H212183   0.492   2.628   1.024
 4080TIP3   OH212184   0.760   2.980   5.279
 4080TIP3    H112185   0.740   3.054   5.337
 4080TIP3    H212186   0.795   3.020   5.200
 4081TIP3   OH212187   3.526   5.876   5.578
 4081TIP3    H112188   3.511   5.954   5.632
 4081TIP3    H212189   3.546   5.806   5.641
 4082TIP3   OH212190   0.899   7.544   3.950
 4082TIP3    H112191   0.869   7.498   4.029
 4082TIP3    H212192   0.829   7.607   3.932
 4083TIP3   OH212193   3.008   4.090   0.559
 4083TIP3    H112194   3.077   4.039   0.517
 4083TIP3    H212195   2.967   4.029   0.621
 4084TIP3   OH212196   3.558   3.040   4.520
 4084TIP3    H112197   3.618   3.100   4.565
 4084TIP3    H212198   3.504   3.004   4.590
 4085TIP3   OH212199   8.180   7.366   0.738
 4085TIP3    H112200   8.232   7.376   0.818
 4085TIP3    H212201   8.141   7.453   0.723
 4086TIP3   OH212202   3.100   4.971   1.605
 4086TIP3    H112203   3.183   4.953   1.561
 4086TIP3    H212204   3.125   4.994   1.695
 4087TIP3   OH212205   2.468   4.986   6.388
 4087TIP3    H112206   2.510   5.067   6.357
 4087TIP3    H212207   2.374   5.006   6.386
 4088TIP3   OH212208   3.493   3.518   1.419
 4088TIP3    H112209   3.405   3.543   1.390
 4088TIP3    H212210   3.486   3.426   1.444
 4089TIP3   OH212211   5.722   5.818   0.432
 4089TIP3    H112212   5.692   5.741   0.384
 4089TIP3    H212213   5.812   5.797   0.457
 4090TIP3   OH212214   3.631   4.501   5.865
 4090TIP3    H112215   3.600   4.500   5.775
 4090TIP3    H212216   3.726   4.512   5.858
 4091TIP3   OH212217   7.393   3.889   0.223
 4091TIP3    H112218   7.335   3.920   0.153
 4091TIP3    H212219   7.427   3.969   0.263
 4092TIP3   OH212220   6.110   2.401   1.909
 4092TIP3    H112221   6.063   2.318   1.923
 4092TIP3    H212222   6.128   2.433   1.997
 4093TIP3   OH212223   6.599   5.816   4.647
 4093TIP3    H112224   6.687   5.817   4.609
 4093TIP3    H212225   6.541   5.794   4.574
 4094TIP3   OH212226   3.682   5.887   2.335
 4094TIP3    H112227   3.626   5.958   2.367
 4094TIP3    H212228   3.693   5.830   2.411
 4095TIP3   OH212229   8.276   7.635   4.291
 4095TIP3    H112230   8.332   7.594   4.356
 4095TIP3    H212231   8.212   7.567   4.268
 4096TIP3   OH212232   5.058   1.220   2.097
 4096TIP3    H112233   5.042   1.294   2.038
 4096TIP3    H212234   5.149   1.231   2.125
 4097TIP3   OH212235   5.168   5.237   2.964
 4097TIP3    H112236   5.085   5.269   2.998
 4097TIP3    H212237   5.151   5.145   2.942
 4098TIP3   OH212238   5.898   3.330   2.583
 4098TIP3    H112239   5.807   3.351   2.562
 4098TIP3    H212240   5.933   3.410   2.623
 4099TIP3   OH212241   3.358   6.779   0.376
 4099TIP3    H112242   3.346   6.744   0.288
 4099TIP3    H212243   3.318   6.866   0.374
 4100TIP3   OH212244   2.453   5.476   4.845
 4100TIP3    H112245   2.458   5.511   4.756
 4100TIP3    H212246   2.536   5.499   4.885
 4101TIP3   OH212247   0.519   4.749   6.531
 4101TIP3    H112248   0.519   4.654   6.527
 4101TIP3    H212249   0.610   4.772   6.548
 4102TIP3   OH212250   6.106   4.034   6.639
 4102TIP3    H112251   6.033   4.046   6.578
 4102TIP3    H212252   6.127   4.122   6.668
 4103TIP3   OH212253   4.468   4.939   4.262
 4103TIP3    H112254   4.441   4.923   4.353
 4103TIP3    H212255   4.450   4.856   4.217
 4104TIP3   OH212256   4.167   1.255   4.012
 4104TIP3    H112257   4.193   1.215   4.095
 4104TIP3    H212258   4.093   1.311   4.034
 4105TIP3   OH212259   4.009   1.126   5.590
 4105TIP3    H112260   4.088   1.173   5.615
 4105TIP3    H212261   3.975   1.174   5.515
 4106TIP3   OH212262   7.996   3.381   3.519
 4106TIP3    H112263   7.951   3.299   3.497
 4106TIP3    H212264   8.088   3.357   3.523
 4107TIP3   OH212265   4.980   2.365   1.906
 4107TIP3    H112266   4.952   2.330   1.821
 4107TIP3    H212267   4.928   2.445   1.916
 4108TIP3   OH212268   2.599   5.524   1.956
 4108TIP3    H112269   2.622   5.432   1.943
 4108TIP3    H212270   2.569   5.553   1.869
 4109TIP3   OH212271   4.258   0.502   6.707
 4109TIP3    H112272   4.168   0.515   6.739
 4109TIP3    H212273   4.305   0.580   6.736
 4110TIP3   OH212274   0.263   1.990   5.903
 4110TIP3    H112275   0.257   2.069   5.957
 4110TIP3    H212276   0.308   2.020   5.824
 4111TIP3   OH212277   0.304   0.625   0.252
 4111TIP3    H112278   0.296   0.718   0.273
 4111TIP3    H212279   0.394   0.615   0.220
 4112TIP3   OH212280   6.193   3.855   0.185
 4112TIP3    H112281   6.143   3.810   0.117
 4112TIP3    H212282   6.232   3.930   0.141
 4113TIP3   OH212283   5.011   5.846   3.791
 4113TIP3    H112284   4.929   5.891   3.811
 4113TIP3    H212285   5.029   5.792   3.868
 4114TIP3   OH212286   6.505   3.702   6.414
 4114TIP3    H112287   6.481   3.696   6.322
 4114TIP3    H212288   6.594   3.736   6.414
 4115TIP3   OH212289   6.996   7.666   6.054
 4115TIP3    H112290   6.966   7.708   5.973
 4115TIP3    H212291   7.017   7.576   6.029
 4116TIP3   OH212292   3.444   5.949   6.730
 4116TIP3    H112293   3.378   5.917   6.669
 4116TIP3    H212294   3.423   5.908   6.813
 4117TIP3   OH212295   7.467   4.384   3.401
 4117TIP3    H112296   7.524   4.335   3.342
 4117TIP3    H212297   7.456   4.327   3.477
 4118TIP3   OH212298   4.668   1.010   1.454
 4118TIP3    H112299   4.612   1.087   1.447
 4118TIP3    H212300   4.750   1.036   1.412
 4119TIP3   OH212301   3.588   4.295   2.865
 4119TIP3    H112302   3.517   4.282   2.928
 4119TIP3    H212303   3.665   4.311   2.918
 4120TIP3   OH212304   2.250   3.701   1.361
 4120TIP3    H112305   2.224   3.785   1.398
 4120TIP3    H212306   2.320   3.670   1.418
 4121TIP3   OH212307   1.035   0.751   5.959
 4121TIP3    H112308   1.039   0.656   5.946
 4121TIP3    H212309   1.004   0.785   5.875
 4122TIP3   OH212310   3.329   7.716   2.464
 4122TIP3    H112311   3.288   7.710   2.377
 4122TIP3    H212312   3.423   7.722   2.445
 4123TIP3   OH212313   1.344   0.949   0.518
 4123TIP3    H112314   1.412   0.884   0.503
 4123TIP3    H212315   1.392   1.028   0.543
 4124TIP3   OH212316   3.614   1.421   2.624
 4124TIP3    H112317   3.521   1.439   2.611
 4124TIP3    H212318   3.633   1.347   2.566
 4125TIP3   OH212319   6.700   5.569   6.023
 4125TIP3    H112320   6.617   5.522   6.015
 4125TIP3    H212321   6.712   5.611   5.937
 4126TIP3   OH212322   1.175   0.829   1.944
 4126TIP3    H112323   1.136   0.795   1.864
 4126TIP3    H212324   1.265   0.851   1.920
 4127TIP3   OH212325   6.398   4.367   5.799
 4127TIP3    H112326   6.487   4.330   5.793
 4127TIP3    H212327   6.384   4.380   5.893
 4128TIP3   OH212328   5.761   6.459   0.864
 4128TIP3    H112329   5.723   6.546   0.853
 4128TIP3    H212330   5.690   6.399   0.842
 4129TIP3   OH212331   6.176   3.198   4.700
 4129TIP3    H112332   6.230   3.270   4.732
 4129TIP3    H212333   6.131   3.165   4.778
 4130TIP3   OH212334   7.040   7.555   4.786
 4130TIP3    H112335   6.955   7.565   4.742
 4130TIP3    H212336   7.019   7.567   4.879
 4131TIP3   OH212337   0.642   3.676   0.819
 4131TIP3    H112338   0.660   3.727   0.898
 4131TIP3    H212339   0.547   3.670   0.816
 4132TIP3   OH212340   1.453   1.559   1.453
 4132TIP3    H112341   1.510   1.485   1.436
 4132TIP3    H212342   1.413   1.540   1.538
 4133TIP3   OH212343   5.715   2.597   3.983
 4133TIP3    H112344   5.679   2.537   3.917
 4133TIP3    H212345   5.639   2.646   4.014
 4134TIP3   OH212346   7.214   0.624   1.631
 4134TIP3    H112347   7.163   0.642   1.552
 4134TIP3    H212348   7.168   0.552   1.674
 4135TIP3   OH212349   3.263   0.108   3.475
 4135TIP3    H112350   3.329   0.128   3.409
 4135TIP3    H212351   3.190   0.070   3.426
 4136TIP3   OH212352   2.483   4.594   1.131
 4136TIP3    H112353   2.543   4.666   1.145
 4136TIP3    H212354   2.468   4.558   1.219
 4137TIP3   OH212355   2.216   6.596   6.318
 4137TIP3    H112356   2.125   6.573   6.302
 4137TIP3    H212357   2.214   6.689   6.340
 4138TIP3   OH212358   6.576   1.656   0.504
 4138TIP3    H112359   6.629   1.734   0.487
 4138TIP3    H212360   6.581   1.645   0.599
 4139TIP3   OH212361   4.836   5.172   3.908
 4139TIP3    H112362   4.745   5.152   3.887
 4139TIP3    H212363   4.877   5.086   3.923
 4140TIP3   OH212364   5.382   3.962   2.948
 4140TIP3    H112365   5.326   4.040   2.944
 4140TIP3    H212366   5.354   3.909   2.872
 4141TIP3   OH212367   5.474   0.194   0.316
 4141TIP3    H112368   5.430   0.168   0.235
 4141TIP3    H212369   5.458   0.123   0.377
 4142TIP3   OH212370   8.031   1.687   2.453
 4142TIP3    H112371   8.053   1.604   2.497
 4142TIP3    H212372   8.084   1.753   2.498
 4143TIP3   OH212373   6.130   7.826   0.461
 4143TIP3    H112374   6.040   7.815   0.429
 4143TIP3    H212375   6.142   7.921   0.464
 4144TIP3   OH212376   0.435   7.336   5.447
 4144TIP3    H112377   0.375   7.410   5.441
 4144TIP3    H212378   0.403   7.274   5.382
 4145TIP3   OH212379   1.886   1.270   5.671
 4145TIP3    H112380   1.911   1.189   5.715
 4145TIP3    H212381   1.880   1.334   5.742
 4146TIP3   OH212382   4.265   1.577   2.014
 4146TIP3    H112383   4.220   1.553   2.095
 4146TIP3    H212384   4.253   1.501   1.956
 4147TIP3   OH212385   3.085   1.921   0.295
 4147TIP3    H112386   3.021   1.987   0.267
 4147TIP3    H212387   3.149   1.918   0.225
 4148TIP3   OH212388   7.645   1.139   2.362
 4148TIP3    H112389   7.737   1.141   2.335
 4148TIP3    H212390   7.648   1.147   2.457
 4149TIP3   OH212391   4.110   2.938   1.682
 4149TIP3    H112392   4.138   3.008   1.741
 4149TIP3    H212393   4.148   2.858   1.720
 4150TIP3   OH212394   4.981   0.986   6.525
 4150TIP3    H112395   5.012   0.959   6.612
 4150TIP3    H212396   4.945   0.907   6.487
 4151TIP3   OH212397   6.409   4.299   1.455
 4151TIP3    H112398   6.406   4.338   1.368
 4151TIP3    H212399   6.471   4.353   1.504
 4152TIP3   OH212400   4.698   1.559   2.170
 4152TIP3    H112401   4.619   1.613   2.181
 4152TIP3    H212402   4.682   1.511   2.089
 4153TIP3   OH212403   8.152   4.659   5.421
 4153TIP3    H112404   8.114   4.630   5.338
 4153TIP3    H212405   8.079   4.659   5.483
 4154TIP3   OH212406   8.256   3.387   0.177
 4154TIP3    H112407   8.246   3.428   0.091
 4154TIP3    H212408   8.351   3.384   0.192
 4155TIP3   OH212409  -0.023   3.166   1.592
 4155TIP3    H112410   0.003   3.252   1.560
 4155TIP3    H212411  -0.030   3.178   1.687
 4156TIP3   OH212412   6.293   1.905   6.458
 4156TIP3    H112413   6.240   1.961   6.401
 4156TIP3    H212414   6.383   1.934   6.442
 4157TIP3   OH212415   0.854   5.403   2.393
 4157TIP3    H112416   0.836   5.496   2.407
 4157TIP3    H212417   0.948   5.395   2.403
 4158TIP3   OH212418   1.356   0.096   1.621
 4158TIP3    H112419   1.288   0.046   1.666
 4158TIP3    H212420   1.436   0.044   1.633
 4159TIP3   OH212421   2.200   6.239   0.845
 4159TIP3    H112422   2.218   6.146   0.858
 4159TIP3    H212423   2.129   6.258   0.907
 4160TIP3   OH212424   7.277   3.680   4.619
 4160TIP3    H112425   7.322   3.662   4.536
 4160TIP3    H212426   7.332   3.642   4.686
 4161TIP3   OH212427   6.456   2.005   1.388
 4161TIP3    H112428   6.541   2.049   1.384
 4161TIP3    H212429   6.475   1.914   1.364
 4162TIP3   OH212430   0.873   7.696   4.677
 4162TIP3    H112431   0.942   7.659   4.732
 4162TIP3    H212432   0.830   7.619   4.638
 4163TIP3   OH212433   4.211   3.865   5.363
 4163TIP3    H112434   4.269   3.941   5.371
 4163TIP3    H212435   4.219   3.819   5.446
 4164TIP3   OH212436   3.078   6.523   6.588
 4164TIP3    H112437   2.995   6.477   6.599
 4164TIP3    H212438   3.136   6.485   6.654
 4165TIP3   OH212439   2.974   1.750   3.501
 4165TIP3    H112440   2.922   1.721   3.426
 4165TIP3    H212441   3.011   1.670   3.536
 4166TIP3   OH212442   8.070   3.852   1.805
 4166TIP3    H112443   8.070   3.891   1.892
 4166TIP3    H212444   8.141   3.788   1.807
 4167TIP3   OH212445   4.584   6.543   3.122
 4167TIP3    H112446   4.540   6.527   3.038
 4167TIP3    H212447   4.595   6.455   3.160
 4168TIP3   OH212448   2.663   3.265   2.810
 4168TIP3    H112449   2.587   3.268   2.868
 4168TIP3    H212450   2.735   3.296   2.864
 4169TIP3   OH212451   5.664   2.708   6.303
 4169TIP3    H112452   5.758   2.710   6.284
 4169TIP3    H212453   5.623   2.706   6.217
 4170TIP3   OH212454   2.411   4.795   0.399
 4170TIP3    H112455   2.422   4.834   0.485
 4170TIP3    H212456   2.317   4.786   0.388
 4171TIP3   OH212457   8.193   4.424   4.636
 4171TIP3    H112458   8.189   4.337   4.598
 4171TIP3    H212459   8.175   4.412   4.729
 4172TIP3   OH212460   2.466   2.558   3.092
 4172TIP3    H112461   2.375   2.539   3.112
 4172TIP3    H212462   2.514   2.480   3.122
 4173TIP3   OH212463   1.335   5.389   3.661
 4173TIP3    H112464   1.298   5.302   3.679
 4173TIP3    H212465   1.263   5.439   3.623
 4174TIP3   OH212466   5.231   3.959   6.019
 4174TIP3    H112467   5.211   4.051   6.004
 4174TIP3    H212468   5.297   3.959   6.089
 4175TIP3   OH212469   4.238   3.126   1.813
 4175TIP3    H112470   4.268   3.216   1.801
 4175TIP3    H212471   4.180   3.130   1.889
 4176TIP3   OH212472   0.134   1.235   3.689
 4176TIP3    H112473   0.075   1.266   3.758
 4176TIP3    H212474   0.171   1.315   3.651
 4177TIP3   OH212475   6.255   2.297   5.606
 4177TIP3    H112476   6.179   2.347   5.575
 4177TIP3    H212477   6.326   2.323   5.547
 4178TIP3   OH212478   0.441   4.533   2.116
 4178TIP3    H112479   0.502   4.607   2.119
 4178TIP3    H212480   0.400   4.540   2.030
 4179TIP3   OH212481   5.106   3.226   6.108
 4179TIP3    H112482   5.202   3.226   6.115
 4179TIP3    H212483   5.088   3.169   6.033
 4180TIP3   OH212484   5.841   5.950   2.397
 4180TIP3    H112485   5.911   5.999   2.440
 4180TIP3    H212486   5.820   5.880   2.460
 4181TIP3   OH212487   4.192   5.953   1.293
 4181TIP3    H112488   4.259   5.948   1.225
 4181TIP3    H212489   4.232   6.006   1.362
 4182TIP3   OH212490   1.834   1.823   6.568
 4182TIP3    H112491   1.921   1.864   6.564
 4182TIP3    H212492   1.803   1.843   6.656
 4183TIP3   OH212493   1.292   5.117   3.355
 4183TIP3    H112494   1.354   5.045   3.363
 4183TIP3    H212495   1.346   5.196   3.356
 4184TIP3   OH212496   2.225   7.599   5.771
 4184TIP3    H112497   2.249   7.566   5.857
 4184TIP3    H212498   2.278   7.547   5.710
 4185TIP3   OH212499   2.899   1.733   3.110
 4185TIP3    H112500   2.870   1.669   3.044
 4185TIP3    H212501   2.818   1.764   3.150
 4186TIP3   OH212502   3.332   1.654   6.653
 4186TIP3    H112503   3.264   1.722   6.651
 4186TIP3    H212504   3.317   1.603   6.573
 4187TIP3   OH212505   2.265   2.269   4.760
 4187TIP3    H112506   2.198   2.234   4.819
 4187TIP3    H212507   2.264   2.363   4.776
 4188TIP3   OH212508   4.036   4.505   4.951
 4188TIP3    H112509   4.069   4.421   4.918
 4188TIP3    H212510   4.038   4.495   5.047
 4189TIP3   OH212511   6.970   4.024   6.435
 4189TIP3    H112512   6.983   4.086   6.507
 4189TIP3    H212513   6.931   4.077   6.365
 4190TIP3   OH212514   5.723   4.478   5.720
 4190TIP3    H112515   5.743   4.403   5.775
 4190TIP3    H212516   5.628   4.482   5.717
 4191TIP3   OH212517   4.970   4.267   2.762
 4191TIP3    H112518   5.006   4.179   2.772
 4191TIP3    H212519   5.019   4.320   2.825
 4192TIP3   OH212520   7.464   0.476   1.551
 4192TIP3    H112521   7.426   0.560   1.576
 4192TIP3    H212522   7.542   0.467   1.606
 4193TIP3   OH212523   7.834   6.179   6.641
 4193TIP3    H112524   7.907   6.160   6.700
 4193TIP3    H212525   7.819   6.273   6.652
 4194TIP3   OH212526   4.812   6.726   0.511
 4194TIP3    H112527   4.751   6.755   0.444
 4194TIP3    H212528   4.842   6.807   0.553
 4195TIP3   OH212529   3.225   7.179   0.916
 4195TIP3    H112530   3.225   7.094   0.873
 4195TIP3    H212531   3.317   7.207   0.915
 4196TIP3   OH212532   1.883   5.606   6.022
 4196TIP3    H112533   1.810   5.567   6.070
 4196TIP3    H212534   1.917   5.673   6.082
 4197TIP3   OH212535   3.031   7.550   3.152
 4197TIP3    H112536   3.100   7.514   3.207
 4197TIP3    H212537   3.068   7.552   3.064
 4198TIP3   OH212538   3.991   7.718   1.668
 4198TIP3    H112539   3.938   7.662   1.613
 4198TIP3    H212540   4.053   7.759   1.607
 4199TIP3   OH212541   6.231   3.567   1.720
 4199TIP3    H112542   6.171   3.642   1.724
 4199TIP3    H212543   6.234   3.534   1.810
 4200TIP3   OH212544   7.859   6.222   5.560
 4200TIP3    H112545   7.938   6.273   5.544
 4200TIP3    H212546   7.834   6.245   5.650
 4201TIP3   OH212547   5.515   3.731   5.483
 4201TIP3    H112548   5.560   3.667   5.427
 4201TIP3    H212549   5.430   3.690   5.500
 4202TIP3   OH212550   4.645   4.086   3.627
 4202TIP3    H112551   4.651   4.001   3.670
 4202TIP3    H212552   4.703   4.143   3.677
 4203TIP3   OH212553   3.312   2.993   5.794
 4203TIP3    H112554   3.268   3.064   5.842
 4203TIP3    H212555   3.261   2.985   5.713
 4204TIP3   OH212556   0.483   3.550   2.469
 4204TIP3    H112557   0.426   3.610   2.421
 4204TIP3    H212558   0.503   3.597   2.551
 4205TIP3   OH212559   4.287   6.123   3.950
 4205TIP3    H112560   4.257   6.086   4.033
 4205TIP3    H212561   4.286   6.050   3.888
 4206TIP3   OH212562   7.806   2.666   5.075
 4206TIP3    H112563   7.757   2.644   4.996
 4206TIP3    H212564   7.740   2.701   5.135
 4207TIP3   OH212565   6.631   6.521   2.161
 4207TIP3    H112566   6.655   6.430   2.175
 4207TIP3    H212567   6.594   6.550   2.244
 4208TIP3   OH212568   7.127   0.158   5.582
 4208TIP3    H112569   7.172   0.134   5.501
 4208TIP3    H212570   7.162   0.098   5.648
 4209TIP3   OH212571   6.279   2.395   0.497
 4209TIP3    H112572   6.231   2.410   0.579
 4209TIP3    H212573   6.304   2.303   0.500
 4210TIP3   OH212574   4.264   3.406   1.713
 4210TIP3    H112575   4.354   3.408   1.681
 4210TIP3    H212576   4.218   3.471   1.659
 4211TIP3   OH212577   3.257   5.866   2.047
 4211TIP3    H112578   3.345   5.900   2.060
 4211TIP3    H212579   3.241   5.811   2.123
 4212TIP3   OH212580   2.684   7.827   0.488
 4212TIP3    H112581   2.688   7.803   0.581
 4212TIP3    H212582   2.642   7.752   0.446
 4213TIP3   OH212583   4.210   7.239   5.827
 4213TIP3    H112584   4.172   7.189   5.755
 4213TIP3    H212585   4.303   7.214   5.826
 4214TIP3   OH212586   3.284   3.889   5.575
 4214TIP3    H112587   3.263   3.965   5.521
 4214TIP3    H212588   3.378   3.875   5.562
 4215TIP3   OH212589   1.565   1.379   5.231
 4215TIP3    H112590   1.587   1.379   5.325
 4215TIP3    H212591   1.630   1.437   5.192
 4216TIP3   OH212592   4.266   0.611   1.713
 4216TIP3    H112593   4.208   0.676   1.753
 4216TIP3    H212594   4.219   0.528   1.722
 4217TIP3   OH212595   4.242   6.153   6.021
 4217TIP3    H112596   4.294   6.078   5.994
 4217TIP3    H212597   4.152   6.131   5.996
 4218TIP3   OH212598   0.659   0.919   3.360
 4218TIP3    H112599   0.648   0.843   3.418
 4218TIP3    H212600   0.597   0.904   3.289
 4219TIP3   OH212601   2.286   0.300   5.778
 4219TIP3    H112602   2.305   0.387   5.815
 4219TIP3    H212603   2.258   0.248   5.853
 4220TIP3   OH212604   1.679   7.357   6.627
 4220TIP3    H112605   1.602   7.309   6.594
 4220TIP3    H212606   1.662   7.448   6.603
 4221TIP3   OH212607   4.364   1.468   0.386
 4221TIP3    H112608   4.456   1.469   0.413
 4221TIP3    H212609   4.335   1.558   0.398
 4222TIP3   OH212610   1.327   0.945   4.903
 4222TIP3    H112611   1.350   1.004   4.974
 4222TIP3    H212612   1.361   0.860   4.930
 4223TIP3   OH212613   1.651   3.892   0.821
 4223TIP3    H112614   1.695   3.809   0.800
 4223TIP3    H212615   1.720   3.958   0.814
 4224TIP3   OH212616   6.566   0.159   5.682
 4224TIP3    H112617   6.506   0.195   5.617
 4224TIP3    H212618   6.550   0.211   5.761
 4225TIP3   OH212619   4.539   4.869   6.570
 4225TIP3    H112620   4.602   4.940   6.577
 4225TIP3    H212621   4.583   4.794   6.611
 4226TIP3   OH212622   6.968   4.556   5.696
 4226TIP3    H112623   7.025   4.481   5.681
 4226TIP3    H212624   7.000   4.623   5.636
 4227TIP3   OH212625   6.067   6.312   5.016
 4227TIP3    H112626   6.109   6.351   4.939
 4227TIP3    H212627   5.984   6.277   4.982
 4228TIP3   OH212628   3.759   7.086   4.662
 4228TIP3    H112629   3.665   7.096   4.681
 4228TIP3    H212630   3.763   7.064   4.569
 4229TIP3   OH212631   6.812   0.467   2.192
 4229TIP3    H112632   6.835   0.377   2.210
 4229TIP3    H212633   6.852   0.486   2.107
 4230TIP3   OH212634   2.507   6.415   4.011
 4230TIP3    H112635   2.504   6.375   3.925
 4230TIP3    H212636   2.417   6.410   4.043
 4231TIP3   OH212637   6.654   1.335   6.060
 4231TIP3    H112638   6.610   1.360   5.978
 4231TIP3    H212639   6.723   1.401   6.070
 4232TIP3   OH212640   4.109   0.244   5.878
 4232TIP3    H112641   4.108   0.297   5.958
 4232TIP3    H212642   4.183   0.184   5.891
 4233TIP3   OH212643   2.936   0.060   1.934
 4233TIP3    H112644   2.943  -0.025   1.891
 4233TIP3    H212645   3.019   0.103   1.916
 4234TIP3   OH212646   3.948   0.487   1.567
 4234TIP3    H112647   4.013   0.519   1.504
 4234TIP3    H212648   3.994   0.421   1.618
 4235TIP3   OH212649   6.570   1.025   0.656
 4235TIP3    H112650   6.502   1.084   0.690
 4235TIP3    H212651   6.527   0.940   0.651
 4236TIP3   OH212652   0.842   2.781   3.819
 4236TIP3    H112653   0.876   2.696   3.846
 4236TIP3    H212654   0.758   2.762   3.779
 4237TIP3   OH212655   4.717   2.821   6.603
 4237TIP3    H112656   4.675   2.736   6.593
 4237TIP3    H212657   4.741   2.826   6.695
 4238TIP3   OH212658   3.911   7.577   5.183
 4238TIP3    H112659   3.930   7.543   5.271
 4238TIP3    H212660   3.848   7.647   5.199
 4239TIP3   OH212661   3.306   3.543   5.582
 4239TIP3    H112662   3.314   3.604   5.509
 4239TIP3    H212663   3.311   3.457   5.541
 4240TIP3   OH212664   6.457   4.446   2.151
 4240TIP3    H112665   6.441   4.525   2.204
 4240TIP3    H212666   6.483   4.480   2.065
 4241TIP3   OH212667   2.576   2.583   0.807
 4241TIP3    H112668   2.529   2.652   0.760
 4241TIP3    H212669   2.567   2.607   0.900
 4242TIP3   OH212670   4.192   3.047   2.791
 4242TIP3    H112671   4.224   3.072   2.878
 4242TIP3    H212672   4.271   3.018   2.744
 4243TIP3   OH212673   7.953   3.606   3.669
 4243TIP3    H112674   7.967   3.542   3.600
 4243TIP3    H212675   8.002   3.571   3.744
 4244TIP3   OH212676   5.242   6.874   1.356
 4244TIP3    H112677   5.244   6.917   1.442
 4244TIP3    H212678   5.162   6.822   1.358
 4245TIP3   OH212679   5.140   4.901   4.162
 4245TIP3    H112680   5.145   4.825   4.104
 4245TIP3    H212681   5.129   4.863   4.249
 4246TIP3   OH212682   1.360   2.435   3.533
 4246TIP3    H112683   1.407   2.455   3.614
 4246TIP3    H212684   1.279   2.486   3.540
 4247TIP3   OH212685   0.302   1.136   0.445
 4247TIP3    H112686   0.392   1.132   0.413
 4247TIP3    H212687   0.293   1.225   0.481
 4248TIP3   OH212688   4.671   2.390   5.337
 4248TIP3    H112689   4.635   2.349   5.416
 4248TIP3    H212690   4.655   2.326   5.267
 4249TIP3   OH212691   1.220   1.792   4.863
 4249TIP3    H112692   1.235   1.813   4.955
 4249TIP3    H212693   1.186   1.873   4.825
 4250TIP3   OH212694   7.210   1.940   0.370
 4250TIP3    H112695   7.237   1.850   0.353
 4250TIP3    H212696   7.244   1.959   0.457
 4251TIP3   OH212697   5.754   0.830   2.614
 4251TIP3    H112698   5.795   0.762   2.561
 4251TIP3    H212699   5.827   0.870   2.662
 4252TIP3   OH212700   6.413   5.436   1.286
 4252TIP3    H112701   6.349   5.399   1.347
 4252TIP3    H212702   6.494   5.390   1.306
 4253TIP3   OH212703   5.737   4.721   2.837
 4253TIP3    H112704   5.646   4.701   2.860
 4253TIP3    H212705   5.738   4.817   2.827
 4254TIP3   OH212706   1.213   1.250   4.064
 4254TIP3    H112707   1.215   1.245   4.160
 4254TIP3    H212708   1.294   1.207   4.036
 4255TIP3   OH212709   4.815   5.844   6.799
 4255TIP3    H112710   4.905   5.818   6.817
 4255TIP3    H212711   4.805   5.832   6.704
 4256TIP3   OH212712   0.766   7.567   5.600
 4256TIP3    H112713   0.737   7.611   5.680
 4256TIP3    H212714   0.844   7.615   5.574
 4257TIP3   OH212715   3.445   2.127   4.624
 4257TIP3    H112716   3.432   2.047   4.572
 4257TIP3    H212717   3.528   2.162   4.593
 4258TIP3   OH212718   6.576   2.542   6.361
 4258TIP3    H112719   6.547   2.508   6.276
 4258TIP3    H212720   6.640   2.478   6.392
 4259TIP3   OH212721   7.809   5.360   3.612
 4259TIP3    H112722   7.854   5.358   3.527
 4259TIP3    H212723   7.859   5.300   3.667
 4260TIP3   OH212724   0.225   1.602   0.580
 4260TIP3    H112725   0.171   1.523   0.587
 4260TIP3    H212726   0.182   1.665   0.638
 4261TIP3   OH212727   5.326   5.402   2.250
 4261TIP3    H112728   5.319   5.363   2.338
 4261TIP3    H212729   5.248   5.456   2.242
 4262TIP3   OH212730   2.640   3.876   4.101
 4262TIP3    H112731   2.732   3.851   4.093
 4262TIP3    H212732   2.641   3.958   4.151
 4263TIP3   OH212733   2.753   0.482   3.870
 4263TIP3    H112734   2.696   0.550   3.907
 4263TIP3    H212735   2.798   0.526   3.798
 4264TIP3   OH212736   4.669   0.151   2.118
 4264TIP3    H112737   4.701   0.095   2.047
 4264TIP3    H212738   4.708   0.237   2.100
 4265TIP3   OH212739   2.757   6.671  -0.019
 4265TIP3    H112740   2.851   6.655  -0.020
 4265TIP3    H212741   2.745   6.748   0.037
 4266TIP3   OH212742   0.377   5.248   6.483
 4266TIP3    H112743   0.389   5.343   6.478
 4266TIP3    H212744   0.402   5.225   6.572
 4267TIP3   OH212745   6.879   1.227   3.193
 4267TIP3    H112746   6.918   1.298   3.244
 4267TIP3    H212747   6.912   1.241   3.104
 4268TIP3   OH212748   3.000   3.411   4.266
 4268TIP3    H112749   3.049   3.330   4.253
 4268TIP3    H212750   3.036   3.472   4.201
 4269TIP3   OH212751   2.018   4.692   6.367
 4269TIP3    H112752   2.029   4.712   6.460
 4269TIP3    H212753   2.095   4.729   6.324
 4270TIP3   OH212754   2.643   2.164   5.968
 4270TIP3    H112755   2.607   2.113   5.896
 4270TIP3    H212756   2.566   2.190   6.019
 4271TIP3   OH212757   0.718   1.229   4.007
 4271TIP3    H112758   0.629   1.248   4.035
 4271TIP3    H212759   0.770   1.301   4.043
 4272TIP3   OH212760   4.511   3.120   1.133
 4272TIP3    H112761   4.589   3.125   1.188
 4272TIP3    H212762   4.457   3.051   1.172
 4273TIP3   OH212763   0.598   7.623   0.113
 4273TIP3    H112764   0.524   7.638   0.171
 4273TIP3    H212765   0.644   7.548   0.151
 4274TIP3   OH212766   2.415   4.526   1.391
 4274TIP3    H112767   2.323   4.504   1.410
 4274TIP3    H212768   2.448   4.561   1.474
 4275TIP3   OH212769   2.665   3.064   4.811
 4275TIP3    H112770   2.708   3.131   4.864
 4275TIP3    H212771   2.608   3.017   4.872
 4276TIP3   OH212772   0.797   1.131   0.732
 4276TIP3    H112773   0.850   1.136   0.653
 4276TIP3    H212774   0.849   1.177   0.798
 4277TIP3   OH212775   1.944   0.107   5.788
 4277TIP3    H112776   2.006   0.061   5.844
 4277TIP3    H212777   1.981   0.102   5.700
 4278TIP3   OH212778   4.046   0.189   2.977
 4278TIP3    H112779   4.042   0.276   3.015
 4278TIP3    H212780   4.139   0.169   2.971
 4279TIP3   OH212781   4.637   6.082   3.590
 4279TIP3    H112782   4.698   6.121   3.528
 4279TIP3    H212783   4.605   6.003   3.546
 4280TIP3   OH212784   2.011   3.337   4.105
 4280TIP3    H112785   1.981   3.270   4.043
 4280TIP3    H212786   1.945   3.406   4.099
 4281TIP3   OH212787   5.289   0.786   1.440
 4281TIP3    H112788   5.270   0.741   1.358
 4281TIP3    H212789   5.205   0.794   1.485
 4282TIP3   OH212790   5.548   0.448   0.289
 4282TIP3    H112791   5.532   0.355   0.305
 4282TIP3    H212792   5.630   0.450   0.240
 4283TIP3   OH212793   3.460   4.738   1.255
 4283TIP3    H112794   3.404   4.770   1.185
 4283TIP3    H212795   3.400   4.696   1.316
 4284TIP3   OH212796   7.592   1.476   0.242
 4284TIP3    H112797   7.563   1.423   0.316
 4284TIP3    H212798   7.568   1.566   0.267
 4285TIP3   OH212799   0.984   1.436   0.020
 4285TIP3    H112800   1.013   1.351  -0.013
 4285TIP3    H212801   0.948   1.416   0.107
 4286TIP3   OH212802   1.419   7.857   4.704
 4286TIP3    H112803   1.488   7.919   4.725
 4286TIP3    H212804   1.404   7.808   4.785
 4287TIP3   OH212805   2.706   6.076   5.413
 4287TIP3    H112806   2.799   6.080   5.393
 4287TIP3    H212807   2.695   5.996   5.464
 4288TIP3   OH212808   7.175   5.557   4.903
 4288TIP3    H112809   7.133   5.562   4.817
 4288TIP3    H212810   7.240   5.488   4.893
 4289TIP3   OH212811   5.674   4.990   6.450
 4289TIP3    H112812   5.600   4.957   6.502
 4289TIP3    H212813   5.637   5.007   6.363
 4290TIP3   OH212814   5.511   4.133   3.862
 4290TIP3    H112815   5.439   4.073   3.846
 4290TIP3    H212816   5.590   4.082   3.846
 4291TIP3   OH212817   5.962   5.174   4.663
 4291TIP3    H112818   5.915   5.100   4.701
 4291TIP3    H212819   6.048   5.172   4.705
 4292TIP3   OH212820   5.228   6.429   5.485
 4292TIP3    H112821   5.255   6.338   5.482
 4292TIP3    H212822   5.267   6.463   5.566
 4293TIP3   OH212823   7.793   2.090   3.121
 4293TIP3    H112824   7.834   2.126   3.042
 4293TIP3    H212825   7.735   2.021   3.089
 4294TIP3   OH212826   4.810   4.690   4.440
 4294TIP3    H112827   4.754   4.666   4.514
 4294TIP3    H212828   4.821   4.784   4.448
 4295TIP3   OH212829   6.470   2.134   4.181
 4295TIP3    H112830   6.386   2.180   4.194
 4295TIP3    H212831   6.477   2.074   4.255
 4296TIP3   OH212832   7.603   4.465   1.796
 4296TIP3    H112833   7.591   4.554   1.763
 4296TIP3    H212834   7.565   4.409   1.728
 4297TIP3   OH212835   4.439   2.965   3.310
 4297TIP3    H112836   4.526   2.925   3.304
 4297TIP3    H212837   4.449   3.036   3.373
 4298TIP3   OH212838   6.347   7.022   3.421
 4298TIP3    H112839   6.327   6.928   3.424
 4298TIP3    H212840   6.299   7.058   3.496
 4299TIP3   OH212841   7.303   1.558   5.247
 4299TIP3    H112842   7.387   1.526   5.281
 4299TIP3    H212843   7.278   1.628   5.307
 4300TIP3   OH212844   4.020   6.740   4.553
 4300TIP3    H112845   4.001   6.708   4.465
 4300TIP3    H212846   3.937   6.728   4.600
 4301TIP3   OH212847   3.378   3.007   1.948
 4301TIP3    H112848   3.341   3.053   1.873
 4301TIP3    H212849   3.382   3.072   2.017
 4302TIP3   OH212850   3.593   5.907   1.849
 4302TIP3    H112851   3.673   5.897   1.798
 4302TIP3    H212852   3.623   5.928   1.938
 4303TIP3   OH212853   5.809   3.407   3.676
 4303TIP3    H112854   5.728   3.391   3.628
 4303TIP3    H212855   5.786   3.391   3.768
 4304TIP3   OH212856   3.693   0.796   5.955
 4304TIP3    H112857   3.669   0.871   5.900
 4304TIP3    H212858   3.724   0.835   6.037
 4305TIP3   OH212859   5.881   5.034   0.408
 4305TIP3    H112860   5.973   5.026   0.382
 4305TIP3    H212861   5.844   4.947   0.396
 4306TIP3   OH212862   5.236   5.910   1.003
 4306TIP3    H112863   5.207   5.827   1.042
 4306TIP3    H212864   5.205   5.906   0.913
 4307TIP3   OH212865   5.964   6.168   1.517
 4307TIP3    H112866   5.957   6.155   1.422
 4307TIP3    H212867   6.055   6.145   1.537
 4308TIP3   OH212868   4.932   5.717   3.541
 4308TIP3    H112869   4.950   5.775   3.615
 4308TIP3    H212870   4.877   5.647   3.577
 4309TIP3   OH212871   3.470   7.134   5.006
 4309TIP3    H112872   3.402   7.193   4.975
 4309TIP3    H212873   3.493   7.081   4.930
 4310TIP3   OH212874   3.705   3.764   5.836
 4310TIP3    H112875   3.665   3.850   5.828
 4310TIP3    H212876   3.745   3.748   5.751
 4311TIP3   OH212877   0.250   0.332   4.949
 4311TIP3    H112878   0.260   0.422   4.977
 4311TIP3    H212879   0.248   0.281   5.030
 4312TIP3   OH212880   4.914   4.137   4.175
 4312TIP3    H112881   5.005   4.162   4.185
 4312TIP3    H212882   4.870   4.175   4.251
 4313TIP3   OH212883   1.820   2.980   4.829
 4313TIP3    H112884   1.895   3.040   4.829
 4313TIP3    H212885   1.854   2.898   4.864
 4314TIP3   OH212886   7.811   7.560   5.759
 4314TIP3    H112887   7.889   7.510   5.780
 4314TIP3    H212888   7.738   7.504   5.786
 4315TIP3   OH212889   5.471   4.643   0.273
 4315TIP3    H112890   5.504   4.562   0.312
 4315TIP3    H212891   5.404   4.615   0.211
 4316TIP3   OH212892   0.770   7.256   3.042
 4316TIP3    H112893   0.752   7.191   3.110
 4316TIP3    H212894   0.754   7.210   2.959
 4317TIP3   OH212895   4.153   7.688   3.566
 4317TIP3    H112896   4.064   7.697   3.533
 4317TIP3    H212897   4.195   7.771   3.545
 4318TIP3   OH212898   4.558   0.911   6.457
 4318TIP3    H112899   4.635   0.896   6.402
 4318TIP3    H212900   4.495   0.845   6.428
 4319TIP3   OH212901   2.399   2.752   2.639
 4319TIP3    H112902   2.441   2.686   2.694
 4319TIP3    H212903   2.378   2.706   2.557
 4320TIP3   OH212904   4.339   7.531   3.714
 4320TIP3    H112905   4.277   7.584   3.664
 4320TIP3    H212906   4.333   7.444   3.674
 4321TIP3   OH212907   6.466   5.351   0.043
 4321TIP3    H112908   6.416   5.414   0.095
 4321TIP3    H212909   6.449   5.375  -0.048
 4322TIP3   OH212910   2.749   0.686   2.615
 4322TIP3    H112911   2.672   0.629   2.623
 4322TIP3    H212912   2.722   0.768   2.656
 4323TIP3   OH212913   7.417   4.722   1.112
 4323TIP3    H112914   7.479   4.686   1.048
 4323TIP3    H212915   7.445   4.686   1.196
 4324TIP3   OH212916   4.047   0.568   5.593
 4324TIP3    H112917   3.970   0.600   5.642
 4324TIP3    H212918   4.025   0.583   5.501
 4325TIP3   OH212919   4.802   5.733   5.974
 4325TIP3    H112920   4.845   5.647   5.983
 4325TIP3    H212921   4.766   5.731   5.885
 4326TIP3   OH212922   2.429   3.409   6.367
 4326TIP3    H112923   2.488   3.334   6.373
 4326TIP3    H212924   2.483   3.480   6.333
 4327TIP3   OH212925   0.254   5.309   2.720
 4327TIP3    H112926   0.195   5.357   2.662
 4327TIP3    H212927   0.305   5.377   2.764
 4328TIP3   OH212928   4.982   5.724   5.694
 4328TIP3    H112929   5.008   5.707   5.784
 4328TIP3    H212930   4.888   5.707   5.692
 4329TIP3   OH212931   5.221   7.118   2.259
 4329TIP3    H112932   5.219   7.118   2.355
 4329TIP3    H212933   5.239   7.028   2.235
 4330TIP3   OH212934   7.057   0.295   3.340
 4330TIP3    H112935   7.098   0.323   3.258
 4330TIP3    H212936   6.981   0.351   3.349
 4331TIP3   OH212937   2.370   6.093   1.324
 4331TIP3    H112938   2.445   6.034   1.317
 4331TIP3    H212939   2.408   6.178   1.347
 4332TIP3   OH212940   1.473   1.141   4.016
 4332TIP3    H112941   1.538   1.211   4.019
 4332TIP3    H212942   1.523   1.061   4.001
 4333TIP3   OH212943   2.807   5.650   3.016
 4333TIP3    H112944   2.878   5.692   2.969
 4333TIP3    H212945   2.842   5.635   3.104
 4334TIP3   OH212946   4.535   0.195   6.513
 4334TIP3    H112947   4.444   0.208   6.537
 4334TIP3    H212948   4.541   0.227   6.423
 4335TIP3   OH212949   4.727   6.628   6.618
 4335TIP3    H112950   4.763   6.551   6.575
 4335TIP3    H212951   4.771   6.702   6.576
 4336TIP3   OH212952   0.341   4.064   6.347
 4336TIP3    H112953   0.436   4.081   6.349
 4336TIP3    H212954   0.333   3.969   6.352
 4337TIP3   OH212955   4.634   0.997   4.436
 4337TIP3    H112956   4.550   1.026   4.471
 4337TIP3    H212957   4.628   0.901   4.436
 4338TIP3   OH212958   1.348   6.016   3.768
 4338TIP3    H112959   1.320   6.103   3.738
 4338TIP3    H212960   1.281   5.989   3.831
 4339TIP3   OH212961   1.220   5.099   3.608
 4339TIP3    H112962   1.288   5.037   3.634
 4339TIP3    H212963   1.228   5.105   3.513
 4340TIP3   OH212964   2.735   6.138   4.634
 4340TIP3    H112965   2.763   6.211   4.690
 4340TIP3    H212966   2.683   6.179   4.566
 4341TIP3   OH212967   3.800   3.297   5.151
 4341TIP3    H112968   3.723   3.289   5.094
 4341TIP3    H212969   3.765   3.317   5.237
 4342TIP3   OH212970   3.636   1.263   5.253
 4342TIP3    H112971   3.639   1.325   5.180
 4342TIP3    H212972   3.576   1.302   5.316
 4343TIP3   OH212973   0.261   5.610   3.761
 4343TIP3    H112974   0.203   5.585   3.833
 4343TIP3    H212975   0.265   5.706   3.766
 4344TIP3   OH212976   7.294   1.437   4.068
 4344TIP3    H112977   7.212   1.388   4.056
 4344TIP3    H212978   7.294   1.461   4.161
 4345TIP3   OH212979   0.221   6.549   1.564
 4345TIP3    H112980   0.154   6.591   1.510
 4345TIP3    H212981   0.244   6.470   1.516
 4346TIP3   OH212982   5.281   7.100   3.232
 4346TIP3    H112983   5.337   7.025   3.253
 4346TIP3    H212984   5.222   7.108   3.307
 4347TIP3   OH212985   4.059   5.907   0.049
 4347TIP3    H112986   3.974   5.949   0.038
 4347TIP3    H212987   4.061   5.839  -0.017
 4348TIP3   OH212988   7.140   6.225   0.651
 4348TIP3    H112989   7.119   6.284   0.579
 4348TIP3    H212990   7.061   6.223   0.705
 4349TIP3   OH212991   4.533   3.225   5.900
 4349TIP3    H112992   4.613   3.260   5.940
 4349TIP3    H212993   4.539   3.252   5.808
 4350TIP3   OH212994   4.107   7.599   0.915
 4350TIP3    H112995   4.116   7.516   0.962
 4350TIP3    H212996   4.040   7.647   0.965
 4351TIP3   OH212997   7.458   2.998   4.677
 4351TIP3    H112998   7.415   3.065   4.731
 4351TIP3    H212999   7.550   3.022   4.678
 4352TIP3   OH213000   4.391   0.643   3.577
 4352TIP3    H113001   4.353   0.557   3.592
 4352TIP3    H213002   4.486   0.629   3.585
 4353TIP3   OH213003   7.160   5.811   4.312
 4353TIP3    H113004   7.163   5.780   4.221
 4353TIP3    H213005   7.081   5.864   4.317
 4354TIP3   OH213006   6.682   1.634   3.538
 4354TIP3    H113007   6.684   1.630   3.634
 4354TIP3    H213008   6.660   1.545   3.511
 4355TIP3   OH213009   4.132   3.686   0.010
 4355TIP3    H113010   4.069   3.650   0.072
 4355TIP3    H213011   4.142   3.618  -0.056
 4356TIP3   OH213012   4.310   0.881   6.191
 4356TIP3    H113013   4.359   0.820   6.137
 4356TIP3    H213014   4.311   0.963   6.142
 4357TIP3   OH213015   5.515   6.299   0.835
 4357TIP3    H113016   5.436   6.278   0.886
 4357TIP3    H213017   5.486   6.294   0.744
 4358TIP3   OH213018   7.870   4.264   2.896
 4358TIP3    H113019   7.899   4.340   2.846
 4358TIP3    H213020   7.782   4.287   2.927
 4359TIP3   OH213021   5.459   6.611   1.321
 4359TIP3    H113022   5.452   6.653   1.235
 4359TIP3    H213023   5.436   6.520   1.304
 4360TIP3   OH213024   6.687   4.075   1.494
 4360TIP3    H113025   6.715   4.145   1.436
 4360TIP3    H213026   6.726   3.995   1.457
 4361TIP3   OH213027   2.491   6.277   3.765
 4361TIP3    H113028   2.433   6.202   3.760
 4361TIP3    H213029   2.510   6.300   3.674
 4362TIP3   OH213030   1.861   7.365   4.928
 4362TIP3    H113031   1.896   7.442   4.973
 4362TIP3    H213032   1.843   7.303   4.998
 4363TIP3   OH213033   4.572   2.199   1.603
 4363TIP3    H113034   4.514   2.137   1.559
 4363TIP3    H213035   4.514   2.270   1.631
 4364TIP3   OH213036   7.282   6.001   1.833
 4364TIP3    H113037   7.238   5.953   1.763
 4364TIP3    H213038   7.224   6.075   1.852
 4365TIP3   OH213039   2.888   7.779   1.315
 4365TIP3    H113040   2.852   7.797   1.229
 4365TIP3    H213041   2.970   7.828   1.318
 4366TIP3   OH213042   7.754   4.275   6.478
 4366TIP3    H113043   7.732   4.362   6.444
 4366TIP3    H213044   7.848   4.280   6.498
 4367TIP3   OH213045   5.981   5.337   1.500
 4367TIP3    H113046   5.980   5.410   1.562
 4367TIP3    H213047   5.943   5.373   1.420
 4368TIP3   OH213048   2.680   2.281   2.442
 4368TIP3    H113049   2.700   2.325   2.525
 4368TIP3    H213050   2.717   2.193   2.453
 4369TIP3   OH213051   1.537   0.630   5.874
 4369TIP3    H113052   1.537   0.697   5.806
 4369TIP3    H213053   1.461   0.651   5.929
 4370TIP3   OH213054   7.995   4.461   3.877
 4370TIP3    H113055   8.088   4.483   3.873
 4370TIP3    H213056   7.952   4.531   3.830
 4371TIP3   OH213057   0.745   2.277   1.437
 4371TIP3    H113058   0.696   2.358   1.421
 4371TIP3    H213059   0.698   2.210   1.386
 4372TIP3   OH213060   0.823   6.941   4.104
 4372TIP3    H113061   0.743   6.993   4.102
 4372TIP3    H213062   0.793   6.850   4.100
 4373TIP3   OH213063   8.092   2.661   3.632
 4373TIP3    H113064   8.125   2.616   3.554
 4373TIP3    H213065   7.997   2.654   3.626
 4374TIP3   OH213066   5.942   1.035   1.137
 4374TIP3    H113067   5.874   0.991   1.086
 4374TIP3    H213068   6.023   0.992   1.110
 4375TIP3   OH213069   1.432   5.835   6.243
 4375TIP3    H113070   1.424   5.922   6.282
 4375TIP3    H213071   1.521   5.808   6.264
 4376TIP3   OH213072   2.122   2.286   3.451
 4376TIP3    H113073   2.094   2.197   3.429
 4376TIP3    H213074   2.217   2.280   3.461
 4377TIP3   OH213075   4.870   3.173   0.718
 4377TIP3    H113076   4.782   3.168   0.756
 4377TIP3    H213077   4.929   3.147   0.789
 4378TIP3   OH213078   1.153   7.371   1.903
 4378TIP3    H113079   1.136   7.278   1.889
 4378TIP3    H213080   1.079   7.401   1.956
 4379TIP3   OH213081   6.640   5.294   1.269
 4379TIP3    H113082   6.583   5.283   1.193
 4379TIP3    H213083   6.629   5.213   1.319
 4380TIP3   OH213084   8.244   1.765   1.554
 4380TIP3    H113085   8.268   1.807   1.471
 4380TIP3    H213086   8.313   1.701   1.569
 4381TIP3   OH213087   0.725   1.750   0.954
 4381TIP3    H113088   0.812   1.733   0.990
 4381TIP3    H213089   0.742   1.788   0.868
 4382TIP3   OH213090   0.516   0.169   4.593
 4382TIP3    H113091   0.514   0.263   4.608
 4382TIP3    H213092   0.581   0.157   4.524
 4383TIP3   OH213093   4.564   7.155   4.155
 4383TIP3    H113094   4.598   7.199   4.233
 4383TIP3    H213095   4.534   7.227   4.099
 4384TIP3   OH213096   7.910   1.709   5.017
 4384TIP3    H113097   7.987   1.732   5.068
 4384TIP3    H213098   7.905   1.775   4.949
 4385TIP3   OH213099   5.822   0.686   4.099
 4385TIP3    H113100   5.810   0.630   4.023
 4385TIP3    H213101   5.907   0.729   4.084
 4386TIP3   OH213102   7.239   3.838   1.081
 4386TIP3    H113103   7.145   3.829   1.095
 4386TIP3    H213104   7.260   3.927   1.111
 4387TIP3   OH213105   2.921   0.788   2.951
 4387TIP3    H113106   2.854   0.853   2.972
 4387TIP3    H213107   2.973   0.829   2.881
 4388TIP3   OH213108   3.903   2.346   3.047
 4388TIP3    H113109   3.872   2.436   3.032
 4388TIP3    H213110   3.893   2.303   2.962
 4389TIP3   OH213111   4.280   3.350   3.614
 4389TIP3    H113112   4.274   3.407   3.538
 4389TIP3    H213113   4.340   3.395   3.674
 4390TIP3   OH213114   1.165   4.662   0.124
 4390TIP3    H113115   1.204   4.583   0.162
 4390TIP3    H213116   1.082   4.672   0.169
 4391TIP3   OH213117   0.390   4.094   4.739
 4391TIP3    H113118   0.485   4.088   4.752
 4391TIP3    H213119   0.357   4.133   4.820
 4392TIP3   OH213120   5.034   0.410   3.320
 4392TIP3    H113121   4.949   0.411   3.276
 4392TIP3    H213122   5.075   0.493   3.295
 4393TIP3   OH213123   5.859   2.269   2.032
 4393TIP3    H113124   5.857   2.175   2.052
 4393TIP3    H213125   5.814   2.277   1.948
 4394TIP3   OH213126   7.649   4.810   2.972
 4394TIP3    H113127   7.706   4.842   3.043
 4394TIP3    H213128   7.632   4.719   2.995
 4395TIP3   OH213129   2.861   5.779   6.186
 4395TIP3    H113130   2.937   5.729   6.156
 4395TIP3    H213131   2.831   5.827   6.108
 4396TIP3   OH213132   5.055   5.137   6.152
 4396TIP3    H113133   5.030   5.173   6.066
 4396TIP3    H213134   5.077   5.046   6.134
 4397TIP3   OH213135   4.177   2.416   0.029
 4397TIP3    H113136   4.232   2.450   0.100
 4397TIP3    H213137   4.091   2.404   0.069
 4398TIP3   OH213138   4.394   6.410   2.939
 4398TIP3    H113139   4.299   6.414   2.953
 4398TIP3    H213140   4.404   6.391   2.846
 4399TIP3   OH213141   0.995   1.538   3.666
 4399TIP3    H113142   0.940   1.597   3.717
 4399TIP3    H213143   1.035   1.481   3.732
 4400TIP3   OH213144   2.778   7.106   3.336
 4400TIP3    H113145   2.865   7.105   3.295
 4400TIP3    H213146   2.723   7.055   3.277
 4401TIP3   OH213147   4.465   5.237   5.743
 4401TIP3    H113148   4.380   5.270   5.772
 4401TIP3    H213149   4.516   5.226   5.823
 4402TIP3   OH213150   4.503   2.644   5.397
 4402TIP3    H113151   4.544   2.561   5.373
 4402TIP3    H213152   4.426   2.650   5.340
 4403TIP3   OH213153   3.316   1.391   0.638
 4403TIP3    H113154   3.260   1.388   0.561
 4403TIP3    H213155   3.343   1.300   0.651
 4404TIP3   OH213156   4.405   7.021   3.012
 4404TIP3    H113157   4.321   7.048   2.975
 4404TIP3    H213158   4.411   6.927   2.995
 4405TIP3   OH213159   3.632   0.270   2.085
 4405TIP3    H113160   3.654   0.330   2.014
 4405TIP3    H213161   3.664   0.314   2.164
 4406TIP3   OH213162   4.613   0.929   1.698
 4406TIP3    H113163   4.657   0.940   1.614
 4406TIP3    H213164   4.537   0.874   1.678
 4407TIP3   OH213165   5.475   4.036   0.061
 4407TIP3    H113166   5.414   4.076   0.123
 4407TIP3    H213167   5.425   4.029  -0.021
 4408TIP3   OH213168   2.363   2.999   2.724
 4408TIP3    H113169   2.283   2.974   2.769
 4408TIP3    H213170   2.389   2.920   2.676
 4409TIP3   OH213171   0.927   1.938   3.445
 4409TIP3    H113172   0.885   1.917   3.362
 4409TIP3    H213173   0.975   2.019   3.428
 4410TIP3   OH213174   7.917   4.518   4.864
 4410TIP3    H113175   7.974   4.594   4.877
 4410TIP3    H213176   7.974   4.443   4.878
 4411TIP3   OH213177   3.099   2.638   5.821
 4411TIP3    H113178   3.074   2.575   5.753
 4411TIP3    H213179   3.082   2.723   5.781
 4412TIP3   OH213180   8.053   0.341   5.931
 4412TIP3    H113181   8.061   0.246   5.934
 4412TIP3    H213182   8.017   0.360   5.844
 4413TIP3   OH213183   0.817   4.729   5.458
 4413TIP3    H113184   0.821   4.703   5.550
 4413TIP3    H213185   0.750   4.673   5.420
 4414TIP3   OH213186   7.353   6.066   3.192
 4414TIP3    H113187   7.395   6.120   3.125
 4414TIP3    H213188   7.418   6.057   3.261
 4415TIP3   OH213189   4.733   5.586   3.211
 4415TIP3    H113190   4.727   5.495   3.181
 4415TIP3    H213191   4.814   5.619   3.172
 4416TIP3   OH213192   6.068   7.247   3.389
 4416TIP3    H113193   5.988   7.201   3.413
 4416TIP3    H213194   6.134   7.212   3.449
 4417TIP3   OH213195   6.520   7.763   4.649
 4417TIP3    H113196   6.477   7.814   4.717
 4417TIP3    H213197   6.606   7.741   4.685
 4418TIP3   OH213198   1.581   7.625   5.397
 4418TIP3    H113199   1.588   7.649   5.489
 4418TIP3    H213200   1.492   7.652   5.371
 4419TIP3   OH213201   3.254   0.384   3.275
 4419TIP3    H113202   3.281   0.451   3.212
 4419TIP3    H213203   3.328   0.323   3.277
 4420TIP3   OH213204   4.527   2.834   2.214
 4420TIP3    H113205   4.546   2.745   2.244
 4420TIP3    H213206   4.499   2.881   2.292
 4421TIP3   OH213207   3.030   4.193   0.881
 4421TIP3    H113208   2.940   4.214   0.907
 4421TIP3    H213209   3.067   4.276   0.852
 4422TIP3   OH213210   2.833   3.418   6.578
 4422TIP3    H113211   2.809   3.441   6.488
 4422TIP3    H213212   2.915   3.370   6.570
 4423TIP3   OH213213   5.348   3.336   1.070
 4423TIP3    H113214   5.271   3.362   1.120
 4423TIP3    H213215   5.325   3.351   0.979
 4424TIP3   OH213216   5.337   7.367   5.016
 4424TIP3    H113217   5.318   7.394   4.926
 4424TIP3    H213218   5.319   7.273   5.018
 4425TIP3   OH213219   0.059   1.646   2.962
 4425TIP3    H113220   0.012   1.726   2.938
 4425TIP3    H213221   0.015   1.615   3.041
 4426TIP3   OH213222   3.919   5.343   6.166
 4426TIP3    H113223   3.954   5.432   6.171
 4426TIP3    H213224   3.825   5.355   6.164
 4427TIP3   OH213225   0.501   3.371   4.686
 4427TIP3    H113226   0.543   3.457   4.687
 4427TIP3    H213227   0.480   3.355   4.594
 4428TIP3   OH213228   6.367   7.424   2.268
 4428TIP3    H113229   6.405   7.467   2.191
 4428TIP3    H213230   6.278   7.403   2.242
 4429TIP3   OH213231   2.373   1.494   6.280
 4429TIP3    H113232   2.464   1.492   6.310
 4429TIP3    H213233   2.327   1.431   6.335
 4430TIP3   OH213234   0.588   0.767   0.422
 4430TIP3    H113235   0.642   0.846   0.419
 4430TIP3    H213236   0.563   0.751   0.331
 4431TIP3   OH213237   2.187   0.260   0.095
 4431TIP3    H113238   2.221   0.173   0.114
 4431TIP3    H213239   2.238   0.290   0.020
 4432TIP3   OH213240   2.379   5.657   2.841
 4432TIP3    H113241   2.395   5.672   2.748
 4432TIP3    H213242   2.322   5.729   2.868
 4433TIP3   OH213243   6.127   5.832   5.332
 4433TIP3    H113244   6.151   5.769   5.264
 4433TIP3    H213245   6.210   5.872   5.358
 4434TIP3   OH213246   1.416   2.771   4.309
 4434TIP3    H113247   1.383   2.827   4.379
 4434TIP3    H213248   1.480   2.714   4.351
 4435TIP3   OH213249   3.883   0.038   0.365
 4435TIP3    H113250   3.921   0.104   0.307
 4435TIP3    H213251   3.789   0.054   0.363
 4436TIP3   OH213252   7.329   1.999   0.109
 4436TIP3    H113253   7.281   1.978   0.188
 4436TIP3    H213254   7.262   2.028   0.047
 4437TIP3   OH213255   5.933   0.211   3.512
 4437TIP3    H113256   5.983   0.130   3.512
 4437TIP3    H213257   5.878   0.207   3.434
 4438TIP3   OH213258   3.536   6.140   4.440
 4438TIP3    H113259   3.452   6.152   4.484
 4438TIP3    H213260   3.600   6.137   4.511
 4439TIP3   OH213261   3.383   5.056   2.936
 4439TIP3    H113262   3.350   5.019   3.018
 4439TIP3    H213263   3.380   5.151   2.951
 4440TIP3   OH213264   7.887   5.892   5.308
 4440TIP3    H113265   7.837   5.974   5.309
 4440TIP3    H213266   7.978   5.919   5.300
 4441TIP3   OH213267   6.666   2.101   3.945
 4441TIP3    H113268   6.672   2.122   4.038
 4441TIP3    H213269   6.663   2.005   3.942
 4442TIP3   OH213270   1.609   7.731   3.676
 4442TIP3    H113271   1.530   7.756   3.724
 4442TIP3    H213272   1.639   7.651   3.719
 4443TIP3   OH213273   7.618   1.822   5.679
 4443TIP3    H113274   7.571   1.749   5.718
 4443TIP3    H213275   7.576   1.835   5.594
 4444TIP3   OH213276   3.872   1.157   2.885
 4444TIP3    H113277   3.790   1.160   2.935
 4444TIP3    H213278   3.930   1.101   2.937
 4445TIP3   OH213279   3.048   4.972   5.608
 4445TIP3    H113280   2.972   4.986   5.664
 4445TIP3    H213281   3.025   4.895   5.555
 4446TIP3   OH213282   4.746   6.602   5.875
 4446TIP3    H113283   4.696   6.667   5.824
 4446TIP3    H213284   4.683   6.568   5.938
 4447TIP3   OH213285   6.638   4.721   1.583
 4447TIP3    H113286   6.639   4.737   1.488
 4447TIP3    H213287   6.646   4.809   1.622
 4448TIP3   OH213288   3.539   4.597   3.455
 4448TIP3    H113289   3.602   4.638   3.396
 4448TIP3    H213290   3.588   4.578   3.534
 4449TIP3   OH213291   4.551   6.644   4.225
 4449TIP3    H113292   4.641   6.662   4.251
 4449TIP3    H213293   4.499   6.705   4.278
 4450TIP3   OH213294   5.418   0.702   2.767
 4450TIP3    H113295   5.378   0.788   2.776
 4450TIP3    H213296   5.438   0.694   2.674
 4451TIP3   OH213297   5.372   7.041   3.863
 4451TIP3    H113298   5.301   7.082   3.912
 4451TIP3    H213299   5.429   7.113   3.838
 4452TIP3   OH213300   8.110   0.738   5.557
 4452TIP3    H113301   8.066   0.720   5.474
 4452TIP3    H213302   8.041   0.729   5.623
 4453TIP3   OH213303   0.879   5.584   1.357
 4453TIP3    H113304   0.869   5.610   1.265
 4453TIP3    H213305   0.852   5.662   1.406
 4454TIP3   OH213306   7.185   6.892   5.588
 4454TIP3    H113307   7.195   6.856   5.500
 4454TIP3    H213308   7.090   6.901   5.600
 4455TIP3   OH213309   0.185   6.660   5.516
 4455TIP3    H113310   0.274   6.694   5.525
 4455TIP3    H213311   0.196   6.580   5.464
 4456TIP3   OH213312   4.230   5.516   1.239
 4456TIP3    H113313   4.300   5.572   1.274
 4456TIP3    H213314   4.196   5.470   1.316
 4457TIP3   OH213315   3.063   2.964   6.762
 4457TIP3    H113316   2.994   2.898   6.761
 4457TIP3    H213317   3.084   2.977   6.669
 4458TIP3   OH213318   3.901   1.418   2.217
 4458TIP3    H113319   3.858   1.471   2.284
 4458TIP3    H213320   3.991   1.451   2.215
 4459TIP3   OH213321   7.290   7.639   4.951
 4459TIP3    H113322   7.204   7.677   4.968
 4459TIP3    H213323   7.301   7.646   4.856
 4460TIP3   OH213324   2.292   6.789   3.488
 4460TIP3    H113325   2.214   6.840   3.468
 4460TIP3    H213326   2.273   6.701   3.454
 4461TIP3   OH213327   1.544   6.318   4.306
 4461TIP3    H113328   1.586   6.329   4.220
 4461TIP3    H213329   1.499   6.234   4.301
 4462TIP3   OH213330   0.438   0.423   4.741
 4462TIP3    H113331   0.512   0.406   4.800
 4462TIP3    H213332   0.362   0.392   4.789
 4463TIP3   OH213333   0.334   2.004   3.676
 4463TIP3    H113334   0.310   2.096   3.684
 4463TIP3    H213335   0.354   1.993   3.583
 4464TIP3   OH213336   0.681   3.893   3.632
 4464TIP3    H113337   0.765   3.847   3.624
 4464TIP3    H213338   0.701   3.970   3.685
 4465TIP3   OH213339   0.036   1.887   4.884
 4465TIP3    H113340  -0.020   1.870   4.808
 4465TIP3    H213341   0.125   1.869   4.853
 4466TIP3   OH213342   4.106   6.298   3.815
 4466TIP3    H113343   4.124   6.384   3.854
 4466TIP3    H213344   4.169   6.239   3.857
 4467TIP3   OH213345   4.721   7.443   2.019
 4467TIP3    H113346   4.796   7.438   1.960
 4467TIP3    H213347   4.729   7.529   2.060
 4468TIP3   OH213348   4.971   3.844   5.519
 4468TIP3    H113349   4.909   3.789   5.567
 4468TIP3    H213350   4.937   3.847   5.430
 4469TIP3   OH213351   3.867   3.985   1.820
 4469TIP3    H113352   3.841   3.905   1.866
 4469TIP3    H213353   3.912   3.955   1.741
 4470TIP3   OH213354   1.166   0.934   4.171
 4470TIP3    H113355   1.228   0.880   4.220
 4470TIP3    H213356   1.139   1.002   4.233
 4471TIP3   OH213357   0.774   6.436   0.708
 4471TIP3    H113358   0.765   6.502   0.639
 4471TIP3    H213359   0.866   6.411   0.706
 4472TIP3   OH213360   6.800   1.181   0.153
 4472TIP3    H113361   6.828   1.182   0.245
 4472TIP3    H213362   6.865   1.126   0.109
 4473TIP3   OH213363   3.736   4.281   6.069
 4473TIP3    H113364   3.704   4.368   6.046
 4473TIP3    H213365   3.831   4.292   6.079
 4474TIP3   OH213366   0.723   4.257   2.471
 4474TIP3    H113367   0.702   4.335   2.420
 4474TIP3    H213368   0.736   4.189   2.406
 4475TIP3   OH213369   2.534   0.285   3.001
 4475TIP3    H113370   2.517   0.379   3.006
 4475TIP3    H213371   2.623   0.279   2.966
 4476TIP3   OH213372   0.663   4.126   5.631
 4476TIP3    H113373   0.747   4.169   5.616
 4476TIP3    H213374   0.656   4.062   5.560
 4477TIP3   OH213375   5.916   4.165   6.451
 4477TIP3    H113376   5.932   4.089   6.395
 4477TIP3    H213377   5.905   4.237   6.389
 4478TIP3   OH213378   8.284   3.664   6.173
 4478TIP3    H113379   8.195   3.667   6.137
 4478TIP3    H213380   8.313   3.755   6.169
 4479TIP3   OH213381   7.144   2.513   6.271
 4479TIP3    H113382   7.199   2.528   6.348
 4479TIP3    H213383   7.169   2.581   6.209
 4480TIP3   OH213384   7.503   2.342   2.637
 4480TIP3    H113385   7.574   2.386   2.684
 4480TIP3    H213386   7.539   2.256   2.615
 4481TIP3   OH213387   2.656   6.340   1.901
 4481TIP3    H113388   2.675   6.267   1.960
 4481TIP3    H213389   2.728   6.402   1.916
 4482TIP3   OH213390   6.918   7.416   2.788
 4482TIP3    H113391   6.969   7.488   2.826
 4482TIP3    H213392   6.952   7.408   2.699
 4483TIP3   OH213393   7.164   6.533   3.321
 4483TIP3    H113394   7.108   6.601   3.286
 4483TIP3    H213395   7.210   6.498   3.245
 4484TIP3   OH213396   6.069   4.203   5.319
 4484TIP3    H113397   6.087   4.218   5.226
 4484TIP3    H213398   5.973   4.204   5.326
 4485TIP3   OH213399   5.756   6.462   2.647
 4485TIP3    H113400   5.672   6.425   2.673
 4485TIP3    H213401   5.777   6.418   2.564
 4486TIP3   OH213402   1.144   2.428   0.240
 4486TIP3    H113403   1.198   2.420   0.161
 4486TIP3    H213404   1.154   2.343   0.284
 4487TIP3   OH213405   2.821   0.696   4.912
 4487TIP3    H113406   2.878   0.623   4.937
 4487TIP3    H213407   2.878   0.754   4.862
 4488TIP3   OH213408   2.188   3.162   1.612
 4488TIP3    H113409   2.143   3.245   1.627
 4488TIP3    H213410   2.117   3.100   1.595
 4489TIP3   OH213411   0.216   2.310   0.103
 4489TIP3    H113412   0.295   2.262   0.131
 4489TIP3    H213413   0.249   2.392   0.068
 4490TIP3   OH213414   3.889   0.507   2.771
 4490TIP3    H113415   3.884   0.603   2.775
 4490TIP3    H213416   3.844   0.478   2.849
 4491TIP3   OH213417   3.480   4.778   6.284
 4491TIP3    H113418   3.460   4.708   6.222
 4491TIP3    H213419   3.562   4.816   6.251
 4492TIP3   OH213420   7.505   7.160   0.848
 4492TIP3    H113421   7.585   7.208   0.828
 4492TIP3    H213422   7.510   7.081   0.794
 4493TIP3   OH213423   5.073   5.643   4.973
 4493TIP3    H113424   5.019   5.722   4.966
 4493TIP3    H213425   5.011   5.571   4.969
 4494TIP3   OH213426   5.967   4.157   3.855
 4494TIP3    H113427   5.985   4.211   3.931
 4494TIP3    H213428   6.040   4.096   3.850
 4495TIP3   OH213429   2.620   7.090   0.692
 4495TIP3    H113430   2.687   7.153   0.666
 4495TIP3    H213431   2.543   7.115   0.640
 4496TIP3   OH213432   1.550   3.325   4.666
 4496TIP3    H113433   1.480   3.267   4.636
 4496TIP3    H213434   1.521   3.413   4.640
 4497TIP3   OH213435   6.853   3.582   0.354
 4497TIP3    H113436   6.868   3.565   0.447
 4497TIP3    H213437   6.908   3.658   0.335
 4498TIP3   OH213438   2.268   3.517   0.549
 4498TIP3    H113439   2.287   3.423   0.549
 4498TIP3    H213440   2.333   3.554   0.609
 4499TIP3   OH213441   7.938   6.921   1.014
 4499TIP3    H113442   7.939   6.828   1.038
 4499TIP3    H213443   8.025   6.938   0.978
 4500TIP3   OH213444   6.665   3.845   2.290
 4500TIP3    H113445   6.574   3.861   2.314
 4500TIP3    H213446   6.683   3.909   2.221
 4501TIP3   OH213447   7.471   1.925   4.570
 4501TIP3    H113448   7.457   1.841   4.614
 4501TIP3    H213449   7.518   1.903   4.490
 4502TIP3   OH213450   3.755   6.808   1.292
 4502TIP3    H113451   3.784   6.739   1.231
 4502TIP3    H213452   3.677   6.845   1.252
 4503TIP3   OH213453   3.292   3.880   4.227
 4503TIP3    H113454   3.340   3.889   4.309
 4503TIP3    H213455   3.349   3.824   4.173
 4504TIP3   OH213456   2.386   2.351   5.444
 4504TIP3    H113457   2.397   2.446   5.450
 4504TIP3    H213458   2.432   2.327   5.363
 4505TIP3   OH213459   5.665   1.531   0.186
 4505TIP3    H113460   5.695   1.453   0.233
 4505TIP3    H213461   5.745   1.569   0.150
 4506TIP3   OH213462   4.825   6.606   3.896
 4506TIP3    H113463   4.859   6.530   3.943
 4506TIP3    H213464   4.858   6.681   3.945
 4507TIP3   OH213465   7.872   3.951   1.264
 4507TIP3    H113466   7.862   3.869   1.311
 4507TIP3    H213467   7.914   3.926   1.182
 4508TIP3   OH213468   6.125   6.308   3.018
 4508TIP3    H113469   6.174   6.226   3.006
 4508TIP3    H213470   6.063   6.309   2.945
 4509TIP3   OH213471   1.714   3.795   1.102
 4509TIP3    H113472   1.748   3.847   1.029
 4509TIP3    H213473   1.653   3.733   1.061
 4510TIP3   OH213474   6.611   4.422   3.957
 4510TIP3    H113475   6.572   4.360   3.895
 4510TIP3    H213476   6.666   4.479   3.903
 4511TIP3   OH213477   8.167   3.878   3.561
 4511TIP3    H113478   8.192   3.842   3.646
 4511TIP3    H213479   8.094   3.937   3.582
 4512TIP3   OH213480   4.950   7.338   5.953
 4512TIP3    H113481   4.868   7.349   6.001
 4512TIP3    H213482   5.017   7.368   6.014
 4513TIP3   OH213483   6.442   6.232   0.520
 4513TIP3    H113484   6.399   6.307   0.479
 4513TIP3    H213485   6.375   6.192   0.575
 4514TIP3   OH213486   4.692   5.373   4.970
 4514TIP3    H113487   4.782   5.399   4.949
 4514TIP3    H213488   4.702   5.288   5.013
 4515TIP3   OH213489   4.618   3.602   3.603
 4515TIP3    H113490   4.684   3.542   3.569
 4515TIP3    H213491   4.668   3.680   3.630
 4516TIP3   OH213492   4.695   7.057   0.234
 4516TIP3    H113493   4.768   7.117   0.248
 4516TIP3    H213494   4.711   7.018   0.148
 4517TIP3   OH213495   7.863   6.153   2.746
 4517TIP3    H113496   7.804   6.205   2.800
 4517TIP3    H213497   7.945   6.202   2.746
 4518TIP3   OH213498   3.542   7.451   5.139
 4518TIP3    H113499   3.602   7.378   5.154
 4518TIP3    H213500   3.461   7.424   5.182
 4519TIP3   OH213501   6.367   4.704   1.976
 4519TIP3    H113502   6.379   4.755   1.896
 4519TIP3    H213503   6.454   4.666   1.993
 4520TIP3   OH213504   7.168   2.108   3.906
 4520TIP3    H113505   7.128   2.109   3.819
 4520TIP3    H213506   7.230   2.180   3.905
 4521TIP3   OH213507   0.095   2.427   6.734
 4521TIP3    H113508   0.090   2.361   6.804
 4521TIP3    H213509   0.171   2.481   6.758
 4522TIP3   OH213510   2.183   2.872   2.875
 4522TIP3    H113511   2.256   2.848   2.933
 4522TIP3    H213512   2.108   2.883   2.934
 4523TIP3   OH213513   1.885   5.055   3.713
 4523TIP3    H113514   1.830   5.076   3.788
 4523TIP3    H213515   1.928   4.973   3.737
 4524TIP3   OH213516   0.437   0.113   0.707
 4524TIP3    H113517   0.389   0.035   0.736
 4524TIP3    H213518   0.387   0.146   0.632
 4525TIP3   OH213519   6.848   1.934   4.936
 4525TIP3    H113520   6.852   1.996   5.009
 4525TIP3    H213521   6.759   1.900   4.937
 4526TIP3   OH213522   1.418   6.563   2.061
 4526TIP3    H113523   1.408   6.505   2.137
 4526TIP3    H213524   1.492   6.527   2.012
 4527TIP3   OH213525   5.636   2.516   5.412
 4527TIP3    H113526   5.573   2.585   5.431
 4527TIP3    H213527   5.663   2.532   5.321
 4528TIP3   OH213528   5.084   2.540   4.428
 4528TIP3    H113529   5.073   2.559   4.335
 4528TIP3    H213530   5.176   2.561   4.446
 4529TIP3   OH213531   0.130   4.557   4.796
 4529TIP3    H113532   0.114   4.468   4.826
 4529TIP3    H213533   0.124   4.611   4.875
 4530TIP3   OH213534   3.020   7.452   4.471
 4530TIP3    H113535   3.019   7.475   4.564
 4530TIP3    H213536   3.106   7.479   4.440
 4531TIP3   OH213537   7.812   6.778   4.273
 4531TIP3    H113538   7.837   6.728   4.195
 4531TIP3    H213539   7.768   6.715   4.330
 4532TIP3   OH213540   5.730   3.489   2.368
 4532TIP3    H113541   5.818   3.471   2.336
 4532TIP3    H213542   5.708   3.575   2.331
 4533TIP3   OH213543   3.905   2.427   0.846
 4533TIP3    H113544   3.926   2.449   0.937
 4533TIP3    H213545   3.957   2.349   0.827
 4534TIP3   OH213546   7.756   5.308   0.346
 4534TIP3    H113547   7.781   5.398   0.366
 4534TIP3    H213548   7.680   5.291   0.402
 4535TIP3   OH213549   7.737   6.804   5.164
 4535TIP3    H113550   7.685   6.882   5.178
 4535TIP3    H213551   7.819   6.836   5.127
 4536TIP3   OH213552   4.806   7.310   0.049
 4536TIP3    H113553   4.775   7.401   0.051
 4536TIP3    H213554   4.741   7.263  -0.001
 4537TIP3   OH213555   3.547   2.853   0.946
 4537TIP3    H113556   3.484   2.862   0.875
 4537TIP3    H213557   3.493   2.831   1.023
 4538TIP3   OH213558   4.770   5.159   0.113
 4538TIP3    H113559   4.678   5.155   0.088
 4538TIP3    H213560   4.817   5.174   0.031
 4539TIP3   OH213561   5.693   5.139   5.937
 4539TIP3    H113562   5.717   5.141   5.844
 4539TIP3    H213563   5.686   5.231   5.962
 4540TIP3   OH213564   6.233   7.238   1.002
 4540TIP3    H113565   6.324   7.217   0.984
 4540TIP3    H213566   6.187   7.154   0.997
 4541TIP3   OH213567   7.711   0.386   4.865
 4541TIP3    H113568   7.771   0.392   4.940
 4541TIP3    H213569   7.738   0.457   4.807
 4542TIP3   OH213570   3.749   3.181   6.424
 4542TIP3    H113571   3.842   3.192   6.405
 4542TIP3    H213572   3.747   3.152   6.516
 4543TIP3   OH213573   1.312   1.479   4.399
 4543TIP3    H113574   1.346   1.406   4.347
 4543TIP3    H213575   1.217   1.466   4.398
 4544TIP3   OH213576   2.911   0.879   1.216
 4544TIP3    H113577   2.897   0.963   1.260
 4544TIP3    H213578   2.897   0.898   1.123
 4545TIP3   OH213579   2.605   6.415   0.021
 4545TIP3    H113580   2.638   6.369  -0.056
 4545TIP3    H213581   2.680   6.464   0.053
 4546TIP3   OH213582   8.229   0.600   3.609
 4546TIP3    H113583   8.187   0.609   3.695
 4546TIP3    H213584   8.293   0.671   3.606
 4547TIP3   OH213585   3.608   6.220   3.716
 4547TIP3    H113586   3.697   6.254   3.715
 4547TIP3    H213587   3.572   6.246   3.631
 4548TIP3   OH213588   6.936   0.509   1.945
 4548TIP3    H113589   6.933   0.487   1.852
 4548TIP3    H213590   7.005   0.454   1.981
 4549TIP3   OH213591   4.739   3.973   0.910
 4549TIP3    H113592   4.777   4.046   0.958
 4549TIP3    H213593   4.753   3.897   0.967
 4550TIP3   OH213594   1.290   4.101   4.111
 4550TIP3    H113595   1.367   4.101   4.054
 4550TIP3    H213596   1.223   4.146   4.059
 4551TIP3   OH213597   3.537   0.124   6.733
 4551TIP3    H113598   3.509   0.067   6.662
 4551TIP3    H213599   3.565   0.205   6.689
 4552TIP3   OH213600   4.209   2.323   6.588
 4552TIP3    H113601   4.231   2.312   6.681
 4552TIP3    H213602   4.280   2.280   6.541
 4553TIP3   OH213603   1.441   0.744   3.384
 4553TIP3    H113604   1.442   0.800   3.306
 4553TIP3    H213605   1.379   0.675   3.363
 4554TIP3   OH213606   4.416   6.087   5.690
 4554TIP3    H113607   4.384   6.044   5.769
 4554TIP3    H213608   4.445   6.173   5.720
 4555TIP3   OH213609   4.778   4.438   6.704
 4555TIP3    H113610   4.837   4.370   6.735
 4555TIP3    H213611   4.835   4.505   6.665
 4556TIP3   OH213612   2.605   5.914   4.744
 4556TIP3    H113613   2.516   5.891   4.716
 4556TIP3    H213614   2.619   6.003   4.711
 4557TIP3   OH213615   4.631   4.055   4.160
 4557TIP3    H113616   4.710   4.099   4.129
 4557TIP3    H213617   4.562   4.086   4.101
 4558TIP3   OH213618   2.722   3.028   5.585
 4558TIP3    H113619   2.655   3.097   5.587
 4558TIP3    H213620   2.771   3.039   5.666
 4559TIP3   OH213621   3.743   0.830   0.410
 4559TIP3    H113622   3.774   0.908   0.363
 4559TIP3    H213623   3.811   0.765   0.394
 4560TIP3   OH213624   3.613   4.223   1.015
 4560TIP3    H113625   3.632   4.273   0.935
 4560TIP3    H213626   3.585   4.290   1.078
 4561TIP3   OH213627   2.485   4.867   0.643
 4561TIP3    H113628   2.448   4.882   0.729
 4561TIP3    H213629   2.534   4.785   0.652
 4562TIP3   OH213630   3.572   2.596   2.603
 4562TIP3    H113631   3.616   2.681   2.605
 4562TIP3    H213632   3.641   2.533   2.623
 4563TIP3   OH213633   7.603   7.059   5.577
 4563TIP3    H113634   7.554   6.982   5.547
 4563TIP3    H213635   7.582   7.067   5.670
 4564TIP3   OH213636   6.274   1.731   3.947
 4564TIP3    H113637   6.322   1.812   3.930
 4564TIP3    H213638   6.184   1.750   3.920
 4565TIP3   OH213639   4.634   4.843   6.132
 4565TIP3    H113640   4.697   4.797   6.076
 4565TIP3    H213641   4.608   4.778   6.198
 4566TIP3   OH213642   1.153   7.027   2.446
 4566TIP3    H113643   1.178   7.093   2.511
 4566TIP3    H213644   1.110   6.958   2.497
 4567TIP3   OH213645   1.306   7.045   4.686
 4567TIP3    H113646   1.290   7.139   4.696
 4567TIP3    H213647   1.219   7.008   4.669
 4568TIP3   OH213648   2.151   3.429   6.511
 4568TIP3    H113649   2.171   3.416   6.604
 4568TIP3    H213650   2.234   3.412   6.466
 4569TIP3   OH213651   2.421   1.973   0.187
 4569TIP3    H113652   2.355   1.997   0.253
 4569TIP3    H213653   2.369   1.945   0.111
 4570TIP3   OH213654   2.902   7.113   0.919
 4570TIP3    H113655   2.937   7.025   0.934
 4570TIP3    H213656   2.931   7.135   0.830
 4571TIP3   OH213657   4.811   2.356   1.001
 4571TIP3    H113658   4.820   2.447   1.030
 4571TIP3    H213659   4.777   2.361   0.912
 4572TIP3   OH213660   3.853   3.706   1.166
 4572TIP3    H113661   3.877   3.798   1.167
 4572TIP3    H213662   3.898   3.670   1.090
 4573TIP3   OH213663   3.796   6.478   6.336
 4573TIP3    H113664   3.753   6.450   6.417
 4573TIP3    H213665   3.818   6.397   6.292
 4574TIP3   OH213666   0.252   5.344   2.223
 4574TIP3    H113667   0.233   5.438   2.228
 4574TIP3    H213668   0.169   5.304   2.196
 4575TIP3   OH213669   5.199   2.761   4.728
 4575TIP3    H113670   5.249   2.745   4.808
 4575TIP3    H213671   5.251   2.825   4.680
 4576TIP3   OH213672   5.217   4.463   3.582
 4576TIP3    H113673   5.130   4.499   3.603
 4576TIP3    H213674   5.227   4.480   3.489
 4577TIP3   OH213675   4.198   1.350   3.752
 4577TIP3    H113676   4.202   1.314   3.840
 4577TIP3    H213677   4.263   1.420   3.751
 4578TIP3   OH213678   5.715   4.316   5.277
 4578TIP3    H113679   5.762   4.273   5.348
 4578TIP3    H213680   5.780   4.323   5.206
 4579TIP3   OH213681   4.232   1.376   1.828
 4579TIP3    H113682   4.287   1.320   1.773
 4579TIP3    H213683   4.151   1.386   1.777
 4580TIP3   OH213684   5.459   2.029   0.195
 4580TIP3    H113685   5.551   2.011   0.215
 4580TIP3    H213686   5.418   1.943   0.194
 4581TIP3   OH213687   7.642   1.043   4.891
 4581TIP3    H113688   7.557   1.029   4.934
 4581TIP3    H213689   7.706   1.015   4.956
 4582TIP3   OH213690   1.473   2.300   1.536
 4582TIP3    H113691   1.544   2.244   1.569
 4582TIP3    H213692   1.406   2.296   1.605
 4583TIP3   OH213693   3.588   2.870   5.176
 4583TIP3    H113694   3.647   2.898   5.106
 4583TIP3    H213695   3.503   2.858   5.132
 4584TIP3   OH213696   1.375   2.971   4.026
 4584TIP3    H113697   1.342   3.048   3.980
 4584TIP3    H213698   1.299   2.913   4.033
 4585TIP3   OH213699   4.421   3.202   4.848
 4585TIP3    H113700   4.343   3.245   4.813
 4585TIP3    H213701   4.399   3.183   4.939
 4586TIP3   OH213702   7.850   6.273   3.972
 4586TIP3    H113703   7.921   6.230   4.019
 4586TIP3    H213704   7.783   6.289   4.038
 4587TIP3   OH213705   7.545   7.758   4.198
 4587TIP3    H113706   7.602   7.719   4.264
 4587TIP3    H213707   7.470   7.793   4.248
 4588TIP3   OH213708   0.250   1.828   4.719
 4588TIP3    H113709   0.344   1.820   4.731
 4588TIP3    H213710   0.225   1.751   4.668
 4589TIP3   OH213711   5.534   5.026   3.685
 4589TIP3    H113712   5.583   5.071   3.615
 4589TIP3    H213713   5.467   5.089   3.711
 4590TIP3   OH213714   4.954   1.998   0.673
 4590TIP3    H113715   5.038   2.013   0.630
 4590TIP3    H213716   4.914   1.926   0.623
 4591TIP3   OH213717   5.370   2.969   2.278
 4591TIP3    H113718   5.456   2.977   2.319
 4591TIP3    H213719   5.390   2.942   2.188
 4592TIP3   OH213720   0.557   6.820   1.010
 4592TIP3    H113721   0.513   6.903   1.027
 4592TIP3    H213722   0.503   6.754   1.055
 4593TIP3   OH213723   0.333   1.670   4.962
 4593TIP3    H113724   0.397   1.636   4.900
 4593TIP3    H213725   0.252   1.624   4.941
 4594TIP3   OH213726   1.076   4.576   2.083
 4594TIP3    H113727   1.031   4.492   2.083
 4594TIP3    H213728   1.126   4.577   2.001
 4595TIP3   OH213729   8.207   5.746   5.666
 4595TIP3    H113730   8.148   5.731   5.591
 4595TIP3    H213731   8.190   5.672   5.724
 4596TIP3   OH213732   4.462   0.153   2.288
 4596TIP3    H113733   4.531   0.127   2.227
 4596TIP3    H213734   4.480   0.246   2.306
 4597TIP3   OH213735   7.182   4.063   6.175
 4597TIP3    H113736   7.110   4.126   6.176
 4597TIP3    H213737   7.152   3.990   6.229
 4598TIP3   OH213738   3.143   6.551   0.341
 4598TIP3    H113739   3.118   6.545   0.249
 4598TIP3    H213740   3.223   6.499   0.347
 4599TIP3   OH213741   7.294   3.567   1.085
 4599TIP3    H113742   7.264   3.655   1.063
 4599TIP3    H213743   7.213   3.515   1.089
 4600TIP3   OH213744   7.227   2.964   3.259
 4600TIP3    H113745   7.137   2.996   3.260
 4600TIP3    H213746   7.269   3.013   3.188
 4601TIP3   OH213747   0.974   1.121   0.211
 4601TIP3    H113748   1.038   1.052   0.231
 4601TIP3    H213749   0.950   1.106   0.120
 4602TIP3   OH213750   2.473   7.230   1.540
 4602TIP3    H113751   2.388   7.198   1.569
 4602TIP3    H213752   2.483   7.314   1.583
 4603TIP3   OH213753   6.074   6.259   6.379
 4603TIP3    H113754   6.056   6.239   6.471
 4603TIP3    H213755   6.135   6.333   6.382
 4604TIP3   OH213756   2.397   6.645   4.916
 4604TIP3    H113757   2.397   6.562   4.868
 4604TIP3    H213758   2.392   6.620   5.008
 4605TIP3   OH213759   3.686   2.156   6.560
 4605TIP3    H113760   3.656   2.094   6.626
 4605TIP3    H213761   3.780   2.140   6.551
 4606TIP3   OH213762   0.164   6.841   2.158
 4606TIP3    H113763   0.117   6.882   2.086
 4606TIP3    H213764   0.156   6.903   2.230
 4607TIP3   OH213765   7.703   0.140   3.765
 4607TIP3    H113766   7.648   0.196   3.711
 4607TIP3    H213767   7.643   0.076   3.802
 4608TIP3   OH213768   4.990   2.385   3.189
 4608TIP3    H113769   4.944   2.360   3.269
 4608TIP3    H213770   5.016   2.476   3.204
 4609TIP3   OH213771   1.906   4.243   2.381
 4609TIP3    H113772   1.827   4.200   2.413
 4609TIP3    H213773   1.875   4.303   2.313
 4610TIP3   OH213774   3.452   2.004   0.618
 4610TIP3    H113775   3.361   1.978   0.602
 4610TIP3    H213776   3.464   1.995   0.712
 4611TIP3   OH213777   4.594   5.302   3.670
 4611TIP3    H113778   4.572   5.260   3.753
 4611TIP3    H213779   4.562   5.241   3.603
 4612TIP3   OH213780   7.643   2.583   3.246
 4612TIP3    H113781   7.732   2.619   3.242
 4612TIP3    H213782   7.594   2.647   3.297
 4613TIP3   OH213783   5.085   4.395   0.060
 4613TIP3    H113784   5.162   4.359   0.016
 4613TIP3    H213785   5.036   4.318   0.089
 4614TIP3   OH213786   8.012   5.620   5.449
 4614TIP3    H113787   7.948   5.633   5.379
 4614TIP3    H213788   8.030   5.526   5.448
 4615TIP3   OH213789   7.187   1.512   6.666
 4615TIP3    H113790   7.132   1.535   6.741
 4615TIP3    H213791   7.275   1.499   6.703
 4616TIP3   OH213792   7.063   7.762   5.047
 4616TIP3    H113793   6.984   7.745   4.997
 4616TIP3    H213794   7.041   7.737   5.136
 4617TIP3   OH213795   3.424   0.455   6.031
 4617TIP3    H113796   3.489   0.385   6.024
 4617TIP3    H213797   3.345   0.411   6.063
 4618TIP3   OH213798   6.900   3.960   1.770
 4618TIP3    H113799   6.901   4.055   1.760
 4618TIP3    H213800   6.807   3.938   1.778
 4619TIP3   OH213801   2.030   2.623   2.128
 4619TIP3    H113802   1.952   2.620   2.185
 4619TIP3    H213803   2.031   2.538   2.085
 4620TIP3   OH213804   2.339   1.156   5.738
 4620TIP3    H113805   2.257   1.142   5.690
 4620TIP3    H213806   2.371   1.068   5.756
 4621TIP3   OH213807   1.794   6.828   5.561
 4621TIP3    H113808   1.817   6.776   5.638
 4621TIP3    H213809   1.724   6.777   5.519
 4622TIP3   OH213810   2.397   6.320   1.839
 4622TIP3    H113811   2.492   6.326   1.854
 4622TIP3    H213812   2.385   6.362   1.754
 4623TIP3   OH213813   2.081   4.243   3.760
 4623TIP3    H113814   2.097   4.232   3.666
 4623TIP3    H213815   2.168   4.235   3.799
 4624TIP3   OH213816   7.010   2.064   3.688
 4624TIP3    H113817   7.006   2.062   3.593
 4624TIP3    H213818   7.026   1.973   3.713
 4625TIP3   OH213819   8.246   1.454   5.254
 4625TIP3    H113820   8.179   1.403   5.207
 4625TIP3    H213821   8.321   1.453   5.195
 4626TIP3   OH213822   0.420   4.267   2.179
 4626TIP3    H113823   0.351   4.238   2.120
 4626TIP3    H213824   0.441   4.356   2.150
 4627TIP3   OH213825   6.773   5.122   5.389
 4627TIP3    H113826   6.737   5.170   5.464
 4627TIP3    H213827   6.705   5.058   5.367
 4628TIP3   OH213828   4.603   1.268   4.489
 4628TIP3    H113829   4.651   1.188   4.471
 4628TIP3    H213830   4.558   1.288   4.406
 4629TIP3   OH213831   7.808   0.842   1.271
 4629TIP3    H113832   7.882   0.857   1.213
 4629TIP3    H213833   7.840   0.866   1.358
 4630TIP3   OH213834   5.678   2.537   1.212
 4630TIP3    H113835   5.696   2.541   1.118
 4630TIP3    H213836   5.728   2.462   1.243
 4631TIP3   OH213837   7.850   4.013   0.185
 4631TIP3    H113838   7.792   4.084   0.158
 4631TIP3    H213839   7.805   3.933   0.160
 4632TIP3   OH213840   5.295   5.354   3.577
 4632TIP3    H113841   5.317   5.435   3.623
 4632TIP3    H213842   5.305   5.285   3.643
 4633TIP3   OH213843   5.026   6.997   3.741
 4633TIP3    H113844   4.933   6.986   3.722
 4633TIP3    H213845   5.034   7.088   3.769
 4634TIP3   OH213846   2.425   4.184   6.046
 4634TIP3    H113847   2.485   4.258   6.048
 4634TIP3    H213848   2.355   4.208   6.107
 4635TIP3   OH213849   5.512   6.559   1.867
 4635TIP3    H113850   5.483   6.502   1.795
 4635TIP3    H213851   5.430   6.589   1.907
 4636TIP3   OH213852   7.840   2.377   2.327
 4636TIP3    H113853   7.893   2.433   2.270
 4636TIP3    H213854   7.783   2.328   2.268
 4637TIP3   OH213855  -0.002   4.719   5.028
 4637TIP3    H113856  -0.010   4.642   5.085
 4637TIP3    H213857   0.034   4.787   5.086
 4638TIP3   OH213858   5.677   3.666   6.721
 4638TIP3    H113859   5.664   3.745   6.668
 4638TIP3    H213860   5.762   3.631   6.692
 4639TIP3   OH213861   3.896   6.745   6.399
 4639TIP3    H113862   3.840   6.670   6.383
 4639TIP3    H213863   3.946   6.722   6.477
 4640TIP3   OH213864   2.475   5.554   4.403
 4640TIP3    H113865   2.425   5.573   4.483
 4640TIP3    H213866   2.497   5.641   4.367
 4641TIP3   OH213867   6.359   7.536   3.916
 4641TIP3    H113868   6.430   7.497   3.968
 4641TIP3    H213869   6.401   7.606   3.866
 4642TIP3   OH213870   7.836   6.639   0.438
 4642TIP3    H113871   7.745   6.625   0.464
 4642TIP3    H213872   7.887   6.617   0.516
 4643TIP3   OH213873   5.484  -0.009   5.926
 4643TIP3    H113874   5.435  -0.075   5.975
 4643TIP3    H213875   5.474   0.071   5.977
 4644TIP3   OH213876   2.860   1.394   4.418
 4644TIP3    H113877   2.859   1.386   4.323
 4644TIP3    H213878   2.952   1.388   4.442
 4645TIP3   OH213879   6.364   6.643   1.824
 4645TIP3    H113880   6.346   6.567   1.768
 4645TIP3    H213881   6.364   6.608   1.913
 4646TIP3   OH213882   5.971   0.100   0.264
 4646TIP3    H113883   5.907   0.148   0.210
 4646TIP3    H213884   5.921   0.026   0.300
 4647TIP3   OH213885   3.099   1.774   0.976
 4647TIP3    H113886   3.159   1.699   0.973
 4647TIP3    H213887   3.084   1.788   1.070
 4648TIP3   OH213888   6.870   6.518   6.308
 4648TIP3    H113889   6.788   6.517   6.358
 4648TIP3    H213890   6.896   6.426   6.303
 4649TIP3   OH213891   5.484   6.041   3.328
 4649TIP3    H113892   5.434   5.973   3.284
 4649TIP3    H213893   5.514   6.000   3.409
 4650TIP3   OH213894   0.076   4.229   2.115
 4650TIP3    H113895   0.093   4.196   2.204
 4650TIP3    H213896  -0.016   4.257   2.118
 4651TIP3   OH213897   3.204   6.027   5.660
 4651TIP3    H113898   3.215   5.983   5.744
 4651TIP3    H213899   3.219   5.959   5.595
 4652TIP3   OH213900   5.736   5.443   2.113
 4652TIP3    H113901   5.657   5.416   2.067
 4652TIP3    H213902   5.744   5.381   2.186
 4653TIP3   OH213903   6.064   4.131   6.132
 4653TIP3    H113904   6.101   4.064   6.189
 4653TIP3    H213905   6.081   4.099   6.044
 4654TIP3   OH213906   0.033   0.428   3.063
 4654TIP3    H113907   0.061   0.440   2.972
 4654TIP3    H213908  -0.053   0.386   3.056
 4655TIP3   OH213909   3.658   1.539   5.102
 4655TIP3    H113910   3.623   1.627   5.087
 4655TIP3    H213911   3.702   1.516   5.020
 4656TIP3   OH213912   7.987   1.538   5.329
 4656TIP3    H113913   7.970   1.632   5.326
 4656TIP3    H213914   8.080   1.529   5.311
 4657TIP3   OH213915   1.877   1.268   6.452
 4657TIP3    H113916   1.876   1.197   6.516
 4657TIP3    H213917   1.870   1.348   6.504
 4658TIP3   OH213918   2.145   4.552   3.249
 4658TIP3    H113919   2.186   4.481   3.299
 4658TIP3    H213920   2.072   4.580   3.303
 4659TIP3   OH213921   3.787   6.793   4.386
 4659TIP3    H113922   3.761   6.883   4.406
 4659TIP3    H213923   3.724   6.739   4.434
 4660TIP3   OH213924   0.432   4.906   4.445
 4660TIP3    H113925   0.502   4.848   4.476
 4660TIP3    H213926   0.449   4.989   4.488
 4661TIP3   OH213927   4.972   7.441   5.279
 4661TIP3    H113928   4.926   7.519   5.248
 4661TIP3    H213929   5.065   7.463   5.271
 4662TIP3   OH213930   6.382   6.798   3.145
 4662TIP3    H113931   6.286   6.794   3.141
 4662TIP3    H213932   6.403   6.888   3.121
 4663TIP3   OH213933   4.221   5.837   0.245
 4663TIP3    H113934   4.221   5.902   0.315
 4663TIP3    H213935   4.161   5.873   0.180
 4664TIP3   OH213936   5.050   7.244   4.882
 4664TIP3    H113937   4.972   7.188   4.883
 4664TIP3    H213938   5.118   7.191   4.923
 4665TIP3   OH213939   4.928   5.308   6.484
 4665TIP3    H113940   4.999   5.372   6.486
 4665TIP3    H213941   4.864   5.346   6.424
 4666TIP3   OH213942   4.023   4.765   5.673
 4666TIP3    H113943   4.094   4.717   5.631
 4666TIP3    H213944   4.067   4.830   5.729
 4667TIP3   OH213945   5.001   6.347   5.097
 4667TIP3    H113946   4.950   6.377   5.171
 4667TIP3    H213947   5.053   6.273   5.131
 4668TIP3   OH213948   7.411   0.008   4.199
 4668TIP3    H113949   7.462  -0.055   4.250
 4668TIP3    H213950   7.321  -0.003   4.229
 4669TIP3   OH213951   6.885   5.618   0.134
 4669TIP3    H113952   6.882   5.525   0.113
 4669TIP3    H213953   6.923   5.621   0.222
 4670TIP3   OH213954   6.884   4.120   6.806
 4670TIP3    H113955   6.951   4.065   6.847
 4670TIP3    H213956   6.932   4.172   6.742
 4671TIP3   OH213957   5.541   5.519   5.127
 4671TIP3    H113958   5.607   5.581   5.158
 4671TIP3    H213959   5.573   5.492   5.041
 4672TIP3   OH213960   4.700   7.318   4.352
 4672TIP3    H113961   4.688   7.371   4.430
 4672TIP3    H213962   4.744   7.239   4.383
 4673TIP3   OH213963   0.432   4.458   3.539
 4673TIP3    H113964   0.373   4.468   3.613
 4673TIP3    H213965   0.452   4.547   3.511
 4674TIP3   OH213966   3.876   7.179   1.513
 4674TIP3    H113967   3.959   7.168   1.558
 4674TIP3    H213968   3.888   7.134   1.429
 4675TIP3   OH213969   1.298   7.289   2.234
 4675TIP3    H113970   1.207   7.280   2.208
 4675TIP3    H213971   1.297   7.287   2.329
 4676TIP3   OH213972   2.597   0.485   1.668
 4676TIP3    H113973   2.623   0.556   1.726
 4676TIP3    H213974   2.550   0.424   1.724
 4677TIP3   OH213975   2.657   3.901   2.145
 4677TIP3    H113976   2.658   3.805   2.152
 4677TIP3    H213977   2.567   3.923   2.120
 4678TIP3   OH213978   1.895   1.085   5.069
 4678TIP3    H113979   1.897   1.130   4.985
 4678TIP3    H213980   1.876   0.994   5.048
 4679TIP3   OH213981   2.625   3.508   4.486
 4679TIP3    H113982   2.718   3.489   4.501
 4679TIP3    H213983   2.610   3.482   4.395
 4680TIP3   OH213984   6.957   0.574   5.894
 4680TIP3    H113985   7.005   0.538   5.819
 4680TIP3    H213986   6.909   0.499   5.930
 4681TIP3   OH213987   0.299   5.226   1.995
 4681TIP3    H113988   0.220   5.179   1.969
 4681TIP3    H213989   0.271   5.281   2.068
 4682TIP3   OH213990   1.365   3.200   4.484
 4682TIP3    H113991   1.361   3.237   4.396
 4682TIP3    H213992   1.359   3.106   4.471
 4683TIP3   OH213993   6.022   6.647   4.215
 4683TIP3    H113994   5.938   6.601   4.222
 4683TIP3    H213995   6.028   6.697   4.296
 4684TIP3   OH213996   5.162   0.507   5.005
 4684TIP3    H113997   5.210   0.551   5.076
 4684TIP3    H213998   5.169   0.567   4.931
 4685TIP3   OH213999   7.456   1.393   6.701
 4685TIP3    H114000   7.496   1.438   6.627
 4685TIP3    H214001   7.530   1.359   6.751
 4686TIP3   OH214002   1.058   6.486   5.120
 4686TIP3    H114003   1.119   6.482   5.046
 4686TIP3    H214004   1.115   6.499   5.197
 4687TIP3   OH214005   7.052   2.774   0.744
 4687TIP3    H114006   7.092   2.705   0.692
 4687TIP3    H214007   7.123   2.836   0.761
 4688TIP3   OH214008   6.090   7.560   0.668
 4688TIP3    H114009   6.146   7.636   0.649
 4688TIP3    H214010   6.134   7.514   0.739
 4689TIP3   OH214011   0.786   3.275   3.774
 4689TIP3    H114012   0.771   3.207   3.840
 4689TIP3    H214013   0.820   3.227   3.698
 4690TIP3   OH214014   0.364   1.079   3.754
 4690TIP3    H114015   0.400   1.165   3.776
 4690TIP3    H214016   0.283   1.098   3.707
 4691TIP3   OH214017   2.769   1.937   4.437
 4691TIP3    H114018   2.738   1.854   4.401
 4691TIP3    H214019   2.798   1.916   4.525
 4692TIP3   OH214020   5.953   0.365   5.466
 4692TIP3    H114021   5.868   0.383   5.426
 4692TIP3    H214022   5.992   0.298   5.411
 4693TIP3   OH214023   0.173   6.347   2.387
 4693TIP3    H114024   0.146   6.336   2.296
 4693TIP3    H214025   0.251   6.403   2.382
 4694TIP3   OH214026   6.881   5.678   0.850
 4694TIP3    H114027   6.901   5.615   0.919
 4694TIP3    H214028   6.809   5.730   0.885
 4695TIP3   OH214029   2.243   1.616   1.188
 4695TIP3    H114030   2.223   1.666   1.109
 4695TIP3    H214031   2.335   1.636   1.206
 4696TIP3   OH214032   6.398   7.360   4.596
 4696TIP3    H114033   6.448   7.291   4.552
 4696TIP3    H214034   6.307   7.343   4.570
 4697TIP3   OH214035   5.640   1.717   4.914
 4697TIP3    H114036   5.596   1.635   4.934
 4697TIP3    H214037   5.677   1.704   4.827
 4698TIP3   OH214038   3.815   2.089   0.107
 4698TIP3    H114039   3.752   2.141   0.156
 4698TIP3    H214040   3.765   2.052   0.034
 4699TIP3   OH214041   5.206   1.987   0.643
 4699TIP3    H114042   5.297   2.008   0.621
 4699TIP3    H214043   5.212   1.944   0.728
 4700TIP3   OH214044   7.913   5.124   3.757
 4700TIP3    H114045   7.846   5.064   3.787
 4700TIP3    H214046   7.981   5.121   3.824
 4701TIP3   OH214047   4.283   5.867   4.828
 4701TIP3    H114048   4.372   5.893   4.805
 4701TIP3    H214049   4.292   5.819   4.910
 4702TIP3   OH214050   8.012   5.944   0.662
 4702TIP3    H114051   7.945   6.004   0.628
 4702TIP3    H214052   8.092   5.998   0.665
 4703TIP3   OH214053   3.993   3.793   2.194
 4703TIP3    H114054   4.065   3.730   2.199
 4703TIP3    H214055   3.975   3.816   2.285
 4704TIP3   OH214056   4.498   0.949   5.330
 4704TIP3    H114057   4.428   0.891   5.360
 4704TIP3    H214058   4.575   0.920   5.379
 4705TIP3   OH214059   3.042   2.889   5.695
 4705TIP3    H114060   3.074   2.932   5.616
 4705TIP3    H214061   2.979   2.951   5.732
 4706TIP3   OH214062   6.631   2.819   5.808
 4706TIP3    H114063   6.600   2.781   5.891
 4706TIP3    H214064   6.650   2.910   5.829
 4707TIP3   OH214065   0.253   0.069   3.827
 4707TIP3    H114066   0.298   0.153   3.820
 4707TIP3    H214067   0.199   0.077   3.905
 4708TIP3   OH214068   7.632   4.711   4.176
 4708TIP3    H114069   7.556   4.733   4.230
 4708TIP3    H214070   7.703   4.763   4.213
 4709TIP3   OH214071   1.112   7.661   4.793
 4709TIP3    H114072   1.105   7.599   4.865
 4709TIP3    H214073   1.199   7.700   4.802
 4710TIP3   OH214074   4.352   4.207   6.002
 4710TIP3    H114075   4.374   4.178   6.090
 4710TIP3    H214076   4.287   4.144   5.971
 4711TIP3   OH214077   5.901   4.938   6.544
 4711TIP3    H114078   5.960   4.920   6.471
 4711TIP3    H214079   5.814   4.942   6.504
 4712TIP3   OH214080   3.738   6.155   0.935
 4712TIP3    H114081   3.688   6.225   0.976
 4712TIP3    H214082   3.692   6.075   0.961
 4713TIP3   OH214083   6.901   5.001   0.122
 4713TIP3    H114084   6.923   5.075   0.180
 4713TIP3    H214085   6.894   4.926   0.181
 4714TIP3   OH214086   0.898   5.605   4.605
 4714TIP3    H114087   0.876   5.525   4.654
 4714TIP3    H214088   0.838   5.671   4.641
 4715TIP3   OH214089   2.198   0.167   3.511
 4715TIP3    H114090   2.225   0.130   3.595
 4715TIP3    H214091   2.224   0.259   3.516
 4716TIP3   OH214092   6.203   0.708   5.432
 4716TIP3    H114093   6.210   0.682   5.341
 4716TIP3    H214094   6.234   0.798   5.434
 4717TIP3   OH214095   2.375   3.178   3.287
 4717TIP3    H114096   2.407   3.098   3.330
 4717TIP3    H214097   2.288   3.192   3.325
 4718TIP3   OH214098   6.559   5.451   6.300
 4718TIP3    H114099   6.603   5.477   6.219
 4718TIP3    H214100   6.630   5.443   6.364
 4719TIP3   OH214101   0.196   3.324   5.623
 4719TIP3    H114102   0.136   3.340   5.695
 4719TIP3    H214103   0.268   3.385   5.637
 4720TIP3   OH214104   6.924   1.383   4.381
 4720TIP3    H114105   6.916   1.340   4.466
 4720TIP3    H214106   6.894   1.473   4.397
 4721TIP3   OH214107   1.785   5.497   1.751
 4721TIP3    H114108   1.823   5.423   1.798
 4721TIP3    H214109   1.814   5.574   1.801
 4722TIP3   OH214110   3.564   5.979   1.047
 4722TIP3    H114111   3.511   5.984   0.968
 4722TIP3    H214112   3.501   5.965   1.118
 4723TIP3   OH214113   2.330   2.316   5.090
 4723TIP3    H114114   2.336   2.386   5.025
 4723TIP3    H214115   2.419   2.283   5.098
 4724TIP3   OH214116   8.182   4.891   4.584
 4724TIP3    H114117   8.149   4.943   4.511
 4724TIP3    H214118   8.150   4.802   4.567
 4725TIP3   OH214119   3.171   1.919   0.728
 4725TIP3    H114120   3.118   1.856   0.679
 4725TIP3    H214121   3.172   1.885   0.817
 4726TIP3   OH214122   2.689   6.314   2.884
 4726TIP3    H114123   2.772   6.271   2.902
 4726TIP3    H214124   2.695   6.340   2.792
 4727TIP3   OH214125   4.538   0.326   2.980
 4727TIP3    H114126   4.574   0.383   2.912
 4727TIP3    H214127   4.498   0.385   3.044
 4728TIP3   OH214128   0.777   7.518   2.942
 4728TIP3    H114129   0.780   7.431   2.981
 4728TIP3    H214130   0.809   7.576   3.011
 4729TIP3   OH214131   0.202   5.418   0.339
 4729TIP3    H114132   0.127   5.375   0.380
 4729TIP3    H214133   0.172   5.508   0.324
 4730TIP3   OH214134   3.918   2.393   5.120
 4730TIP3    H114135   3.856   2.321   5.131
 4730TIP3    H214136   3.980   2.381   5.192
 4731TIP3   OH214137   1.354   2.744   0.890
 4731TIP3    H114138   1.409   2.820   0.907
 4731TIP3    H214139   1.265   2.779   0.891
 4732TIP3   OH214140   3.906   3.579   3.579
 4732TIP3    H114141   3.879   3.584   3.671
 4732TIP3    H214142   3.970   3.650   3.569
 4733TIP3   OH214143   5.065   6.980   6.617
 4733TIP3    H114144   5.065   7.061   6.566
 4733TIP3    H214145   5.150   6.979   6.661
 4734TIP3   OH214146   3.807   4.788   2.616
 4734TIP3    H114147   3.896   4.757   2.597
 4734TIP3    H214148   3.770   4.722   2.675
 4735TIP3   OH214149   0.953   7.722   5.084
 4735TIP3    H114150   1.039   7.679   5.076
 4735TIP3    H214151   0.891   7.650   5.092
 4736TIP3   OH214152   5.358   7.250   1.796
 4736TIP3    H114153   5.355   7.243   1.892
 4736TIP3    H214154   5.336   7.341   1.778
 4737TIP3   OH214155   0.072   7.743   3.523
 4737TIP3    H114156  -0.020   7.758   3.502
 4737TIP3    H214157   0.111   7.719   3.439
 4738TIP3   OH214158   5.902   0.248   4.049
 4738TIP3    H114159   5.933   0.259   3.959
 4738TIP3    H214160   5.810   0.224   4.040
 4739TIP3   OH214161   0.167   0.419   2.435
 4739TIP3    H114162   0.148   0.346   2.376
 4739TIP3    H214163   0.229   0.382   2.498
 4740TIP3   OH214164   0.545   5.118   2.027
 4740TIP3    H114165   0.551   5.063   2.105
 4740TIP3    H214166   0.458   5.158   2.033
 4741TIP3   OH214167   0.486   3.692   4.854
 4741TIP3    H114168   0.508   3.664   4.765
 4741TIP3    H214169   0.568   3.722   4.891
 4742TIP3   OH214170   7.337   3.371   2.297
 4742TIP3    H114171   7.260   3.400   2.346
 4742TIP3    H214172   7.319   3.398   2.207
 4743TIP3   OH214173   7.142   1.500   2.694
 4743TIP3    H114174   7.089   1.533   2.767
 4743TIP3    H214175   7.130   1.565   2.625
 4744TIP3   OH214176   4.558   6.098   2.062
 4744TIP3    H114177   4.596   6.177   2.100
 4744TIP3    H214178   4.545   6.039   2.136
 4745TIP3   OH214179   2.650   7.227   0.375
 4745TIP3    H114180   2.722   7.290   0.375
 4745TIP3    H214181   2.583   7.266   0.320
 4746TIP3   OH214182   8.068   3.028   6.654
 4746TIP3    H114183   8.032   2.939   6.644
 4746TIP3    H214184   7.993   3.086   6.641
 4747TIP3   OH214185   6.558   3.830   5.935
 4747TIP3    H114186   6.646   3.859   5.956
 4747TIP3    H214187   6.539   3.869   5.849
 4748TIP3   OH214188   3.084   4.710   0.529
 4748TIP3    H114189   3.066   4.793   0.485
 4748TIP3    H214190   3.141   4.663   0.468
 4749TIP3   OH214191   0.674   3.435   6.719
 4749TIP3    H114192   0.653   3.488   6.796
 4749TIP3    H214193   0.763   3.404   6.735
 4750TIP3   OH214194   7.378   0.177   6.242
 4750TIP3    H114195   7.353   0.121   6.315
 4750TIP3    H214196   7.457   0.136   6.206
 4751TIP3   OH214197   5.123   4.685   3.918
 4751TIP3    H114198   5.029   4.670   3.908
 4751TIP3    H214199   5.145   4.640   4.000
 4752TIP3   OH214200   7.794   4.865   2.202
 4752TIP3    H114201   7.860   4.906   2.146
 4752TIP3    H214202   7.810   4.771   2.193
 4753TIP3   OH214203   5.158   5.285   0.111
 4753TIP3    H114204   5.092   5.336   0.157
 4753TIP3    H214205   5.226   5.268   0.177
 4754TIP3   OH214206   1.911   2.338   6.392
 4754TIP3    H114207   1.936   2.269   6.452
 4754TIP3    H214208   1.945   2.418   6.431
 4755TIP3   OH214209   5.344   2.142   2.962
 4755TIP3    H114210   5.413   2.197   2.926
 4755TIP3    H214211   5.316   2.187   3.042
 4756TIP3   OH214212   6.124   5.126   6.063
 4756TIP3    H114213   6.046   5.074   6.081
 4756TIP3    H214214   6.093   5.217   6.064
 4757TIP3   OH214215   4.297   2.048   5.918
 4757TIP3    H114216   4.261   2.018   6.001
 4757TIP3    H214217   4.221   2.057   5.860
 4758TIP3   OH214218   3.609   5.666   3.348
 4758TIP3    H114219   3.544   5.596   3.343
 4758TIP3    H214220   3.602   5.699   3.437
 4759TIP3   OH214221   3.393   6.160   2.007
 4759TIP3    H114222   3.320   6.201   2.054
 4759TIP3    H214223   3.352   6.122   1.929
 4760TIP3   OH214224   0.360   5.849   4.799
 4760TIP3    H114225   0.445   5.865   4.839
 4760TIP3    H214226   0.360   5.756   4.777
 4761TIP3   OH214227   2.980   7.155   4.421
 4761TIP3    H114228   2.891   7.121   4.415
 4761TIP3    H214229   2.971   7.237   4.469
 4762TIP3   OH214230   5.981   6.327   2.149
 4762TIP3    H114231   6.040   6.365   2.084
 4762TIP3    H214232   5.896   6.326   2.105
 4763TIP3   OH214233   6.165   0.864   1.061
 4763TIP3    H114234   6.252   0.869   1.021
 4763TIP3    H214235   6.171   0.792   1.124
 4764TIP3   OH214236   4.373   4.281   4.427
 4764TIP3    H114237   4.290   4.290   4.380
 4764TIP3    H214238   4.360   4.208   4.486
 4765TIP3   OH214239   3.947   0.254   0.213
 4765TIP3    H114240   3.978   0.231   0.126
 4765TIP3    H214241   3.986   0.340   0.230
 4766TIP3   OH214242   0.401   3.700   2.717
 4766TIP3    H114243   0.336   3.734   2.777
 4766TIP3    H214244   0.465   3.770   2.707
 4767TIP3   OH214245   1.090   0.942   0.609
 4767TIP3    H114246   1.077   0.956   0.703
 4767TIP3    H214247   1.184   0.927   0.600
 4768TIP3   OH214248   7.452   5.001   3.232
 4768TIP3    H114249   7.531   5.002   3.286
 4768TIP3    H214250   7.439   5.092   3.206
 4769TIP3   OH214251   0.910   7.172   3.590
 4769TIP3    H114252   0.989   7.181   3.537
 4769TIP3    H214253   0.935   7.110   3.659
 4770TIP3   OH214254   1.247   3.050   6.669
 4770TIP3    H114255   1.168   2.999   6.656
 4770TIP3    H214256   1.310   3.015   6.607
 4771TIP3   OH214257   5.169   4.938   0.426
 4771TIP3    H114258   5.144   4.971   0.512
 4771TIP3    H214259   5.124   4.995   0.364
 4772TIP3   OH214260   7.909   1.908   2.045
 4772TIP3    H114261   7.914   1.822   2.003
 4772TIP3    H214262   7.923   1.971   1.974
 4773TIP3   OH214263   2.620   5.112   5.067
 4773TIP3    H114264   2.524   5.121   5.065
 4773TIP3    H214265   2.651   5.176   5.003
 4774TIP3   OH214266   3.637   4.550   2.639
 4774TIP3    H114267   3.581   4.605   2.584
 4774TIP3    H214268   3.580   4.478   2.667
 4775TIP3   OH214269   2.787   5.935   4.178
 4775TIP3    H114270   2.799   5.869   4.109
 4775TIP3    H214271   2.745   6.009   4.134
 4776TIP3   OH214272   3.571   4.002   5.890
 4776TIP3    H114273   3.599   4.092   5.906
 4776TIP3    H214274   3.484   3.996   5.929
 4777TIP3   OH214275   2.359   5.682   3.641
 4777TIP3    H114276   2.296   5.701   3.571
 4777TIP3    H214277   2.315   5.617   3.695
 4778TIP3   OH214278   5.405   0.384   4.688
 4778TIP3    H114279   5.316   0.392   4.654
 4778TIP3    H214280   5.395   0.352   4.778
 4779TIP3   OH214281   0.629   7.382   2.108
 4779TIP3    H114282   0.695   7.343   2.165
 4779TIP3    H214283   0.677   7.446   2.056
 4780TIP3   OH214284   5.779   0.529   5.981
 4780TIP3    H114285   5.788   0.548   5.888
 4780TIP3    H214286   5.689   0.553   6.002
 4781TIP3   OH214287   2.399   6.495   2.088
 4781TIP3    H114288   2.336   6.537   2.030
 4781TIP3    H214289   2.484   6.513   2.048
 4782TIP3   OH214290   1.256   5.835   0.328
 4782TIP3    H114291   1.160   5.841   0.329
 4782TIP3    H214292   1.280   5.857   0.238
 4783TIP3   OH214293   2.240   2.120   5.530
 4783TIP3    H114294   2.295   2.182   5.483
 4783TIP3    H214295   2.300   2.050   5.558
 4784TIP3   OH214296   3.204   7.164   5.540
 4784TIP3    H114297   3.251   7.244   5.563
 4784TIP3    H214298   3.116   7.177   5.575
 4785TIP3   OH214299   7.086   4.951   5.138
 4785TIP3    H114300   7.015   4.890   5.155
 4785TIP3    H214301   7.164   4.910   5.176
 4786TIP3   OH214302   4.183   7.352   6.399
 4786TIP3    H114303   4.190   7.269   6.352
 4786TIP3    H214304   4.145   7.328   6.484
 4787TIP3   OH214305   1.461   5.220   1.946
 4787TIP3    H114306   1.372   5.186   1.956
 4787TIP3    H214307   1.467   5.243   1.854
 4788TIP3   OH214308   6.026   3.447   4.757
 4788TIP3    H114309   6.099   3.390   4.734
 4788TIP3    H214310   5.977   3.397   4.823
 4789TIP3   OH214311   7.007   2.246   2.034
 4789TIP3    H114312   6.967   2.307   1.972
 4789TIP3    H214313   7.016   2.297   2.115
 4790TIP3   OH214314   6.303   6.734   3.924
 4790TIP3    H114315   6.263   6.663   3.973
 4790TIP3    H214316   6.268   6.814   3.965
 4791TIP3   OH214317   3.611   4.343   6.745
 4791TIP3    H114318   3.528   4.365   6.703
 4791TIP3    H214319   3.676   4.352   6.676
 4792TIP3   OH214320   3.255   5.065   5.765
 4792TIP3    H114321   3.201   5.005   5.714
 4792TIP3    H214322   3.207   5.147   5.766
 4793TIP3   OH214323   5.620   7.366   0.458
 4793TIP3    H114324   5.707   7.382   0.424
 4793TIP3    H214325   5.570   7.445   0.435
 4794TIP3   OH214326   4.537   7.528   0.896
 4794TIP3    H114327   4.548   7.500   0.805
 4794TIP3    H214328   4.508   7.619   0.889
 4795TIP3   OH214329   4.466   0.219   4.289
 4795TIP3    H114330   4.400   0.284   4.263
 4795TIP3    H214331   4.424   0.134   4.272
 4796TIP3   OH214332   1.479   5.697   5.775
 4796TIP3    H114333   1.470   5.647   5.856
 4796TIP3    H214334   1.398   5.747   5.769
 4797TIP3   OH214335   6.560   5.617   2.862
 4797TIP3    H114336   6.565   5.551   2.793
 4797TIP3    H214337   6.546   5.700   2.815
 4798TIP3   OH214338   3.425   3.333   3.060
 4798TIP3    H114339   3.396   3.249   3.095
 4798TIP3    H214340   3.514   3.344   3.094
 4799TIP3   OH214341   1.569   2.604   6.687
 4799TIP3    H114342   1.489   2.578   6.733
 4799TIP3    H214343   1.607   2.521   6.656
 4800TIP3   OH214344   6.618   4.746   6.577
 4800TIP3    H114345   6.548   4.724   6.638
 4800TIP3    H214346   6.695   4.757   6.632
 4801TIP3   OH214347   4.654   4.615   2.748
 4801TIP3    H114348   4.657   4.525   2.780
 4801TIP3    H214349   4.566   4.646   2.772
 4802TIP3   OH214350   1.700   3.032   1.631
 4802TIP3    H114351   1.675   2.960   1.689
 4802TIP3    H214352   1.795   3.028   1.626
 4803TIP3   OH214353   5.060   5.416   6.195
 4803TIP3    H114354   5.115   5.339   6.180
 4803TIP3    H214355   4.974   5.391   6.162
 4804TIP3   OH214356   7.684   1.766   1.137
 4804TIP3    H114357   7.749   1.833   1.158
 4804TIP3    H214358   7.730   1.683   1.149
 4805TIP3   OH214359   0.600   0.633   6.276
 4805TIP3    H114360   0.510   0.621   6.245
 4805TIP3    H214361   0.650   0.565   6.232
 4806TIP3   OH214362   1.523   6.971   0.220
 4806TIP3    H114363   1.477   6.890   0.243
 4806TIP3    H214364   1.468   7.011   0.152
 4807TIP3   OH214365   7.273   6.771   5.858
 4807TIP3    H114366   7.350   6.718   5.838
 4807TIP3    H214367   7.209   6.746   5.791
 4808TIP3   OH214368   2.816   1.755   0.202
 4808TIP3    H114369   2.770   1.828   0.243
 4808TIP3    H214370   2.906   1.763   0.234
 4809TIP3   OH214371   3.890   4.535   6.707
 4809TIP3    H114372   3.931   4.621   6.712
 4809TIP3    H214373   3.963   4.473   6.711
 4810TIP3   OH214374   1.269   6.506   0.951
 4810TIP3    H114375   1.337   6.559   0.993
 4810TIP3    H214376   1.234   6.562   0.882
 4811TIP3   OH214377   2.041   7.545   2.883
 4811TIP3    H114378   1.974   7.613   2.889
 4811TIP3    H214379   2.094   7.571   2.808
 4812TIP3   OH214380   2.222   0.033   3.771
 4812TIP3    H114381   2.161   0.046   3.844
 4812TIP3    H214382   2.308   0.026   3.812
 4813TIP3   OH214383   5.095   0.826   4.198
 4813TIP3    H114384   5.159   0.893   4.224
 4813TIP3    H214385   5.035   0.873   4.140
 4814TIP3   OH214386   2.113   1.868   2.931
 4814TIP3    H114387   2.119   1.787   2.982
 4814TIP3    H214388   2.036   1.913   2.967
 4815TIP3   OH214389   0.693   1.937   6.333
 4815TIP3    H114390   0.645   1.936   6.415
 4815TIP3    H214391   0.625   1.931   6.265
 4816TIP3   OH214392   1.317   7.126   1.962
 4816TIP3    H114393   1.412   7.114   1.956
 4816TIP3    H214394   1.305   7.219   1.978
 4817TIP3   OH214395   2.528   1.021   1.455
 4817TIP3    H114396   2.533   0.961   1.529
 4817TIP3    H214397   2.610   1.071   1.460
 4818TIP3   OH214398   3.499   6.587   4.085
 4818TIP3    H114399   3.471   6.506   4.127
 4818TIP3    H214400   3.580   6.611   4.130
 4819TIP3   OH214401   0.505   1.608   1.169
 4819TIP3    H114402   0.512   1.702   1.155
 4819TIP3    H214403   0.584   1.572   1.129
 4820TIP3   OH214404   5.030   2.816   0.332
 4820TIP3    H114405   4.999   2.862   0.411
 4820TIP3    H214406   4.987   2.861   0.260
 4821TIP3   OH214407   3.170   4.239   4.776
 4821TIP3    H114408   3.117   4.176   4.727
 4821TIP3    H214409   3.109   4.309   4.799
 4822TIP3   OH214410   5.240   0.630   5.732
 4822TIP3    H114411   5.297   0.707   5.742
 4822TIP3    H214412   5.299   0.555   5.739
 4823TIP3   OH214413   7.179   2.564   3.585
 4823TIP3    H114414   7.257   2.523   3.621
 4823TIP3    H214415   7.126   2.586   3.662
 4824TIP3   OH214416   2.260   4.053   0.700
 4824TIP3    H114417   2.289   4.069   0.790
 4824TIP3    H214418   2.220   3.966   0.703
 4825TIP3   OH214419   3.903   3.002   4.513
 4825TIP3    H114420   3.964   3.042   4.576
 4825TIP3    H214421   3.939   3.024   4.427
 4826TIP3   OH214422   8.129   0.059   4.313
 4826TIP3    H114423   8.200   0.006   4.350
 4826TIP3    H214424   8.085   0.001   4.251
 4827TIP3   OH214425   5.162   6.594   1.369
 4827TIP3    H114426   5.250   6.631   1.378
 4827TIP3    H214427   5.169   6.534   1.295
 4828TIP3   OH214428   6.594   2.517   3.821
 4828TIP3    H114429   6.582   2.575   3.746
 4828TIP3    H214430   6.578   2.429   3.786
 4829TIP3   OH214431   4.139   7.514   0.079
 4829TIP3    H114432   4.126   7.503  -0.015
 4829TIP3    H214433   4.211   7.576   0.086
 4830TIP3   OH214434   5.327   1.301   3.217
 4830TIP3    H114435   5.364   1.350   3.144
 4830TIP3    H214436   5.399   1.248   3.250
 4831TIP3   OH214437   4.688   6.186   2.791
 4831TIP3    H114438   4.719   6.146   2.710
 4831TIP3    H214439   4.603   6.224   2.767
 4832TIP3   OH214440   7.340   1.045   3.494
 4832TIP3    H114441   7.293   0.980   3.442
 4832TIP3    H214442   7.289   1.053   3.574
 4833TIP3   OH214443   2.563   3.788   4.470
 4833TIP3    H114444   2.570   3.693   4.485
 4833TIP3    H214445   2.482   3.799   4.421
 4834TIP3   OH214446   1.171   0.079   1.416
 4834TIP3    H114447   1.229   0.071   1.492
 4834TIP3    H214448   1.116   0.001   1.419
 4835TIP3   OH214449   8.007   1.951   0.997
 4835TIP3    H114450   8.038   1.923   1.083
 4835TIP3    H214451   8.023   1.876   0.940
 4836TIP3   OH214452   0.189   2.263   4.307
 4836TIP3    H114453   0.142   2.180   4.316
 4836TIP3    H214454   0.271   2.250   4.353
 4837TIP3   OH214455   3.778   1.459   1.045
 4837TIP3    H114456   3.842   1.390   1.063
 4837TIP3    H214457   3.812   1.504   0.968
 4838TIP3   OH214458   4.505   4.010   5.676
 4838TIP3    H114459   4.522   4.020   5.770
 4838TIP3    H214460   4.443   3.938   5.670
 4839TIP3   OH214461   5.279   0.247   1.441
 4839TIP3    H114462   5.247   0.333   1.415
 4839TIP3    H214463   5.228   0.185   1.389
 4840TIP3   OH214464   2.567   1.544   5.838
 4840TIP3    H114465   2.488   1.591   5.864
 4840TIP3    H214466   2.562   1.460   5.882
 4841TIP3   OH214467   2.561   4.146   0.771
 4841TIP3    H114468   2.517   4.209   0.713
 4841TIP3    H214469   2.489   4.108   0.822
 4842TIP3   OH214470   3.007   2.802   3.408
 4842TIP3    H114471   3.038   2.726   3.457
 4842TIP3    H214472   2.928   2.771   3.363
 4843TIP3   OH214473   1.131   6.437   3.605
 4843TIP3    H114474   1.097   6.451   3.517
 4843TIP3    H214475   1.078   6.494   3.661
 4844TIP3   OH214476   6.458   5.246   6.734
 4844TIP3    H114477   6.400   5.220   6.663
 4844TIP3    H214478   6.426   5.198   6.810
 4845TIP3   OH214479   6.093   7.464   4.051
 4845TIP3    H114480   6.180   7.436   4.081
 4845TIP3    H214481   6.040   7.384   4.054
 4846TIP3   OH214482   6.991   4.883   2.231
 4846TIP3    H114483   6.907   4.860   2.270
 4846TIP3    H214484   7.030   4.945   2.293
 4847TIP3   OH214485   2.723   1.545   6.071
 4847TIP3    H114486   2.666   1.472   6.049
 4847TIP3    H214487   2.713   1.555   6.166
 4848TIP3   OH214488   3.325   2.222   4.889
 4848TIP3    H114489   3.344   2.224   4.795
 4848TIP3    H214490   3.374   2.296   4.925
 4849TIP3   OH214491   7.316   6.354   0.007
 4849TIP3    H114492   7.306   6.430  -0.049
 4849TIP3    H214493   7.384   6.378   0.069
 4850TIP3   OH214494   6.768   1.126   4.138
 4850TIP3    H114495   6.769   1.109   4.233
 4850TIP3    H214496   6.852   1.166   4.119
 4851TIP3   OH214497   3.592   4.479   2.208
 4851TIP3    H114498   3.530   4.406   2.213
 4851TIP3    H214499   3.631   4.471   2.121
 4852TIP3   OH214500   6.384   0.901   1.235
 4852TIP3    H114501   6.430   0.983   1.214
 4852TIP3    H214502   6.440   0.833   1.198
 4853TIP3   OH214503   3.975   6.174   0.236
 4853TIP3    H114504   3.991   6.238   0.306
 4853TIP3    H214505   4.058   6.128   0.226
 4854TIP3   OH214506   2.858   7.366   1.550
 4854TIP3    H114507   2.924   7.322   1.495
 4854TIP3    H214508   2.872   7.329   1.637
 4855TIP3   OH214509   6.576   2.915   3.800
 4855TIP3    H114510   6.598   2.861   3.724
 4855TIP3    H214511   6.530   2.856   3.859
 4856TIP3   OH214512   8.032   1.965   2.666
 4856TIP3    H114513   7.995   2.036   2.615
 4856TIP3    H214514   7.961   1.902   2.677
 4857TIP3   OH214515   1.750   1.851   4.884
 4857TIP3    H114516   1.814   1.862   4.814
 4857TIP3    H214517   1.795   1.879   4.963
 4858TIP3   OH214518   7.712   0.044   5.297
 4858TIP3    H114519   7.748  -0.024   5.354
 4858TIP3    H214520   7.695   0.118   5.356
 4859TIP3   OH214521   6.190   4.893   4.003
 4859TIP3    H114522   6.273   4.895   4.050
 4859TIP3    H214523   6.198   4.818   3.944
 4860TIP3   OH214524   2.721   5.675   2.389
 4860TIP3    H114525   2.627   5.671   2.370
 4860TIP3    H214526   2.751   5.585   2.379
 4861TIP3   OH214527   3.755   1.958   0.643
 4861TIP3    H114528   3.771   1.964   0.738
 4861TIP3    H214529   3.667   1.994   0.632
 4862TIP3   OH214530   0.775   5.034   1.849
 4862TIP3    H114531   0.806   5.079   1.927
 4862TIP3    H214532   0.740   4.951   1.882
 4863TIP3   OH214533   0.395   7.805   0.389
 4863TIP3    H114534   0.373   7.721   0.349
 4863TIP3    H214535   0.464   7.841   0.332
 4864TIP3   OH214536   3.791   2.855   4.300
 4864TIP3    H114537   3.788   2.923   4.234
 4864TIP3    H214538   3.763   2.898   4.381
 4865TIP3   OH214539   4.229   0.466   4.502
 4865TIP3    H114540   4.323   0.462   4.518
 4865TIP3    H214541   4.200   0.547   4.545
 4866TIP3   OH214542   5.228   7.112   4.073
 4866TIP3    H114543   5.276   7.052   4.129
 4866TIP3    H214544   5.138   7.109   4.105
 4867TIP3   OH214545   1.837   3.753   5.846
 4867TIP3    H114546   1.823   3.713   5.761
 4867TIP3    H214547   1.788   3.836   5.842
 4868TIP3   OH214548   1.505   1.304   0.322
 4868TIP3    H114549   1.465   1.378   0.367
 4868TIP3    H214550   1.439   1.235   0.325
 4869TIP3   OH214551   4.464   2.803   4.665
 4869TIP3    H114552   4.483   2.896   4.677
 4869TIP3    H214553   4.526   2.774   4.598
 4870TIP3   OH214554   4.437   1.556   5.503
 4870TIP3    H114555   4.388   1.635   5.526
 4870TIP3    H214556   4.425   1.546   5.409
 4871TIP3   OH214557   0.555   1.142   3.024
 4871TIP3    H114558   0.545   1.050   3.049
 4871TIP3    H214559   0.465   1.175   3.015
 4872TIP3   OH214560   5.059   5.560   1.959
 4872TIP3    H114561   5.044   5.539   2.051
 4872TIP3    H214562   5.143   5.606   1.958
 4873TIP3   OH214563   4.201   7.371   5.305
 4873TIP3    H114564   4.108   7.374   5.328
 4873TIP3    H214565   4.246   7.405   5.382
 4874TIP3   OH214566   2.611   0.516   0.781
 4874TIP3    H114567   2.540   0.549   0.837
 4874TIP3    H214568   2.670   0.591   0.770
 4875TIP3   OH214569   7.858   5.166   1.079
 4875TIP3    H114570   7.908   5.227   1.025
 4875TIP3    H214571   7.787   5.137   1.023
 4876TIP3   OH214572   7.826   3.855   4.859
 4876TIP3    H114573   7.784   3.939   4.842
 4876TIP3    H214574   7.868   3.833   4.776
 4877TIP3   OH214575   1.098   2.583   5.072
 4877TIP3    H114576   1.134   2.501   5.106
 4877TIP3    H214577   1.094   2.641   5.148
 4878TIP3   OH214578   6.133   1.496   4.979
 4878TIP3    H114579   6.152   1.510   5.072
 4878TIP3    H214580   6.038   1.505   4.973
 4879TIP3   OH214581   0.302   6.630   4.706
 4879TIP3    H114582   0.269   6.671   4.786
 4879TIP3    H214583   0.338   6.702   4.654
 4880TIP3   OH214584   2.793   0.721   5.774
 4880TIP3    H114585   2.778   0.671   5.854
 4880TIP3    H214586   2.766   0.810   5.797
 4881TIP3   OH214587   7.810   7.840   2.313
 4881TIP3    H114588   7.828   7.859   2.405
 4881TIP3    H214589   7.773   7.752   2.313
 4882TIP3   OH214590   2.273   3.206   0.284
 4882TIP3    H114591   2.305   3.120   0.313
 4882TIP3    H214592   2.335   3.269   0.320
 4883TIP3   OH214593   4.205   2.777   4.749
 4883TIP3    H114594   4.166   2.743   4.669
 4883TIP3    H214595   4.297   2.753   4.743
 4884TIP3   OH214596   2.084   1.375   3.065
 4884TIP3    H114597   2.120   1.296   3.105
 4884TIP3    H214598   2.104   1.366   2.972
 4885TIP3   OH214599   7.157   3.497   0.128
 4885TIP3    H114600   7.229   3.486   0.066
 4885TIP3    H214601   7.177   3.579   0.174
 4886TIP3   OH214602   6.421   0.938   0.063
 4886TIP3    H114603   6.469   0.861   0.096
 4886TIP3    H214604   6.451   1.010   0.119
 4887TIP3   OH214605   7.417   3.958   2.037
 4887TIP3    H114606   7.418   3.893   1.966
 4887TIP3    H214607   7.510   3.975   2.054
 4888TIP3   OH214608   3.792   5.246   4.489
 4888TIP3    H114609   3.880   5.236   4.452
 4888TIP3    H214610   3.775   5.340   4.483
 4889TIP3   OH214611   8.151   7.722   5.305
 4889TIP3    H114612   8.109   7.808   5.302
 4889TIP3    H214613   8.141   7.687   5.217
 4890TIP3   OH214614   6.004   6.827   4.617
 4890TIP3    H114615   5.915   6.861   4.619
 4890TIP3    H214616   6.055   6.888   4.671
 4891TIP3   OH214617   3.738   5.774   6.028
 4891TIP3    H114618   3.667   5.817   5.980
 4891TIP3    H214619   3.790   5.732   5.961
 4892TIP3   OH214620   7.584   1.421   1.691
 4892TIP3    H114621   7.660   1.378   1.728
 4892TIP3    H214622   7.525   1.435   1.765
 4893TIP3   OH214623   2.492   0.890   3.017
 4893TIP3    H114624   2.425   0.829   3.049
 4893TIP3    H214625   2.444   0.971   2.998
 4894TIP3   OH214626   6.757   0.490   0.826
 4894TIP3    H114627   6.766   0.585   0.839
 4894TIP3    H214628   6.821   0.469   0.757
 4895TIP3   OH214629   6.579   2.714   6.063
 4895TIP3    H114630   6.495   2.760   6.050
 4895TIP3    H214631   6.604   2.737   6.153
 4896TIP3   OH214632   3.660   7.448   3.396
 4896TIP3    H114633   3.651   7.525   3.452
 4896TIP3    H214634   3.571   7.432   3.364
 4897TIP3   OH214635   3.066   7.531   3.456
 4897TIP3    H114636   3.039   7.448   3.418
 4897TIP3    H214637   3.035   7.528   3.546
 4898TIP3   OH214638   2.265   7.391   1.738
 4898TIP3    H114639   2.340   7.450   1.735
 4898TIP3    H214640   2.190   7.447   1.758
 4899TIP3   OH214641   7.413   3.088   5.874
 4899TIP3    H114642   7.498   3.083   5.830
 4899TIP3    H214643   7.372   3.167   5.838
 4900TIP3   OH214644   1.292   0.889   3.900
 4900TIP3    H114645   1.226   0.917   3.963
 4900TIP3    H214646   1.353   0.836   3.951
 4901TIP3   OH214647   6.037   3.760   3.956
 4901TIP3    H114648   5.958   3.737   4.006
 4901TIP3    H214649   6.056   3.683   3.904
 4902TIP3   OH214650   7.777   3.950   5.503
 4902TIP3    H114651   7.832   3.926   5.429
 4902TIP3    H214652   7.706   3.886   5.502
 4903TIP3   OH214653   5.249   1.994   3.840
 4903TIP3    H114654   5.227   2.048   3.764
 4903TIP3    H214655   5.311   1.929   3.805
 4904TIP3   OH214656   3.900   1.409   6.260
 4904TIP3    H114657   3.845   1.440   6.188
 4904TIP3    H214658   3.953   1.339   6.223
 4905TIP3   OH214659   7.305   5.581   5.485
 4905TIP3    H114660   7.297   5.641   5.559
 4905TIP3    H214661   7.218   5.542   5.475
 4906TIP3   OH214662   1.500   7.201   3.929
 4906TIP3    H114663   1.537   7.238   4.009
 4906TIP3    H214664   1.468   7.115   3.955
 4907TIP3   OH214665   8.013   7.597   6.588
 4907TIP3    H114666   8.032   7.659   6.518
 4907TIP3    H214667   7.947   7.640   6.641
 4908TIP3   OH214668   2.984   0.204   3.339
 4908TIP3    H114669   2.893   0.192   3.367
 4908TIP3    H214670   3.004   0.126   3.287
 4909TIP3   OH214671   8.111   0.337   4.167
 4909TIP3    H114672   8.129   0.305   4.078
 4909TIP3    H214673   8.142   0.267   4.224
 4910TIP3   OH214674   2.517   3.541   1.359
 4910TIP3    H114675   2.456   3.487   1.410
 4910TIP3    H214676   2.568   3.588   1.425
 4911TIP3   OH214677   0.414   0.108   0.159
 4911TIP3    H114678   0.354   0.183   0.156
 4911TIP3    H214679   0.484   0.131   0.098
 4912TIP3   OH214680   1.256   7.722   5.564
 4912TIP3    H114681   1.351   7.734   5.570
 4912TIP3    H214682   1.219   7.808   5.583
 4913TIP3   OH214683   3.417   4.235   0.681
 4913TIP3    H114684   3.362   4.302   0.721
 4913TIP3    H214685   3.369   4.154   0.694
 4914TIP3   OH214686   4.643   6.047   0.942
 4914TIP3    H114687   4.713   5.986   0.920
 4914TIP3    H214688   4.590   6.053   0.862
 4915TIP3   OH214689   6.236   3.683   5.622
 4915TIP3    H114690   6.233   3.675   5.527
 4915TIP3    H214691   6.161   3.633   5.653
 4916TIP3   OH214692   4.749   4.094   3.072
 4916TIP3    H114693   4.737   4.184   3.104
 4916TIP3    H214694   4.783   4.046   3.147
 4917TIP3   OH214695   0.910   4.009   4.824
 4917TIP3    H114696   0.940   3.989   4.913
 4917TIP3    H214697   0.990   4.029   4.775
 4918TIP3   OH214698   4.419   6.032   0.728
 4918TIP3    H114699   4.380   5.952   0.765
 4918TIP3    H214700   4.344   6.081   0.694
 4919TIP3   OH214701   3.413   4.469   0.100
 4919TIP3    H114702   3.358   4.488   0.024
 4919TIP3    H214703   3.384   4.383   0.130
 4920TIP3   OH214704   0.294   6.893   3.692
 4920TIP3    H114705   0.327   6.893   3.602
 4920TIP3    H214706   0.320   6.807   3.727
 4921TIP3   OH214707   4.394   3.649   1.645
 4921TIP3    H114708   4.391   3.603   1.561
 4921TIP3    H214709   4.360   3.736   1.626
 4922TIP3   OH214710   6.121   4.422   6.087
 4922TIP3    H114711   6.072   4.340   6.095
 4922TIP3    H214712   6.212   4.394   6.079
 4923TIP3   OH214713   5.018   1.557   6.584
 4923TIP3    H114714   5.072   1.624   6.543
 4923TIP3    H214715   4.987   1.597   6.665
 4924TIP3   OH214716   3.732   6.317   2.855
 4924TIP3    H114717   3.731   6.239   2.800
 4924TIP3    H214718   3.640   6.338   2.869
 4925TIP3   OH214719   5.440   4.423   3.958
 4925TIP3    H114720   5.461   4.510   3.994
 4925TIP3    H214721   5.346   4.414   3.970
 4926TIP3   OH214722   2.071   4.258   0.127
 4926TIP3    H114723   2.088   4.352   0.137
 4926TIP3    H214724   2.058   4.246   0.033
 4927TIP3   OH214725   7.910   3.900   5.287
 4927TIP3    H114726   7.948   3.813   5.297
 4927TIP3    H214727   7.979   3.951   5.242
 4928TIP3   OH214728   6.263   0.051   1.238
 4928TIP3    H114729   6.241  -0.028   1.188
 4928TIP3    H214730   6.318   0.103   1.179
 4929TIP3   OH214731   4.809   2.609   5.256
 4929TIP3    H114732   4.736   2.561   5.295
 4929TIP3    H214733   4.820   2.568   5.170
 4930TIP3   OH214734   3.943   5.080   4.945
 4930TIP3    H114735   3.992   5.160   4.962
 4930TIP3    H214736   3.971   5.019   5.013
 4931TIP3   OH214737   6.201   7.531   0.103
 4931TIP3    H114738   6.116   7.552   0.063
 4931TIP3    H214739   6.241   7.617   0.118
 4932TIP3   OH214740   2.444   7.330   3.417
 4932TIP3    H114741   2.368   7.285   3.380
 4932TIP3    H214742   2.439   7.312   3.511
 4933TIP3   OH214743   3.509   5.818   4.552
 4933TIP3    H114744   3.438   5.847   4.496
 4933TIP3    H214745   3.576   5.886   4.543
 4934TIP3   OH214746   5.446   7.146   0.010
 4934TIP3    H114747   5.373   7.199   0.041
 4934TIP3    H214748   5.524   7.193   0.038
 4935TIP3   OH214749   4.756   7.462   6.660
 4935TIP3    H114750   4.804   7.445   6.579
 4935TIP3    H214751   4.770   7.384   6.713
 4936TIP3   OH214752   1.377   3.735   3.054
 4936TIP3    H114753   1.317   3.755   2.982
 4936TIP3    H214754   1.419   3.652   3.028
 4937TIP3   OH214755   7.335   6.680   5.159
 4937TIP3    H114756   7.300   6.643   5.079
 4937TIP3    H214757   7.419   6.718   5.134
 4938TIP3   OH214758   6.393   1.065   6.334
 4938TIP3    H114759   6.478   1.097   6.302
 4938TIP3    H214760   6.398   0.970   6.325
 4939TIP3   OH214761   2.833   3.528   5.819
 4939TIP3    H114762   2.922   3.556   5.800
 4939TIP3    H214763   2.800   3.492   5.737
 4940TIP3   OH214764   7.547   2.949   5.421
 4940TIP3    H114765   7.538   2.875   5.481
 4940TIP3    H214766   7.469   3.001   5.435
 4941TIP3   OH214767   4.452   4.168   4.825
 4941TIP3    H114768   4.444   4.103   4.894
 4941TIP3    H214769   4.545   4.188   4.820
 4942TIP3   OH214770   0.397   6.682   1.726
 4942TIP3    H114771   0.411   6.768   1.687
 4942TIP3    H214772   0.335   6.638   1.667
 4943TIP3   OH214773   0.284   7.351   3.487
 4943TIP3    H114774   0.299   7.345   3.581
 4943TIP3    H214775   0.357   7.405   3.455
 4944TIP3   OH214776   0.340   6.520   0.644
 4944TIP3    H114777   0.392   6.487   0.571
 4944TIP3    H214778   0.402   6.530   0.716
 4945TIP3   OH214779   4.548   0.288   1.037
 4945TIP3    H114780   4.568   0.346   1.111
 4945TIP3    H214781   4.582   0.334   0.960
 4946TIP3   OH214782   7.994   2.223   5.719
 4946TIP3    H114783   7.919   2.282   5.725
 4946TIP3    H214784   7.991   2.172   5.800
 4947TIP3   OH214785   2.129   6.653   0.255
 4947TIP3    H114786   2.100   6.740   0.226
 4947TIP3    H214787   2.116   6.654   0.350
 4948TIP3   OH214788   4.061   5.192   1.809
 4948TIP3    H114789   4.044   5.286   1.813
 4948TIP3    H214790   3.976   5.152   1.789
 4949TIP3   OH214791   0.620   5.052   3.188
 4949TIP3    H114792   0.641   4.958   3.186
 4949TIP3    H214793   0.567   5.063   3.266
 4950TIP3   OH214794   3.778   0.554   3.459
 4950TIP3    H114795   3.839   0.601   3.402
 4950TIP3    H214796   3.702   0.611   3.464
 4951TIP3   OH214797   2.146   7.753   1.099
 4951TIP3    H114798   2.144   7.751   1.003
 4951TIP3    H214799   2.164   7.663   1.125
 4952TIP3   OH214800   4.541   4.571   0.145
 4952TIP3    H114801   4.469   4.586   0.206
 4952TIP3    H214802   4.500   4.554   0.061
 4953TIP3   OH214803   3.626   7.241   6.119
 4953TIP3    H114804   3.633   7.152   6.084
 4953TIP3    H214805   3.703   7.251   6.174
 4954TIP3   OH214806   6.219   0.796   3.872
 4954TIP3    H114807   6.184   0.865   3.816
 4954TIP3    H214808   6.186   0.715   3.834
 4955TIP3   OH214809   2.592   1.663   2.310
 4955TIP3    H114810   2.600   1.568   2.321
 4955TIP3    H214811   2.556   1.693   2.393
 4956TIP3   OH214812   3.866   7.121   5.894
 4956TIP3    H114813   3.803   7.067   5.941
 4956TIP3    H214814   3.928   7.059   5.855
 4957TIP3   OH214815   2.242   4.762   6.258
 4957TIP3    H114816   2.327   4.720   6.269
 4957TIP3    H214817   2.261   4.843   6.211
 4958TIP3   OH214818   4.615   2.657   1.609
 4958TIP3    H114819   4.572   2.571   1.608
 4958TIP3    H214820   4.543   2.719   1.597
 4959TIP3   OH214821   4.532   5.120   0.298
 4959TIP3    H114822   4.450   5.090   0.336
 4959TIP3    H214823   4.576   5.041   0.268
 4960TIP3   OH214824   1.319   0.893   1.196
 4960TIP3    H114825   1.245   0.832   1.190
 4960TIP3    H214826   1.280   0.979   1.181
 4961TIP3   OH214827   5.895   7.204   5.034
 4961TIP3    H114828   5.801   7.212   5.018
 4961TIP3    H214829   5.935   7.267   4.974
 4962TIP3   OH214830   4.057   5.594   6.234
 4962TIP3    H114831   4.060   5.661   6.302
 4962TIP3    H214832   4.087   5.514   6.278
 4963TIP3   OH214833   6.373   6.437   2.023
 4963TIP3    H114834   6.329   6.356   1.999
 4963TIP3    H214835   6.381   6.433   2.118
 4964TIP3   OH214836   2.969   6.272   0.633
 4964TIP3    H114837   3.006   6.235   0.713
 4964TIP3    H214838   3.000   6.214   0.563
 4965TIP3   OH214839   6.191   3.939   1.652
 4965TIP3    H114840   6.171   3.926   1.560
 4965TIP3    H214841   6.259   3.875   1.672
 4966TIP3   OH214842   2.959   7.788   3.647
 4966TIP3    H114843   2.977   7.744   3.730
 4966TIP3    H214844   2.923   7.873   3.673
 4967TIP3   OH214845   5.114   1.183   3.301
 4967TIP3    H114846   5.200   1.217   3.276
 4967TIP3    H214847   5.071   1.164   3.217
 4968TIP3   OH214848   2.973   3.219   0.533
 4968TIP3    H114849   2.935   3.199   0.448
 4968TIP3    H214850   2.950   3.143   0.588
 4969TIP3   OH214851   7.170   0.752   4.342
 4969TIP3    H114852   7.212   0.750   4.429
 4969TIP3    H214853   7.194   0.668   4.303
 4970TIP3   OH214854   3.481   5.053   5.596
 4970TIP3    H114855   3.412   5.075   5.658
 4970TIP3    H214856   3.524   5.137   5.578
 4971TIP3   OH214857   7.005   6.924   6.766
 4971TIP3    H114858   6.936   6.974   6.809
 4971TIP3    H214859   6.989   6.936   6.673
 4972TIP3   OH214860   4.821   6.053   1.544
 4972TIP3    H114861   4.837   6.045   1.450
 4972TIP3    H214862   4.868   5.980   1.583
 4973TIP3   OH214863   0.481   6.454   0.408
 4973TIP3    H114864   0.452   6.510   0.336
 4973TIP3    H214865   0.538   6.389   0.366
 4974TIP3   OH214866   1.117   1.966   0.286
 4974TIP3    H114867   1.092   1.983   0.195
 4974TIP3    H214868   1.120   2.052   0.327
 4975TIP3   OH214869   2.265   5.461   3.808
 4975TIP3    H114870   2.175   5.434   3.792
 4975TIP3    H214871   2.266   5.491   3.899
 4976TIP3   OH214872   7.669   7.603   4.409
 4976TIP3    H114873   7.610   7.647   4.470
 4976TIP3    H214874   7.699   7.525   4.458
 4977TIP3   OH214875   3.605   0.462   4.935
 4977TIP3    H114876   3.585   0.379   4.978
 4977TIP3    H214877   3.567   0.528   4.993
 4978TIP3   OH214878   6.212   6.036   1.497
 4978TIP3    H114879   6.231   6.086   1.418
 4978TIP3    H214880   6.248   5.949   1.480
 4979TIP3   OH214881   4.770   2.131   6.720
 4979TIP3    H114882   4.719   2.088   6.651
 4979TIP3    H214883   4.788   2.218   6.686
 4980TIP3   OH214884   7.377   0.371   2.381
 4980TIP3    H114885   7.341   0.288   2.351
 4980TIP3    H214886   7.470   0.366   2.356
 4981TIP3   OH214887   1.897   6.154   6.534
 4981TIP3    H114888   1.820   6.165   6.591
 4981TIP3    H214889   1.966   6.203   6.578
 4982TIP3   OH214890   0.018   6.199   0.820
 4982TIP3    H114891   0.067   6.156   0.751
 4982TIP3    H214892   0.050   6.289   0.820
 4983TIP3   OH214893   3.647   7.217   0.268
 4983TIP3    H114894   3.557   7.188   0.275
 4983TIP3    H214895   3.697   7.153   0.318
 4984TIP3   OH214896   5.643   0.275   5.841
 4984TIP3    H114897   5.730   0.307   5.867
 4984TIP3    H214898   5.638   0.187   5.877
 4985TIP3   OH214899   8.078   4.007   5.893
 4985TIP3    H114900   7.999   4.060   5.906
 4985TIP3    H214901   8.112   3.992   5.981
 4986TIP3   OH214902   0.262   3.384   4.825
 4986TIP3    H114903   0.245   3.292   4.804
 4986TIP3    H214904   0.357   3.393   4.818
 4987TIP3   OH214905   1.808   1.482  -0.016
 4987TIP3    H114906   1.903   1.489  -0.029
 4987TIP3    H214907   1.796   1.493   0.079
 4988TIP3   OH214908   8.252   3.148   1.108
 4988TIP3    H114909   8.323   3.208   1.086
 4988TIP3    H214910   8.175   3.204   1.118
 4989TIP3   OH214911   1.474   7.171   1.123
 4989TIP3    H114912   1.394   7.127   1.093
 4989TIP3    H214913   1.545   7.124   1.080
 4990TIP3   OH214914   0.127   2.355   6.375
 4990TIP3    H114915   0.199   2.409   6.341
 4990TIP3    H214916   0.048   2.404   6.353
 4991TIP3   OH214917   2.954   1.781   5.671
 4991TIP3    H114918   2.926   1.715   5.734
 4991TIP3    H214919   2.972   1.731   5.591
 4992TIP3   OH214920   6.492   5.952   5.414
 4992TIP3    H114921   6.585   5.976   5.419
 4992TIP3    H214922   6.473   5.949   5.320
 4993TIP3   OH214923   4.862   0.148   4.610
 4993TIP3    H114924   4.790   0.163   4.548
 4993TIP3    H214925   4.826   0.087   4.675
 4994TIP3   OH214926   1.365   1.574   4.664
 4994TIP3    H114927   1.385   1.574   4.571
 4994TIP3    H214928   1.412   1.498   4.699
 4995TIP3   OH214929   0.175   1.528   6.020
 4995TIP3    H114930   0.172   1.522   6.116
 4995TIP3    H214931   0.131   1.610   5.999
 4996TIP3   OH214932   6.518   0.624   1.164
 4996TIP3    H114933   6.543   0.606   1.254
 4996TIP3    H214934   6.469   0.546   1.137
 4997TIP3   OH214935   2.151   1.846   1.983
 4997TIP3    H114936   2.080   1.789   1.953
 4997TIP3    H214937   2.107   1.929   2.003
 4998TIP3   OH214938   2.002   1.201   0.552
 4998TIP3    H114939   2.060   1.130   0.525
 4998TIP3    H214940   2.043   1.280   0.517
 4999TIP3   OH214941   6.973   1.508   4.756
 4999TIP3    H114942   6.992   1.575   4.822
 4999TIP3    H214943   7.059   1.482   4.723
 5000TIP3   OH214944   5.833   0.200   4.361
 5000TIP3    H114945   5.809   0.143   4.288
 5000TIP3    H214946   5.840   0.288   4.323
 5001TIP3   OH214947   7.731   5.588   4.510
 5001TIP3    H114948   7.667   5.641   4.462
 5001TIP3    H214949   7.745   5.511   4.455
 5002TIP3   OH214950   7.449   0.443   0.992
 5002TIP3    H114951   7.490   0.375   1.047
 5002TIP3    H214952   7.495   0.523   1.017
 5003TIP3   OH214953   8.211   0.574   0.012
 5003TIP3    H114954   8.250   0.647   0.058
 5003TIP3    H214955   8.277   0.505   0.015
 5004TIP3   OH214956   7.904   3.205   0.986
 5004TIP3    H114957   7.868   3.205   0.897
 5004TIP3    H214958   7.911   3.112   1.008
 5005TIP3   OH214959   1.683   1.207   1.138
 5005TIP3    H114960   1.664   1.122   1.178
 5005TIP3    H214961   1.608   1.224   1.081
 5006TIP3   OH214962   3.581   2.197   0.222
 5006TIP3    H114963   3.559   2.282   0.185
 5006TIP3    H214964   3.517   2.183   0.291
 5007TIP3   OH214965   0.316   5.078   4.829
 5007TIP3    H114966   0.253   5.013   4.800
 5007TIP3    H214967   0.278   5.114   4.909
 5008TIP3   OH214968   3.691   2.124   3.680
 5008TIP3    H114969   3.650   2.042   3.708
 5008TIP3    H214970   3.635   2.157   3.610
 5009TIP3   OH214971   2.048   2.745   3.825
 5009TIP3    H114972   2.051   2.671   3.764
 5009TIP3    H214973   1.958   2.775   3.822
 5010TIP3   OH214974   7.279   5.840   5.631
 5010TIP3    H114975   7.312   5.848   5.720
 5010TIP3    H214976   7.356   5.850   5.575
 5011TIP3   OH214977   5.265   2.798   4.028
 5011TIP3    H114978   5.205   2.832   3.961
 5011TIP3    H214979   5.306   2.876   4.065
 5012TIP3   OH214980   8.211   1.402   0.393
 5012TIP3    H114981   8.165   1.344   0.333
 5012TIP3    H214982   8.170   1.487   0.382
 5013TIP3   OH214983   4.461   2.973   1.894
 5013TIP3    H114984   4.538   3.005   1.940
 5013TIP3    H214985   4.405   3.051   1.884
 5014TIP3   OH214986   3.323   4.623   4.494
 5014TIP3    H114987   3.417   4.638   4.483
 5014TIP3    H214988   3.313   4.599   4.586
 5015TIP3   OH214989   6.874   2.689   0.039
 5015TIP3    H114990   6.849   2.768   0.087
 5015TIP3    H214991   6.845   2.617   0.095
 5016TIP3   OH214992   5.408   3.713   0.461
 5016TIP3    H114993   5.480   3.772   0.484
 5016TIP3    H214994   5.363   3.697   0.545
 5017TIP3   OH214995   6.052   7.120   1.616
 5017TIP3    H114996   6.098   7.038   1.636
 5017TIP3    H214997   5.961   7.103   1.641
 5018TIP3   OH214998   4.725   4.377   6.377
 5018TIP3    H114999   4.768   4.322   6.444
 5018TIP3    H215000   4.792   4.441   6.352
 5019TIP3   OH215001   6.926   3.339   3.279
 5019TIP3    H115002   6.926   3.317   3.185
 5019TIP3    H215003   6.865   3.277   3.318
 5020TIP3   OH215004   2.275   5.588   1.442
 5020TIP3    H115005   2.342   5.655   1.436
 5020TIP3    H215006   2.289   5.533   1.365
 5021TIP3   OH215007   5.560   4.142   2.314
 5021TIP3    H115008   5.566   4.095   2.397
 5021TIP3    H215009   5.504   4.217   2.333
 5022TIP3   OH215010   3.613   1.354   3.463
 5022TIP3    H115011   3.623   1.318   3.551
 5022TIP3    H215012   3.650   1.286   3.406
 5023TIP3   OH215013   0.639   6.736   2.406
 5023TIP3    H115014   0.622   6.645   2.381
 5023TIP3    H215015   0.679   6.730   2.493
 5024TIP3   OH215016   6.627   0.793   3.000
 5024TIP3    H115017   6.644   0.709   2.957
 5024TIP3    H215018   6.707   0.844   2.985
 5025TIP3   OH215019   1.802   2.243   0.892
 5025TIP3    H115020   1.896   2.239   0.911
 5025TIP3    H215021   1.761   2.196   0.965
 5026TIP3   OH215022   7.920   2.198   2.531
 5026TIP3    H115023   7.878   2.256   2.467
 5026TIP3    H215024   7.848   2.163   2.583
 5027TIP3   OH215025   2.552   4.742   5.900
 5027TIP3    H115026   2.476   4.699   5.939
 5027TIP3    H215027   2.603   4.671   5.862
 5028TIP3   OH215028   3.686   3.495   4.084
 5028TIP3    H115029   3.744   3.501   4.159
 5028TIP3    H215030   3.664   3.402   4.078
 5029TIP3   OH215031   3.011   4.035   1.879
 5029TIP3    H115032   2.983   4.125   1.860
 5029TIP3    H215033   2.996   4.025   1.973
 5030TIP3   OH215034   6.838   5.739   4.548
 5030TIP3    H115035   6.907   5.706   4.605
 5030TIP3    H215036   6.795   5.660   4.514
 5031TIP3   OH215037   7.192   1.394   3.054
 5031TIP3    H115038   7.182   1.323   2.990
 5031TIP3    H215039   7.112   1.445   3.046
 5032TIP3   OH215040   2.645   7.215   1.913
 5032TIP3    H115041   2.631   7.287   1.975
 5032TIP3    H215042   2.730   7.235   1.873
 5033TIP3   OH215043   1.805   4.344   0.359
 5033TIP3    H115044   1.806   4.251   0.384
 5033TIP3    H215045   1.822   4.343   0.265
 5034TIP3   OH215046   1.562   2.583   1.531
 5034TIP3    H115047   1.557   2.656   1.594
 5034TIP3    H215048   1.533   2.507   1.581
 5035TIP3   OH215049   8.072   5.954   2.864
 5035TIP3    H115050   8.069   5.984   2.955
 5035TIP3    H215051   7.985   5.974   2.829
 5036TIP3   OH215052   3.836   6.402   0.652
 5036TIP3    H115053   3.813   6.312   0.627
 5036TIP3    H215054   3.760   6.433   0.702
 5037TIP3   OH215055   3.310   2.590   5.324
 5037TIP3    H115056   3.215   2.596   5.323
 5037TIP3    H215057   3.339   2.669   5.370
 5038TIP3   OH215058   5.099   1.594   1.105
 5038TIP3    H115059   5.123   1.543   1.182
 5038TIP3    H215060   5.174   1.651   1.089
 5039TIP3   OH215061   2.967   6.894   5.872
 5039TIP3    H115062   2.983   6.817   5.928
 5039TIP3    H215063   2.887   6.933   5.909
 5040TIP3   OH215064   1.359   5.040   4.725
 5040TIP3    H115065   1.403   5.019   4.808
 5040TIP3    H215066   1.267   5.048   4.748
 5041TIP3   OH215067   0.244   1.429   3.539
 5041TIP3    H115068   0.294   1.368   3.485
 5041TIP3    H215069   0.310   1.483   3.582
 5042TIP3   OH215070   4.169   2.033   4.656
 5042TIP3    H115071   4.252   2.002   4.622
 5042TIP3    H215072   4.180   2.128   4.663
 5043TIP3   OH215073   5.719   7.474   2.277
 5043TIP3    H115074   5.787   7.469   2.344
 5043TIP3    H215075   5.667   7.395   2.288
 5044TIP3   OH215076   7.472   1.607   0.505
 5044TIP3    H115077   7.397   1.638   0.454
 5044TIP3    H215078   7.465   1.652   0.589
 5045TIP3   OH215079   6.720   1.422   4.006
 5045TIP3    H115080   6.793   1.365   3.984
 5045TIP3    H215081   6.661   1.367   4.057
 5046TIP3   OH215082   7.247   6.240   1.610
 5046TIP3    H115083   7.252   6.280   1.697
 5046TIP3    H215084   7.339   6.221   1.588
 5047TIP3   OH215085   6.411   2.789   6.595
 5047TIP3    H115086   6.413   2.724   6.524
 5047TIP3    H215087   6.436   2.871   6.554
 5048TIP3   OH215088   0.970   5.133   3.739
 5048TIP3    H115089   0.888   5.144   3.690
 5048TIP3    H215090   1.038   5.138   3.673
 5049TIP3   OH215091   5.148   1.582   2.131
 5049TIP3    H115092   5.215   1.546   2.189
 5049TIP3    H215093   5.192   1.651   2.082
 5050TIP3   OH215094   1.655   4.786   3.611
 5050TIP3    H115095   1.739   4.824   3.584
 5050TIP3    H215096   1.678   4.700   3.647
 5051TIP3   OH215097   7.471   5.795   0.810
 5051TIP3    H115098   7.505   5.860   0.871
 5051TIP3    H215099   7.419   5.845   0.747
 5052TIP3   OH215100   4.820   0.145   1.849
 5052TIP3    H115101   4.823   0.153   1.753
 5052TIP3    H215102   4.822   0.051   1.865
 5053TIP3   OH215103   3.007   5.476   6.498
 5053TIP3    H115104   3.090   5.435   6.476
 5053TIP3    H215105   2.943   5.431   6.443
 5054TIP3   OH215106   4.547   3.985   0.517
 5054TIP3    H115107   4.524   4.065   0.470
 5054TIP3    H215108   4.642   3.978   0.508
 5055TIP3   OH215109   7.614   7.336   2.206
 5055TIP3    H115110   7.689   7.282   2.184
 5055TIP3    H215111   7.649   7.405   2.263
 5056TIP3   OH215112   7.907   0.963   3.444
 5056TIP3    H115113   7.888   0.908   3.520
 5056TIP3    H215114   8.002   0.974   3.445
 5057TIP3   OH215115   3.351   0.402   5.127
 5057TIP3    H115116   3.315   0.343   5.061
 5057TIP3    H215117   3.362   0.347   5.205
 5058TIP3   OH215118   7.618   0.641   5.347
 5058TIP3    H115119   7.556   0.571   5.366
 5058TIP3    H215120   7.568   0.705   5.295
 5059TIP3   OH215121   5.453   1.227   6.360
 5059TIP3    H115122   5.490   1.150   6.317
 5059TIP3    H215123   5.407   1.274   6.290
 5060TIP3   OH215124   8.111   1.871   4.673
 5060TIP3    H115125   8.063   1.950   4.696
 5060TIP3    H215126   8.097   1.861   4.579
 5061TIP3   OH215127   5.058   4.856   4.983
 5061TIP3    H115128   5.067   4.894   5.070
 5061TIP3    H215129   5.132   4.892   4.934
 5062TIP3   OH215130   5.759   5.396   6.071
 5062TIP3    H115131   5.805   5.469   6.029
 5062TIP3    H215132   5.667   5.424   6.073
 5063TIP3   OH215133   6.046   7.313   1.386
 5063TIP3    H115134   6.009   7.387   1.435
 5063TIP3    H215135   6.060   7.246   1.452
 5064TIP3   OH215136   2.113   4.615   0.235
 5064TIP3    H115137   2.091   4.552   0.303
 5064TIP3    H215138   2.178   4.570   0.180
 5065TIP3   OH215139   1.330   5.904   5.506
 5065TIP3    H115140   1.260   5.945   5.557
 5065TIP3    H215141   1.298   5.815   5.490
 5066TIP3   OH215142   7.381   5.719   1.958
 5066TIP3    H115143   7.330   5.666   2.019
 5066TIP3    H215144   7.464   5.733   2.003
 5067TIP3   OH215145   1.003   2.616   4.564
 5067TIP3    H115146   1.044   2.539   4.524
 5067TIP3    H215147   1.043   2.623   4.650
 5068TIP3   OH215148   6.443   6.045   4.376
 5068TIP3    H115149   6.354   6.080   4.370
 5068TIP3    H215150   6.492   6.092   4.309
 5069TIP3   OH215151   1.272   3.382   1.074
 5069TIP3    H115152   1.245   3.291   1.074
 5069TIP3    H215153   1.233   3.419   1.154
 5070TIP3   OH215154   7.634   6.760   0.964
 5070TIP3    H115155   7.557   6.813   0.941
 5070TIP3    H215156   7.708   6.812   0.934
 5071TIP3   OH215157   1.822   1.980   5.831
 5071TIP3    H115158   1.885   1.986   5.759
 5071TIP3    H215159   1.827   2.064   5.875
 5072TIP3   OH215160   5.195   6.106   1.404
 5072TIP3    H115161   5.129   6.037   1.412
 5072TIP3    H215162   5.160   6.180   1.453
 5073TIP3   OH215163   1.922   4.068   1.519
 5073TIP3    H115164   2.011   4.063   1.554
 5073TIP3    H215165   1.868   4.094   1.593
 5074TIP3   OH215166   3.111   6.596   4.457
 5074TIP3    H115167   3.166   6.582   4.379
 5074TIP3    H215168   3.060   6.515   4.465
 5075TIP3   OH215169   8.124   7.548   5.550
 5075TIP3    H115170   8.091   7.596   5.474
 5075TIP3    H215171   8.180   7.480   5.513
 5076TIP3   OH215172   4.384   2.212   6.417
 5076TIP3    H115173   4.447   2.148   6.382
 5076TIP3    H215174   4.340   2.246   6.339
 5077TIP3   OH215175   0.558   7.146   1.525
 5077TIP3    H115176   0.547   7.114   1.435
 5077TIP3    H215177   0.625   7.214   1.518
 5078TIP3   OH215178   0.890   0.557   3.510
 5078TIP3    H115179   0.915   0.504   3.434
 5078TIP3    H215180   0.795   0.550   3.514
 5079TIP3   OH215181   2.178   2.274   1.306
 5079TIP3    H115182   2.142   2.192   1.273
 5079TIP3    H215183   2.217   2.316   1.229
 5080TIP3   OH215184   0.111   5.376   4.481
 5080TIP3    H115185   0.078   5.289   4.499
 5080TIP3    H215186   0.202   5.374   4.510
 5081TIP3   OH215187   3.975   3.701   0.268
 5081TIP3    H115188   4.036   3.763   0.228
 5081TIP3    H215189   4.019   3.670   0.347
 5082TIP3   OH215190   5.511   0.053   5.649
 5082TIP3    H115191   5.603   0.076   5.662
 5082TIP3    H215192   5.478   0.036   5.738
 5083TIP3   OH215193   6.183   6.174   5.441
 5083TIP3    H115194   6.188   6.180   5.345
 5083TIP3    H215195   6.091   6.160   5.460
 5084TIP3   OH215196   5.723   2.176   4.657
 5084TIP3    H115197   5.631   2.156   4.676
 5084TIP3    H215198   5.732   2.269   4.675
 5085TIP3   OH215199   0.869   4.308   1.130
 5085TIP3    H115200   0.825   4.346   1.054
 5085TIP3    H215201   0.954   4.279   1.097
 5086TIP3   OH215202   0.918   0.096   5.873
 5086TIP3    H115203   0.938   0.048   5.793
 5086TIP3    H215204   0.997   0.147   5.892
 5087TIP3   OH215205   0.809   5.195   5.314
 5087TIP3    H115206   0.810   5.205   5.219
 5087TIP3    H215207   0.862   5.117   5.331
 5088TIP3   OH215208   7.888   5.853   2.484
 5088TIP3    H115209   7.883   5.807   2.400
 5088TIP3    H215210   7.977   5.890   2.486
 5089TIP3   OH215211   7.595   0.266   2.291
 5089TIP3    H115212   7.622   0.322   2.218
 5089TIP3    H215213   7.668   0.204   2.302
 5090TIP3   OH215214   0.192   4.102   2.617
 5090TIP3    H115215   0.246   4.067   2.688
 5090TIP3    H215216   0.209   4.196   2.618
 5091TIP3   OH215217   4.385   1.153   1.726
 5091TIP3    H115218   4.479   1.147   1.738
 5091TIP3    H215219   4.349   1.085   1.784
 5092TIP3   OH215220   7.783   6.919   0.781
 5092TIP3    H115221   7.828   6.961   0.854
 5092TIP3    H215222   7.834   6.942   0.703
 5093TIP3   OH215223   2.513   4.043   1.241
 5093TIP3    H115224   2.598   4.086   1.233
 5093TIP3    H215225   2.532   3.950   1.229
 5094TIP3   OH215226   6.878   1.525   2.523
 5094TIP3    H115227   6.815   1.565   2.463
 5094TIP3    H215228   6.920   1.456   2.471
 5095TIP3   OH215229   4.166   2.239   0.526
 5095TIP3    H115230   4.134   2.168   0.470
 5095TIP3    H215231   4.109   2.236   0.603
 5096TIP3   OH215232   0.571   6.434   2.343
 5096TIP3    H115233   0.507   6.415   2.412
 5096TIP3    H215234   0.553   6.370   2.275
 5097TIP3   OH215235   0.960   7.293   5.193
 5097TIP3    H115236   1.034   7.242   5.226
 5097TIP3    H215237   0.904   7.306   5.270
 5098TIP3   OH215238   3.761   6.382   4.885
 5098TIP3    H115239   3.800   6.447   4.944
 5098TIP3    H215240   3.677   6.362   4.925
 5099TIP3   OH215241   1.263   2.245   3.344
 5099TIP3    H115242   1.312   2.288   3.414
 5099TIP3    H215243   1.195   2.307   3.319
 5100TIP3   OH215244   2.905   7.028   4.044
 5100TIP3    H115245   2.823   7.010   4.090
 5100TIP3    H215246   2.954   6.946   4.049
 5101TIP3   OH215247   2.143   6.494   1.433
 5101TIP3    H115248   2.201   6.428   1.396
 5101TIP3    H215249   2.192   6.577   1.425
 5102TIP3   OH215250   3.614   2.811   3.353
 5102TIP3    H115251   3.670   2.879   3.315
 5102TIP3    H215252   3.527   2.852   3.359
 5103TIP3   OH215253   6.665   3.070   4.862
 5103TIP3    H115254   6.699   3.112   4.783
 5103TIP3    H215255   6.581   3.032   4.835
 5104TIP3   OH215256   6.681   6.636   5.927
 5104TIP3    H115257   6.611   6.571   5.931
 5104TIP3    H215258   6.654   6.696   5.858
 5105TIP3   OH215259   3.433   3.354   0.125
 5105TIP3    H115260   3.456   3.435   0.080
 5105TIP3    H215261   3.446   3.373   0.218
 5106TIP3   OH215262   1.697   3.686   2.756
 5106TIP3    H115263   1.633   3.750   2.786
 5106TIP3    H215264   1.645   3.621   2.708
 5107TIP3   OH215265   2.713   5.599   6.707
 5107TIP3    H115266   2.659   5.540   6.760
 5107TIP3    H215267   2.802   5.567   6.719
 5108TIP3   OH215268   2.900   4.713   2.333
 5108TIP3    H115269   2.984   4.682   2.369
 5108TIP3    H215270   2.862   4.636   2.291
 5109TIP3   OH215271   3.088   4.156   2.873
 5109TIP3    H115272   3.140   4.196   2.803
 5109TIP3    H215273   3.126   4.191   2.953
 5110TIP3   OH215274   7.399   3.798   3.259
 5110TIP3    H115275   7.390   3.846   3.177
 5110TIP3    H215276   7.454   3.854   3.314
 5111TIP3   OH215277   3.451   5.560   1.699
 5111TIP3    H115278   3.528   5.523   1.743
 5111TIP3    H215279   3.377   5.517   1.741
 5112TIP3   OH215280   7.615   5.676   0.318
 5112TIP3    H115281   7.541   5.694   0.376
 5112TIP3    H215282   7.667   5.611   0.366
 5113TIP3   OH215283   5.482   1.873   4.537
 5113TIP3    H115284   5.514   1.949   4.487
 5113TIP3    H215285   5.445   1.815   4.471
 5114TIP3   OH215286   6.152   1.079   0.858
 5114TIP3    H115287   6.171   0.996   0.902
 5114TIP3    H215288   6.184   1.147   0.918
 5115TIP3   OH215289   6.821   0.928   3.944
 5115TIP3    H115290   6.787   0.998   4.000
 5115TIP3    H215291   6.768   0.851   3.966
 5116TIP3   OH215292   1.429   3.966   6.222
 5116TIP3    H115293   1.409   3.875   6.244
 5116TIP3    H215294   1.485   3.959   6.144
 5117TIP3   OH215295   8.145   4.095   2.243
 5117TIP3    H115296   8.199   4.095   2.322
 5117TIP3    H215297   8.077   4.160   2.260
 5118TIP3   OH215298   8.071   3.123   3.773
 5118TIP3    H115299   8.139   3.057   3.767
 5118TIP3    H215300   8.102   3.195   3.719
 5119TIP3   OH215301   0.845   5.097   6.530
 5119TIP3    H115302   0.899   5.108   6.452
 5119TIP3    H215303   0.794   5.178   6.535
 5120TIP3   OH215304   7.645   7.062   4.232
 5120TIP3    H115305   7.700   6.987   4.253
 5120TIP3    H215306   7.632   7.106   4.317
 5121TIP3   OH215307   5.564   7.179   2.713
 5121TIP3    H115308   5.611   7.105   2.675
 5121TIP3    H215309   5.512   7.215   2.641
 5122TIP3   OH215310   6.600   0.966   2.440
 5122TIP3    H115311   6.620   0.972   2.533
 5122TIP3    H215312   6.679   0.927   2.401
 5123TIP3   OH215313   3.737   7.251   3.863
 5123TIP3    H115314   3.685   7.297   3.930
 5123TIP3    H215315   3.709   7.290   3.780
 5124TIP3   OH215316   5.417   0.440   1.843
 5124TIP3    H115317   5.478   0.465   1.913
 5124TIP3    H215318   5.360   0.374   1.883
 5125TIP3   OH215319   7.926   7.545   0.566
 5125TIP3    H115320   8.014   7.582   0.570
 5125TIP3    H215321   7.874   7.614   0.525
 5126TIP3   OH215322   0.509   7.016   3.037
 5126TIP3    H115323   0.449   7.020   2.963
 5126TIP3    H215324   0.571   6.946   3.015
 5127TIP3   OH215325   0.453   1.939   0.325
 5127TIP3    H115326   0.387   1.869   0.328
 5127TIP3    H215327   0.536   1.893   0.318
 5128TIP3   OH215328   5.421   4.842   0.436
 5128TIP3    H115329   5.406   4.772   0.372
 5128TIP3    H215330   5.340   4.891   0.436
 5129TIP3   OH215331   6.043   0.915   4.168
 5129TIP3    H115332   6.106   0.964   4.220
 5129TIP3    H215333   5.964   0.912   4.222
 5130TIP3   OH215334   1.710   6.844   3.592
 5130TIP3    H115335   1.751   6.910   3.537
 5130TIP3    H215336   1.617   6.867   3.591
 5131TIP3   OH215337   4.520   1.199   2.659
 5131TIP3    H115338   4.596   1.236   2.615
 5131TIP3    H215339   4.550   1.115   2.693
 5132TIP3   OH215340   3.959   2.315   1.295
 5132TIP3    H115341   3.940   2.384   1.232
 5132TIP3    H215342   3.878   2.265   1.301
 5133TIP3   OH215343   3.832   3.282   1.647
 5133TIP3    H115344   3.901   3.245   1.700
 5133TIP3    H215345   3.824   3.373   1.678
 5134TIP3   OH215346   5.580   5.133   1.667
 5134TIP3    H115347   5.631   5.058   1.636
 5134TIP3    H215348   5.507   5.094   1.715
 5135TIP3   OH215349   5.208   1.640   4.572
 5135TIP3    H115350   5.141   1.639   4.504
 5135TIP3    H215351   5.194   1.723   4.618
 5136TIP3   OH215352   7.488   2.074   2.036
 5136TIP3    H115353   7.406   2.075   2.086
 5136TIP3    H215354   7.473   2.136   1.964
 5137TIP3   OH215355   0.551   6.971   3.303
 5137TIP3    H115356   0.513   6.969   3.215
 5137TIP3    H215357   0.481   6.936   3.360
 5138TIP3   OH215358   5.983   3.469   4.424
 5138TIP3    H115359   5.985   3.555   4.382
 5138TIP3    H215360   6.075   3.448   4.440
 5139TIP3   OH215361   8.287   2.166   4.835
 5139TIP3    H115362   8.357   2.210   4.786
 5139TIP3    H215363   8.318   2.076   4.846
 5140TIP3   OH215364   1.582   7.608   6.561
 5140TIP3    H115365   1.492   7.582   6.543
 5140TIP3    H215366   1.577   7.702   6.578
 5141TIP3   OH215367   7.934   0.888   4.732
 5141TIP3    H115368   8.000   0.858   4.795
 5141TIP3    H215369   7.850   0.871   4.775
 5142TIP3   OH215370   2.251   1.746   0.969
 5142TIP3    H115371   2.335   1.765   0.928
 5142TIP3    H215372   2.192   1.815   0.937
 5143TIP3   OH215373   2.023   3.967   4.434
 5143TIP3    H115374   1.993   4.055   4.412
 5143TIP3    H215375   1.949   3.925   4.478
 5144TIP3   OH215376   2.623   4.662   1.915
 5144TIP3    H115377   2.563   4.637   1.986
 5144TIP3    H215378   2.638   4.756   1.929
 5145TIP3   OH215379   7.522   6.707   2.326
 5145TIP3    H115380   7.592   6.712   2.261
 5145TIP3    H215381   7.442   6.696   2.274
 5146TIP3   OH215382   1.484   7.319   0.775
 5146TIP3    H115383   1.410   7.288   0.724
 5146TIP3    H215384   1.534   7.240   0.797
 5147TIP3   OH215385   3.603   2.878   1.858
 5147TIP3    H115386   3.649   2.914   1.782
 5147TIP3    H215387   3.545   2.949   1.886
 5148TIP3   OH215388   1.452   4.174   1.588
 5148TIP3    H115389   1.358   4.154   1.581
 5148TIP3    H215390   1.472   4.220   1.506
 5149TIP3   OH215391   4.819   6.045   1.263
 5149TIP3    H115392   4.779   6.129   1.240
 5149TIP3    H215393   4.879   6.026   1.191
 5150TIP3   OH215394   2.373   5.921   2.306
 5150TIP3    H115395   2.455   5.874   2.291
 5150TIP3    H215396   2.328   5.918   2.222
 5151TIP3   OH215397   2.055   4.503   4.828
 5151TIP3    H115398   2.087   4.505   4.918
 5151TIP3    H215399   1.981   4.442   4.830
 5152TIP3   OH215400   5.594   3.113   4.356
 5152TIP3    H115401   5.572   3.188   4.301
 5152TIP3    H215402   5.601   3.150   4.444
 5153TIP3   OH215403   1.364   6.900   1.086
 5153TIP3    H115404   1.408   6.815   1.089
 5153TIP3    H215405   1.323   6.903   0.999
 5154TIP3   OH215406   2.859   2.899   3.876
 5154TIP3    H115407   2.792   2.851   3.828
 5154TIP3    H215408   2.884   2.840   3.947
 5155TIP3   OH215409   3.638   1.419   3.932
 5155TIP3    H115410   3.548   1.422   3.966
 5155TIP3    H215411   3.693   1.438   4.008
 5156TIP3   OH215412   4.840   6.247   3.678
 5156TIP3    H115413   4.874   6.272   3.592
 5156TIP3    H215414   4.754   6.208   3.660
 5157TIP3   OH215415   3.473   0.148   5.772
 5157TIP3    H115416   3.522   0.199   5.836
 5157TIP3    H215417   3.382   0.150   5.804
 5158TIP3   OH215418   0.531   7.751   5.589
 5158TIP3    H115419   0.436   7.753   5.574
 5158TIP3    H215420   0.568   7.746   5.501
 5159TIP3   OH215421   1.471   4.119   1.997
 5159TIP3    H115422   1.376   4.127   2.005
 5159TIP3    H215423   1.484   4.049   1.933
 5160TIP3   OH215424   0.743   2.200   3.938
 5160TIP3    H115425   0.790   2.222   4.018
 5160TIP3    H215426   0.700   2.116   3.958
 5161TIP3   OH215427   0.133   6.912   1.063
 5161TIP3    H115428   0.222   6.930   1.094
 5161TIP3    H215429   0.125   6.817   1.063
 5162TIP3   OH215430   2.059   7.061   4.862
 5162TIP3    H115431   2.081   6.968   4.858
 5162TIP3    H215432   2.119   7.103   4.800
 5163TIP3   OH215433   3.031   4.252   1.578
 5163TIP3    H115434   2.995   4.336   1.548
 5163TIP3    H215435   3.025   4.255   1.673
 5164TIP3   OH215436   5.382   0.853   5.593
 5164TIP3    H115437   5.393   0.914   5.520
 5164TIP3    H215438   5.466   0.808   5.600
 5165TIP3   OH215439   5.347   6.513   5.712
 5165TIP3    H115440   5.350   6.598   5.757
 5165TIP3    H215441   5.432   6.474   5.730
 5166TIP3   OH215442   5.912   1.701   5.075
 5166TIP3    H115443   5.822   1.694   5.045
 5166TIP3    H215444   5.920   1.634   5.144
 5167TIP3   OH215445   0.024   5.008   1.504
 5167TIP3    H115446   0.091   5.046   1.561
 5167TIP3    H215447   0.026   5.063   1.425
 5168TIP3   OH215448   0.612   4.091   6.412
 5168TIP3    H115449   0.627   4.046   6.329
 5168TIP3    H215450   0.619   4.184   6.391
 5169TIP3   OH215451   1.854   4.310   4.855
 5169TIP3    H115452   1.763   4.333   4.874
 5169TIP3    H215453   1.864   4.221   4.888
 5170TIP3   OH215454   3.571   1.006   5.285
 5170TIP3    H115455   3.592   1.100   5.285
 5170TIP3    H215456   3.604   0.975   5.200
 5171TIP3   OH215457   6.358   2.110   1.091
 5171TIP3    H115458   6.404   2.026   1.089
 5171TIP3    H215459   6.344   2.127   1.184
 5172TIP3   OH215460   5.105   6.079   2.620
 5172TIP3    H115461   5.014   6.109   2.625
 5172TIP3    H215462   5.154   6.155   2.589
 5173TIP3   OH215463   3.971   2.617   4.043
 5173TIP3    H115464   3.917   2.541   4.065
 5173TIP3    H215465   3.998   2.653   4.128
 5174TIP3   OH215466   2.568   5.476   6.183
 5174TIP3    H115467   2.588   5.487   6.276
 5174TIP3    H215468   2.536   5.562   6.155
 5175TIP3   OH215469   3.381   1.706   3.489
 5175TIP3    H115470   3.399   1.623   3.444
 5175TIP3    H215471   3.451   1.765   3.460
 5176TIP3   OH215472   3.412   2.258   0.829
 5176TIP3    H115473   3.487   2.318   0.821
 5176TIP3    H215474   3.451   2.173   0.851
 5177TIP3   OH215475   1.062   1.700   5.548
 5177TIP3    H115476   1.144   1.735   5.514
 5177TIP3    H215477   1.087   1.620   5.594
 5178TIP3   OH215478   0.352   3.569   6.452
 5178TIP3    H115479   0.267   3.550   6.492
 5178TIP3    H215480   0.391   3.483   6.437
 5179TIP3   OH215481   1.150   5.072   2.714
 5179TIP3    H115482   1.173   5.126   2.790
 5179TIP3    H215483   1.149   4.983   2.748
 5180TIP3   OH215484   0.706   5.783   4.704
 5180TIP3    H115485   0.646   5.739   4.765
 5180TIP3    H215486   0.652   5.848   4.660
 5181TIP3   OH215487   8.003   0.666   3.460
 5181TIP3    H115488   7.943   0.687   3.532
 5181TIP3    H215489   8.084   0.639   3.504
 5182TIP3   OH215490   4.825   6.985   0.664
 5182TIP3    H115491   4.789   7.034   0.738
 5182TIP3    H215492   4.911   6.955   0.695
 5183TIP3   OH215493   3.954   2.845   0.083
 5183TIP3    H115494   3.918   2.762   0.052
 5183TIP3    H215495   4.036   2.854   0.034
 5184TIP3   OH215496   5.249   5.007   4.855
 5184TIP3    H115497   5.326   4.987   4.801
 5184TIP3    H215498   5.245   5.103   4.855
 5185TIP3   OH215499   2.523   4.524   3.284
 5185TIP3    H115500   2.546   4.440   3.323
 5185TIP3    H215501   2.504   4.580   3.359
 5186TIP3   OH215502   4.351   4.261   1.742
 5186TIP3    H115503   4.354   4.357   1.738
 5186TIP3    H215504   4.401   4.239   1.820
 5187TIP3   OH215505   6.943   1.987   1.604
 5187TIP3    H115506   6.921   1.912   1.659
 5187TIP3    H215507   6.858   2.025   1.580
 5188TIP3   OH215508   6.634   6.865   6.559
 5188TIP3    H115509   6.615   6.783   6.604
 5188TIP3    H215510   6.560   6.879   6.500
 5189TIP3   OH215511   3.282   7.211   2.190
 5189TIP3    H115512   3.365   7.203   2.237
 5189TIP3    H215513   3.290   7.292   2.140
 5190TIP3   OH215514   2.605   6.163   6.734
 5190TIP3    H115515   2.521   6.186   6.693
 5190TIP3    H215516   2.625   6.076   6.700
 5191TIP3   OH215517   4.994   0.600   0.928
 5191TIP3    H115518   4.994   0.555   1.012
 5191TIP3    H215519   4.929   0.670   0.938
 5192TIP3   OH215520   1.975   0.571   2.298
 5192TIP3    H115521   1.918   0.548   2.225
 5192TIP3    H215522   2.058   0.527   2.277
 5193TIP3   OH215523   5.213   2.651   6.377
 5193TIP3    H115524   5.248   2.721   6.433
 5193TIP3    H215525   5.275   2.645   6.305
 5194TIP3   OH215526   5.476   5.883   1.088
 5194TIP3    H115527   5.519   5.968   1.102
 5194TIP3    H215528   5.389   5.905   1.055
 5195TIP3   OH215529   5.636   1.693   1.292
 5195TIP3    H115530   5.585   1.612   1.291
 5195TIP3    H215531   5.682   1.693   1.208
 5196TIP3   OH215532   2.841   3.504   3.449
 5196TIP3    H115533   2.753   3.529   3.422
 5196TIP3    H215534   2.889   3.586   3.460
 5197TIP3   OH215535   7.696   5.986   4.652
 5197TIP3    H115536   7.709   6.012   4.561
 5197TIP3    H215537   7.759   6.039   4.701
 5198TIP3   OH215538   8.081   1.176   5.670
 5198TIP3    H115539   7.990   1.151   5.654
 5198TIP3    H215540   8.108   1.123   5.745
 5199TIP3   OH215541   7.811   7.161   0.076
 5199TIP3    H115542   7.757   7.225   0.122
 5199TIP3    H215543   7.808   7.083   0.131
 5200TIP3   OH215544   0.465   5.820   1.611
 5200TIP3    H115545   0.522   5.830   1.535
 5200TIP3    H215546   0.517   5.770   1.675
 5201TIP3   OH215547   0.670   5.995   5.585
 5201TIP3    H115548   0.576   6.002   5.574
 5201TIP3    H215549   0.697   6.078   5.625
 5202TIP3   OH215550   0.263   1.042   1.923
 5202TIP3    H115551   0.172   1.049   1.897
 5202TIP3    H215552   0.296   0.964   1.877
 5203TIP3   OH215553   0.753   2.088   4.221
 5203TIP3    H115554   0.832   2.071   4.273
 5203TIP3    H215555   0.683   2.045   4.270
 5204TIP3   OH215556   3.795   0.671   3.122
 5204TIP3    H115557   3.715   0.667   3.175
 5204TIP3    H215558   3.783   0.604   3.055
 5205TIP3   OH215559   6.678   1.862   4.119
 5205TIP3    H115560   6.764   1.865   4.162
 5205TIP3    H215561   6.628   1.799   4.170
 5206TIP3   OH215562   7.418   4.009   2.357
 5206TIP3    H115563   7.371   4.091   2.342
 5206TIP3    H215564   7.351   3.941   2.348
 5207TIP3   OH215565   2.244   4.697   5.804
 5207TIP3    H115566   2.291   4.676   5.723
 5207TIP3    H215567   2.277   4.633   5.868
 5208TIP3   OH215568   6.343   4.672   0.887
 5208TIP3    H115569   6.261   4.639   0.923
 5208TIP3    H215570   6.364   4.611   0.816
 5209TIP3   OH215571   3.887   7.730   0.210
 5209TIP3    H115572   3.983   7.727   0.212
 5209TIP3    H215573   3.859   7.648   0.251
 5210TIP3   OH215574   3.776   6.650   5.950
 5210TIP3    H115575   3.832   6.725   5.931
 5210TIP3    H215576   3.722   6.640   5.871
 5211TIP3   OH215577   6.587   6.284   2.483
 5211TIP3    H115578   6.543   6.368   2.492
 5211TIP3    H215579   6.606   6.256   2.572
 5212TIP3   OH215580   6.902   6.217   4.075
 5212TIP3    H115581   6.871   6.183   3.991
 5212TIP3    H215582   6.930   6.307   4.055
 5213TIP3   OH215583   3.112   3.024   0.194
 5213TIP3    H115584   3.134   3.094   0.133
 5213TIP3    H215585   3.024   3.046   0.225
 5214TIP3   OH215586   6.561   0.636   4.510
 5214TIP3    H115587   6.533   0.545   4.517
 5214TIP3    H215588   6.603   0.655   4.593
 5215TIP3   OH215589   2.600   5.938   1.315
 5215TIP3    H115590   2.593   5.917   1.408
 5215TIP3    H215591   2.686   5.905   1.289
 5216TIP3   OH215592   5.125   1.179   5.398
 5216TIP3    H115593   5.076   1.259   5.381
 5216TIP3    H215594   5.215   1.201   5.374
 5217TIP3   OH215595   4.325   5.292   6.405
 5217TIP3    H115596   4.250   5.232   6.400
 5217TIP3    H215597   4.377   5.271   6.327
 5218TIP3   OH215598   0.216   3.150   4.326
 5218TIP3    H115599   0.177   3.120   4.244
 5218TIP3    H215600   0.276   3.080   4.351
 5219TIP3   OH215601   8.178   0.245   1.475
 5219TIP3    H115602   8.201   0.297   1.398
 5219TIP3    H215603   8.109   0.186   1.444
 5220TIP3   OH215604   5.289   1.793   0.150
 5220TIP3    H115605   5.231   1.819   0.078
 5220TIP3    H215606   5.229   1.773   0.222
 5221TIP3   OH215607   0.304   3.905   6.720
 5221TIP3    H115608   0.261   3.819   6.720
 5221TIP3    H215609   0.398   3.885   6.724
 5222TIP3   OH215610   7.050   1.855   0.736
 5222TIP3    H115611   6.970   1.908   0.736
 5222TIP3    H215612   7.019   1.765   0.723
 5223TIP3   OH215613   2.438   0.728   5.173
 5223TIP3    H115614   2.410   0.819   5.178
 5223TIP3    H215615   2.382   0.690   5.105
 5224TIP3   OH215616   2.992   6.351   2.707
 5224TIP3    H115617   2.989   6.353   2.803
 5224TIP3    H215618   3.054   6.281   2.686
 5225TIP3   OH215619   2.517   0.915   2.367
 5225TIP3    H115620   2.495   0.826   2.393
 5225TIP3    H215621   2.540   0.908   2.275
 5226TIP3   OH215622   7.979   0.132   1.326
 5226TIP3    H115623   7.911   0.200   1.322
 5226TIP3    H215624   8.034   0.149   1.250
 5227TIP3   OH215625   4.405   7.222   4.679
 5227TIP3    H115626   4.390   7.294   4.618
 5227TIP3    H215627   4.401   7.143   4.625
 5228TIP3   OH215628   2.435   2.522   2.433
 5228TIP3    H115629   2.498   2.451   2.449
 5228TIP3    H215630   2.470   2.568   2.357
 5229TIP3   OH215631   6.979   1.411   3.341
 5229TIP3    H115632   7.022   1.448   3.419
 5229TIP3    H215633   6.934   1.486   3.302
 5230TIP3   OH215634   6.396   3.275   6.423
 5230TIP3    H115635   6.371   3.191   6.460
 5230TIP3    H215636   6.411   3.258   6.330
 5231TIP3   OH215637   4.115   7.794   2.489
 5231TIP3    H115638   4.028   7.824   2.516
 5231TIP3    H215639   4.125   7.708   2.531
 5232TIP3   OH215640   0.452   5.772   5.152
 5232TIP3    H115641   0.360   5.744   5.155
 5232TIP3    H215642   0.461   5.813   5.066
 5233TIP3   OH215643   2.373   3.663   1.796
 5233TIP3    H115644   2.426   3.639   1.872
 5233TIP3    H215645   2.307   3.594   1.790
 5234TIP3   OH215646   3.608   3.559   4.545
 5234TIP3    H115647   3.624   3.633   4.488
 5234TIP3    H215648   3.695   3.534   4.577
 5235TIP3   OH215649   1.839   1.134   4.072
 5235TIP3    H115650   1.905   1.066   4.080
 5235TIP3    H215651   1.766   1.091   4.027
 5236TIP3   OH215652   6.686   4.804   0.478
 5236TIP3    H115653   6.682   4.843   0.565
 5236TIP3    H215654   6.637   4.864   0.422
 5237TIP3   OH215655   1.531   2.235   5.734
 5237TIP3    H115656   1.476   2.159   5.717
 5237TIP3    H215657   1.566   2.220   5.822
 5238TIP3   OH215658   2.946   2.260   5.373
 5238TIP3    H115659   2.928   2.171   5.403
 5238TIP3    H215660   3.027   2.285   5.417
 5239TIP3   OH215661   3.007   3.305   5.504
 5239TIP3    H115662   3.018   3.277   5.595
 5239TIP3    H215663   3.045   3.233   5.453
 5240TIP3   OH215664   4.956   5.145   1.477
 5240TIP3    H115665   4.939   5.066   1.529
 5240TIP3    H215666   5.048   5.165   1.492
 5241TIP3   OH215667   6.003   6.133   2.575
 5241TIP3    H115668   6.096   6.133   2.552
 5241TIP3    H215669   6.003   6.144   2.670
 5242TIP3   OH215670   3.343   5.995   0.534
 5242TIP3    H115671   3.391   5.914   0.515
 5242TIP3    H215672   3.403   6.065   0.510
 5243TIP3   OH215673   0.825   6.790   0.961
 5243TIP3    H115674   0.744   6.780   1.011
 5243TIP3    H215675   0.893   6.755   1.019
 5244TIP3   OH215676   1.465   5.388   0.679
 5244TIP3    H115677   1.545   5.339   0.659
 5244TIP3    H215678   1.481   5.426   0.765
 5245TIP3   OH215679  -0.014   1.792   2.543
 5245TIP3    H115680  -0.010   1.770   2.450
 5245TIP3    H215681  -0.005   1.708   2.588
 5246TIP3   OH215682   2.332   4.213   2.827
 5246TIP3    H115683   2.373   4.127   2.835
 5246TIP3    H215684   2.374   4.267   2.895
 5247TIP3   OH215685   3.826   1.534   1.456
 5247TIP3    H115686   3.904   1.529   1.511
 5247TIP3    H215687   3.826   1.452   1.407
 5248TIP3   OH215688   0.603   0.792   2.522
 5248TIP3    H115689   0.687   0.817   2.483
 5248TIP3    H215690   0.573   0.870   2.567
 5249TIP3   OH215691   2.511   0.477   5.577
 5249TIP3    H115692   2.439   0.427   5.539
 5249TIP3    H215693   2.482   0.498   5.666
 5250TIP3   OH215694   6.489   5.464   5.330
 5250TIP3    H115695   6.464   5.376   5.302
 5250TIP3    H215696   6.584   5.459   5.343
 5251TIP3   OH215697   5.419   3.008   6.216
 5251TIP3    H115698   5.492   3.006   6.279
 5251TIP3    H215699   5.408   3.101   6.195
 5252TIP3   OH215700   5.830   6.103   3.604
 5252TIP3    H115701   5.782   6.184   3.618
 5252TIP3    H215702   5.810   6.050   3.681
 5253TIP3   OH215703   0.450   2.314   2.427
 5253TIP3    H115704   0.529   2.260   2.419
 5253TIP3    H215705   0.379   2.256   2.399
 5254TIP3   OH215706   4.417   0.486   2.675
 5254TIP3    H115707   4.366   0.405   2.672
 5254TIP3    H215708   4.386   0.532   2.753
 5255TIP3   OH215709   5.051   3.205   1.234
 5255TIP3    H115710   5.131   3.154   1.245
 5255TIP3    H215711   4.988   3.164   1.293
 5256TIP3   OH215712   2.709   4.063   2.526
 5256TIP3    H115713   2.723   4.084   2.433
 5256TIP3    H215714   2.779   4.110   2.572
 5257TIP3   OH215715   3.963   4.121   5.126
 5257TIP3    H115716   4.056   4.123   5.104
 5257TIP3    H215717   3.961   4.140   5.220
 5258TIP3   OH215718   6.487   5.884   1.034
 5258TIP3    H115719   6.505   5.824   0.961
 5258TIP3    H215720   6.475   5.827   1.110
 5259TIP3   OH215721   8.024   2.089   1.850
 5259TIP3    H115722   8.042   2.040   1.770
 5259TIP3    H215723   8.110   2.117   1.881
 5260TIP3   OH215724   5.809   3.740   6.237
 5260TIP3    H115725   5.726   3.784   6.222
 5260TIP3    H215726   5.834   3.704   6.152
 5261TIP3   OH215727   4.367   7.648   0.414
 5261TIP3    H115728   4.346   7.554   0.416
 5261TIP3    H215729   4.453   7.652   0.372
 5262TIP3   OH215730   2.698   6.815   4.878
 5262TIP3    H115731   2.733   6.880   4.818
 5262TIP3    H215732   2.665   6.745   4.822
 5263TIP3   OH215733   1.229   5.891   0.848
 5263TIP3    H115734   1.201   5.858   0.933
 5263TIP3    H215735   1.164   5.957   0.824
 5264TIP3   OH215736   3.498   0.679   3.827
 5264TIP3    H115737   3.432   0.746   3.843
 5264TIP3    H215738   3.545   0.670   3.910
 5265TIP3   OH215739   0.824   4.134   1.957
 5265TIP3    H115740   0.748   4.151   1.902
 5265TIP3    H215741   0.792   4.076   2.025
 5266TIP3   OH215742   3.783   5.212   2.093
 5266TIP3    H115743   3.787   5.306   2.108
 5266TIP3    H215744   3.718   5.202   2.023
 5267TIP3   OH215745   3.853   5.358   3.333
 5267TIP3    H115746   3.882   5.287   3.390
 5267TIP3    H215747   3.875   5.438   3.381
 5268TIP3   OH215748   7.239   4.352   4.942
 5268TIP3    H115749   7.198   4.269   4.966
 5268TIP3    H215750   7.173   4.397   4.890
 5269TIP3   OH215751   1.626   0.795   3.085
 5269TIP3    H115752   1.607   0.825   2.997
 5269TIP3    H215753   1.544   0.755   3.115
 5270TIP3   OH215754   1.925   5.198   5.014
 5270TIP3    H115755   1.959   5.282   4.984
 5270TIP3    H215756   1.833   5.199   4.988
 5271TIP3   OH215757   0.445   2.510   4.268
 5271TIP3    H115758   0.533   2.544   4.251
 5271TIP3    H215759   0.460   2.418   4.293
 5272TIP3   OH215760   7.201   4.464   2.425
 5272TIP3    H115761   7.197   4.528   2.354
 5272TIP3    H215762   7.269   4.498   2.483
 5273TIP3   OH215763   3.899   3.249   6.158
 5273TIP3    H115764   3.945   3.326   6.191
 5273TIP3    H215765   3.927   3.178   6.215
 5274TIP3   OH215766   7.359   3.951   3.013
 5274TIP3    H115767   7.273   3.952   3.056
 5274TIP3    H215768   7.387   4.043   3.014
 5275TIP3   OH215769   3.457   2.102   1.367
 5275TIP3    H115770   3.525   2.125   1.303
 5275TIP3    H215771   3.388   2.166   1.353
 5276TIP3   OH215772   3.117   6.194   0.837
 5276TIP3    H115773   3.136   6.121   0.896
 5276TIP3    H215774   3.198   6.246   0.836
 5277TIP3   OH215775   7.412   4.938   0.579
 5277TIP3    H115776   7.505   4.938   0.557
 5277TIP3    H215777   7.409   4.964   0.671
 5278TIP3   OH215778   5.168   0.191   1.720
 5278TIP3    H115779   5.149   0.268   1.666
 5278TIP3    H215780   5.123   0.119   1.675
 5279TIP3   OH215781   3.691   1.572   6.551
 5279TIP3    H115782   3.652   1.655   6.523
 5279TIP3    H215783   3.669   1.510   6.481
 5280TIP3   OH215784   5.561   6.797   3.062
 5280TIP3    H115785   5.520   6.782   2.977
 5280TIP3    H215786   5.492   6.777   3.126
 5281TIP3   OH215787   5.677   3.375   0.400
 5281TIP3    H115788   5.764   3.395   0.435
 5281TIP3    H215789   5.661   3.284   0.428
 5282TIP3   OH215790   0.655   6.488   1.144
 5282TIP3    H115791   0.664   6.579   1.116
 5282TIP3    H215792   0.744   6.456   1.151
 5283TIP3   OH215793   1.345   2.922   5.620
 5283TIP3    H115794   1.410   2.873   5.670
 5283TIP3    H215795   1.302   2.856   5.565
 5284TIP3   OH215796   0.942   3.757   3.946
 5284TIP3    H115797   0.927   3.686   3.884
 5284TIP3    H215798   0.858   3.803   3.950
 5285TIP3   OH215799   6.463   6.894   0.084
 5285TIP3    H115800   6.378   6.932   0.107
 5285TIP3    H215801   6.517   6.906   0.162
 5286TIP3   OH215802   5.949   6.828   6.056
 5286TIP3    H115803   5.952   6.783   5.972
 5286TIP3    H215804   6.030   6.802   6.100
 5287TIP3   OH215805   7.088   5.966   3.384
 5287TIP3    H115806   7.054   5.936   3.300
 5287TIP3    H215807   7.157   5.903   3.406
 5288TIP3   OH215808   0.291   4.293   3.014
 5288TIP3    H115809   0.276   4.321   2.924
 5288TIP3    H215810   0.343   4.362   3.053
 5289TIP3   OH215811   0.624   1.946   1.647
 5289TIP3    H115812   0.605   1.860   1.684
 5289TIP3    H215813   0.614   1.935   1.553
 5290TIP3   OH215814   3.808   2.599   2.390
 5290TIP3    H115815   3.896   2.586   2.424
 5290TIP3    H215816   3.774   2.674   2.438
 5291TIP3   OH215817   0.143   3.523   3.040
 5291TIP3    H115818   0.097   3.511   3.123
 5291TIP3    H215819   0.213   3.457   3.042
 5292TIP3   OH215820   3.883   2.222   6.152
 5292TIP3    H115821   3.893   2.304   6.201
 5292TIP3    H215822   3.888   2.249   6.060
 5293TIP3   OH215823   4.939   1.132   0.966
 5293TIP3    H115824   4.958   1.077   0.890
 5293TIP3    H215825   5.001   1.205   0.958
 5294TIP3   OH215826   4.681   1.492   5.880
 5294TIP3    H115827   4.689   1.527   5.969
 5294TIP3    H215828   4.646   1.565   5.829
 5295TIP3   OH215829   6.118   0.982   2.365
 5295TIP3    H115830   6.042   0.931   2.336
 5295TIP3    H215831   6.194   0.930   2.338
 5296TIP3   OH215832   1.264   5.663   5.424
 5296TIP3    H115833   1.242   5.581   5.468
 5296TIP3    H215834   1.184   5.685   5.375
 5297TIP3   OH215835   2.730   7.651   4.686
 5297TIP3    H115836   2.814   7.648   4.731
 5297TIP3    H215837   2.745   7.606   4.603
 5298TIP3   OH215838   3.686   2.602   1.485
 5298TIP3    H115839   3.715   2.653   1.409
 5298TIP3    H215840   3.766   2.586   1.534
 5299TIP3   OH215841   4.238   3.346   4.718
 5299TIP3    H115842   4.207   3.407   4.785
 5299TIP3    H215843   4.282   3.401   4.653
 5300TIP3   OH215844   5.762   5.713   4.438
 5300TIP3    H115845   5.766   5.784   4.374
 5300TIP3    H215846   5.672   5.715   4.471
 5301TIP3   OH215847   3.368   2.821   5.021
 5301TIP3    H115848   3.305   2.848   5.088
 5301TIP3    H215849   3.365   2.892   4.956
 5302TIP3   OH215850   6.718   7.775   1.767
 5302TIP3    H115851   6.653   7.811   1.827
 5302TIP3    H215852   6.667   7.731   1.699
 5303TIP3   OH215853   7.541   3.202   3.341
 5303TIP3    H115854   7.490   3.132   3.301
 5303TIP3    H215855   7.627   3.197   3.299
 5304TIP3   OH215856   1.768   5.554   1.097
 5304TIP3    H115857   1.829   5.597   1.037
 5304TIP3    H215858   1.823   5.491   1.145
 5305TIP3   OH215859   4.660   0.903   3.650
 5305TIP3    H115860   4.676   0.810   3.635
 5305TIP3    H215861   4.663   0.913   3.745
 5306TIP3   OH215862   4.965   4.948   1.652
 5306TIP3    H115863   5.059   4.931   1.658
 5306TIP3    H215864   4.923   4.872   1.692
 5307TIP3   OH215865   0.786   2.760   6.765
 5307TIP3    H115866   0.780   2.814   6.686
 5307TIP3    H215867   0.880   2.753   6.782
 5308TIP3   OH215868   2.767   2.412   4.718
 5308TIP3    H115869   2.673   2.424   4.726
 5308TIP3    H215870   2.778   2.343   4.653
 5309TIP3   OH215871   5.819   0.391   2.559
 5309TIP3    H115872   5.729   0.358   2.558
 5309TIP3    H215873   5.873   0.316   2.583
 5310TIP3   OH215874   1.764   6.278   3.444
 5310TIP3    H115875   1.795   6.284   3.534
 5310TIP3    H215876   1.839   6.304   3.391
 5311TIP3   OH215877   4.814   6.872   1.779
 5311TIP3    H115878   4.858   6.913   1.854
 5311TIP3    H215879   4.865   6.901   1.703
 5312TIP3   OH215880   7.846   5.458   6.542
 5312TIP3    H115881   7.889   5.543   6.537
 5312TIP3    H215882   7.915   5.395   6.518
 5313TIP3   OH215883   4.147   0.228   4.385
 5313TIP3    H115884   4.197   0.300   4.423
 5313TIP3    H215885   4.080   0.271   4.332
 5314TIP3   OH215886   3.003   0.333   2.435
 5314TIP3    H115887   2.979   0.278   2.361
 5314TIP3    H215888   3.094   0.310   2.454
 5315TIP3   OH215889   0.107   3.834   2.563
 5315TIP3    H115890   0.139   3.744   2.567
 5315TIP3    H215891   0.133   3.873   2.646
 5316TIP3   OH215892   6.056   4.490   4.654
 5316TIP3    H115893   5.962   4.504   4.668
 5316TIP3    H215894   6.077   4.415   4.709
 5317TIP3   OH215895   2.281   7.120   3.300
 5317TIP3    H115896   2.199   7.147   3.259
 5317TIP3    H215897   2.260   7.112   3.393
 5318TIP3   OH215898   1.266   0.740   2.409
 5318TIP3    H115899   1.171   0.730   2.416
 5318TIP3    H215900   1.282   0.749   2.315
 5319TIP3   OH215901   6.283   3.867   1.160
 5319TIP3    H115902   6.327   3.910   1.087
 5319TIP3    H215903   6.224   3.933   1.195
 5320TIP3   OH215904   3.268   4.158   1.067
 5320TIP3    H115905   3.192   4.187   1.015
 5320TIP3    H215906   3.305   4.086   1.016
 5321TIP3   OH215907   6.917   1.245   2.912
 5321TIP3    H115908   6.848   1.180   2.901
 5321TIP3    H215909   6.889   1.320   2.860
 5322TIP3   OH215910   2.331   6.661   6.079
 5322TIP3    H115911   2.351   6.655   6.172
 5322TIP3    H215912   2.280   6.742   6.071
 5323TIP3   OH215913   4.010   5.918   0.849
 5323TIP3    H115914   4.104   5.901   0.850
 5323TIP3    H215915   3.974   5.852   0.791
 5324TIP3   OH215916   3.630   1.600   4.722
 5324TIP3    H115917   3.684   1.675   4.698
 5324TIP3    H215918   3.692   1.531   4.743
 5325TIP3   OH215919   0.420   5.166   2.327
 5325TIP3    H115920   0.467   5.214   2.394
 5325TIP3    H215921   0.371   5.233   2.279
 5326TIP3   OH215922   1.259   1.229   2.095
 5326TIP3    H115923   1.317   1.230   2.172
 5326TIP3    H215924   1.236   1.136   2.085
 5327TIP3   OH215925   4.058   0.978   4.807
 5327TIP3    H115926   4.087   0.912   4.744
 5327TIP3    H215927   4.138   0.999   4.856
 5328TIP3   OH215928   2.426   0.485   3.827
 5328TIP3    H115929   2.433   0.399   3.869
 5328TIP3    H215930   2.440   0.548   3.897
 5329TIP3   OH215931   5.802   2.832   6.777
 5329TIP3    H115932   5.796   2.842   6.682
 5329TIP3    H215933   5.723   2.874   6.810
 5330TIP3   OH215934   2.827   4.549   0.527
 5330TIP3    H115935   2.829   4.463   0.484
 5330TIP3    H215936   2.835   4.611   0.455
 5331TIP3   OH215937   3.088   4.334   2.432
 5331TIP3    H115938   3.168   4.377   2.402
 5331TIP3    H215939   3.116   4.274   2.501
 5332TIP3   OH215940   2.713   6.654   3.016
 5332TIP3    H115941   2.802   6.689   3.017
 5332TIP3    H215942   2.717   6.579   3.075
 5333TIP3   OH215943   0.258   4.064   0.447
 5333TIP3    H115944   0.282   4.094   0.359
 5333TIP3    H215945   0.333   4.012   0.475
 5334TIP3   OH215946   1.450   0.891   2.585
 5334TIP3    H115947   1.382   0.852   2.530
 5334TIP3    H215948   1.437   0.852   2.671
 5335TIP3   OH215949   6.419   1.079   5.823
 5335TIP3    H115950   6.509   1.084   5.855
 5335TIP3    H215951   6.368   1.052   5.900
 5336TIP3   OH215952   2.375   1.191   4.940
 5336TIP3    H115953   2.333   1.132   4.876
 5336TIP3    H215954   2.307   1.255   4.961
 5337TIP3   OH215955   2.690   7.365   3.287
 5337TIP3    H115956   2.616   7.353   3.347
 5337TIP3    H215957   2.738   7.282   3.292
 5338TIP3   OH215958   6.071   4.960   4.428
 5338TIP3    H115959   6.022   5.015   4.489
 5338TIP3    H215960   6.068   4.872   4.466
 5339TIP3   OH215961   8.279   1.083   1.842
 5339TIP3    H115962   8.233   1.038   1.771
 5339TIP3    H215963   8.210   1.120   1.896
 5340TIP3   OH215964   5.748   3.862   4.727
 5340TIP3    H115965   5.752   3.766   4.728
 5340TIP3    H215966   5.658   3.881   4.700
 5341TIP3   OH215967   4.214   7.523   3.936
 5341TIP3    H115968   4.261   7.547   3.856
 5341TIP3    H215969   4.165   7.445   3.911
 5342TIP3   OH215970   6.642   5.400   2.704
 5342TIP3    H115971   6.734   5.417   2.685
 5342TIP3    H215972   6.616   5.333   2.642
 5343TIP3   OH215973   6.190   6.138   4.400
 5343TIP3    H115974   6.134   6.064   4.425
 5343TIP3    H215975   6.181   6.200   4.473
 5344TIP3   OH215976   0.251   5.529   1.735
 5344TIP3    H115977   0.212   5.604   1.690
 5344TIP3    H215978   0.334   5.514   1.688
 5345TIP3   OH215979   1.517   0.950   5.175
 5345TIP3    H115980   1.535   1.026   5.120
 5345TIP3    H215981   1.538   0.875   5.121
 5346TIP3   OH215982   2.551   0.962   6.670
 5346TIP3    H115983   2.589   1.044   6.639
 5346TIP3    H215984   2.514   0.983   6.756
 5347TIP3   OH215985   3.244   3.713   4.775
 5347TIP3    H115986   3.175   3.736   4.713
 5347TIP3    H215987   3.211   3.745   4.859
 5348TIP3   OH215988   0.374   3.559   3.546
 5348TIP3    H115989   0.461   3.594   3.563
 5348TIP3    H215990   0.352   3.590   3.459
 5349TIP3   OH215991   5.686   3.067   2.713
 5349TIP3    H115992   5.701   3.006   2.641
 5349TIP3    H215993   5.695   3.154   2.674
 5350TIP3   OH215994   0.279   5.471   1.067
 5350TIP3    H115995   0.286   5.566   1.058
 5350TIP3    H215996   0.341   5.449   1.136
 5351TIP3   OH215997   1.513   2.665   1.266
 5351TIP3    H115998   1.519   2.645   1.359
 5351TIP3    H215999   1.598   2.704   1.244
 5352TIP3   OH216000   6.404   0.879   4.063
 5352TIP3    H116001   6.352   0.826   4.002
 5352TIP3    H216002   6.390   0.839   4.148
 5353TIP3   OH216003   6.802   7.623   5.710
 5353TIP3    H116004   6.846   7.543   5.682
 5353TIP3    H216005   6.743   7.595   5.780
 5354TIP3   OH216006   0.596   4.917   4.865
 5354TIP3    H116007   0.577   4.909   4.958
 5354TIP3    H216008   0.539   4.988   4.836
 5355TIP3   OH216009   8.050   1.436   2.040
 5355TIP3    H116010   8.033   1.451   1.947
 5355TIP3    H216011   8.138   1.469   2.054
 5356TIP3   OH216012   3.534   5.913   0.263
 5356TIP3    H116013   3.628   5.929   0.255
 5356TIP3    H216014   3.527   5.823   0.294
 5357TIP3   OH216015   3.001   5.858   2.940
 5357TIP3    H116016   3.075   5.907   2.905
 5357TIP3    H216017   3.014   5.859   3.035
 5358TIP3   OH216018   8.175   2.268   2.583
 5358TIP3    H116019   8.193   2.264   2.677
 5358TIP3    H216020   8.081   2.247   2.576
 5359TIP3   OH216021   2.615   0.725   3.913
 5359TIP3    H116022   2.659   0.743   3.996
 5359TIP3    H216023   2.625   0.806   3.863
 5360TIP3   OH216024   5.768   6.847   4.914
 5360TIP3    H116025   5.764   6.880   5.004
 5360TIP3    H216026   5.828   6.773   4.918
 5361TIP3   OH216027   5.854   7.655   2.142
 5361TIP3    H116028   5.809   7.594   2.201
 5361TIP3    H216029   5.784   7.693   2.088
 5362TIP3   OH216030   7.246   2.269   5.099
 5362TIP3    H116031   7.206   2.319   5.028
 5362TIP3    H216032   7.329   2.237   5.062
 5363TIP3   OH216033   7.600   3.949   5.791
 5363TIP3    H116034   7.554   3.983   5.714
 5363TIP3    H216035   7.629   3.861   5.765
 5364TIP3   OH216036   0.894   2.298   5.796
 5364TIP3    H116037   0.846   2.240   5.738
 5364TIP3    H216038   0.834   2.316   5.868
 5365TIP3   OH216039   3.025   3.130   1.559
 5365TIP3    H116040   3.039   3.035   1.557
 5365TIP3    H216041   2.983   3.150   1.475
 5366TIP3   OH216042   7.601   2.686   0.515
 5366TIP3    H116043   7.605   2.603   0.469
 5366TIP3    H216044   7.552   2.744   0.457
 5367TIP3   OH216045   2.753   7.669   5.186
 5367TIP3    H116046   2.724   7.579   5.194
 5367TIP3    H216047   2.795   7.689   5.269
 5368TIP3   OH216048   5.430   4.437   5.686
 5368TIP3    H116049   5.359   4.373   5.692
 5368TIP3    H216050   5.394   4.516   5.727
 5369TIP3   OH216051   5.710   5.445   3.629
 5369TIP3    H116052   5.768   5.513   3.661
 5369TIP3    H216053   5.653   5.425   3.703
 5370TIP3   OH216054   6.328   7.733   3.503
 5370TIP3    H116055   6.398   7.706   3.444
 5370TIP3    H216056   6.257   7.671   3.486
 5371TIP3   OH216057   5.708   2.544   6.514
 5371TIP3    H116058   5.696   2.573   6.423
 5371TIP3    H216059   5.642   2.593   6.563
 5372TIP3   OH216060   6.255   4.819   6.594
 5372TIP3    H116061   6.309   4.886   6.550
 5372TIP3    H216062   6.312   4.785   6.663
 5373TIP3   OH216063   4.617   5.587   4.324
 5373TIP3    H116064   4.549   5.530   4.360
 5373TIP3    H216065   4.699   5.545   4.347
 5374TIP3   OH216066   1.845   1.861   0.523
 5374TIP3    H116067   1.761   1.822   0.500
 5374TIP3    H216068   1.836   1.953   0.497
 5375TIP3   OH216069   3.214   3.577   3.133
 5375TIP3    H116070   3.305   3.589   3.105
 5375TIP3    H216071   3.202   3.482   3.134
 5376TIP3   OH216072   1.444   4.676   0.533
 5376TIP3    H116073   1.441   4.724   0.451
 5376TIP3    H216074   1.524   4.623   0.527
 5377TIP3   OH216075   1.814   2.103   0.386
 5377TIP3    H116076   1.859   2.117   0.302
 5377TIP3    H216077   1.809   2.190   0.425
 5378TIP3   OH216078   3.069   5.991   4.188
 5378TIP3    H116079   2.975   5.988   4.204
 5378TIP3    H216080   3.091   5.904   4.155
 5379TIP3   OH216081   1.735   3.320   3.642
 5379TIP3    H116082   1.715   3.336   3.735
 5379TIP3    H216083   1.690   3.391   3.596
 5380TIP3   OH216084   5.094   3.306   6.389
 5380TIP3    H116085   5.132   3.316   6.302
 5380TIP3    H216086   5.051   3.220   6.386
 5381TIP3   OH216087   2.211   2.247   1.578
 5381TIP3    H116088   2.210   2.262   1.484
 5381TIP3    H216089   2.221   2.334   1.617
 5382TIP3   OH216090   7.429   1.754   6.270
 5382TIP3    H116091   7.371   1.820   6.307
 5382TIP3    H216092   7.441   1.690   6.340
 5383TIP3   OH216093   4.118   5.902   4.497
 5383TIP3    H116094   4.070   5.961   4.439
 5383TIP3    H216095   4.104   5.939   4.585
 5384TIP3   OH216096   3.517   2.628   6.024
 5384TIP3    H116097   3.460   2.652   6.098
 5384TIP3    H216098   3.469   2.658   5.947
 5385TIP3   OH216099   1.268   0.525   0.506
 5385TIP3    H116100   1.355   0.516   0.546
 5385TIP3    H216101   1.286   0.559   0.418
 5386TIP3   OH216102   5.915   4.274   0.300
 5386TIP3    H116103   5.822   4.273   0.278
 5386TIP3    H216104   5.948   4.356   0.262
 5387TIP3   OH216105   1.671   4.110   2.461
 5387TIP3    H116106   1.627   4.036   2.503
 5387TIP3    H216107   1.659   4.182   2.523
 5388TIP3   OH216108   5.895   4.519   0.754
 5388TIP3    H116109   5.940   4.587   0.804
 5388TIP3    H216110   5.962   4.486   0.693
 5389TIP3   OH216111   3.639   1.820   3.685
 5389TIP3    H116112   3.708   1.804   3.749
 5389TIP3    H216113   3.557   1.811   3.734
 5390TIP3   OH216114   7.002   3.676   1.068
 5390TIP3    H116115   6.921   3.714   1.036
 5390TIP3    H216116   6.980   3.586   1.089
 5391TIP3   OH216117   7.002   2.091   2.386
 5391TIP3    H116118   6.995   2.040   2.305
 5391TIP3    H216119   7.033   2.028   2.450
 5392TIP3   OH216120   4.813   1.415   1.203
 5392TIP3    H116121   4.900   1.380   1.223
 5392TIP3    H216122   4.809   1.497   1.252
 5393TIP3   OH216123   0.659   6.577   3.908
 5393TIP3    H116124   0.626   6.653   3.861
 5393TIP3    H216125   0.619   6.502   3.865
 5394TIP3   OH216126   2.857   0.037   6.014
 5394TIP3    H116127   2.834   0.057   5.923
 5394TIP3    H216128   2.953   0.037   6.015
 5395TIP3   OH216129   4.987   1.632   4.349
 5395TIP3    H116130   5.055   1.642   4.282
 5395TIP3    H216131   4.916   1.689   4.318
 5396TIP3   OH216132   0.589   4.194   6.730
 5396TIP3    H116133   0.589   4.132   6.657
 5396TIP3    H216134   0.622   4.143   6.805
 5397TIP3   OH216135   6.813   6.436   1.436
 5397TIP3    H116136   6.908   6.424   1.431
 5397TIP3    H216137   6.778   6.348   1.449
 5398TIP3   OH216138   5.850   2.967   1.588
 5398TIP3    H116139   5.806   2.882   1.585
 5398TIP3    H216140   5.943   2.945   1.596
 5399TIP3   OH216141   1.686   2.396   6.543
 5399TIP3    H116142   1.762   2.358   6.500
 5399TIP3    H216143   1.623   2.412   6.473
 5400TIP3   OH216144   2.560   4.604   0.246
 5400TIP3    H116145   2.520   4.666   0.307
 5400TIP3    H216146   2.574   4.525   0.298
 5401TIP3   OH216147   8.283   6.967   0.356
 5401TIP3    H116148   8.236   7.014   0.425
 5401TIP3    H216149   8.225   6.894   0.332
 5402TIP3   OH216150   1.977   4.767   2.612
 5402TIP3    H116151   2.015   4.851   2.585
 5402TIP3    H216152   2.037   4.735   2.679
 5403TIP3   OH216153   1.327   6.093   2.142
 5403TIP3    H116154   1.369   6.177   2.158
 5403TIP3    H216155   1.375   6.056   2.067
 5404TIP3   OH216156   8.246   3.594   0.412
 5404TIP3    H116157   8.223   3.522   0.471
 5404TIP3    H216158   8.212   3.567   0.327
 5405TIP3   OH216159   1.870   0.054   0.170
 5405TIP3    H116160   1.785   0.086   0.200
 5405TIP3    H216161   1.854   0.027   0.079
 5406TIP3   OH216162   2.343   3.877   6.177
 5406TIP3    H116163   2.356   3.906   6.267
 5406TIP3    H216164   2.432   3.867   6.142
 5407TIP3   OH216165   6.685   6.272   1.165
 5407TIP3    H116166   6.618   6.203   1.165
 5407TIP3    H216167   6.635   6.354   1.165
 5408TIP3   OH216168   7.991   5.692   2.883
 5408TIP3    H116169   8.036   5.776   2.872
 5408TIP3    H216170   7.986   5.680   2.978
 5409TIP3   OH216171   0.049   6.309   2.168
 5409TIP3    H116172   0.044   6.213   2.167
 5409TIP3    H216173  -0.031   6.338   2.123
 5410TIP3   OH216174   2.713   4.054   6.379
 5410TIP3    H116175   2.745   4.138   6.347
 5410TIP3    H216176   2.785   4.019   6.430
 5411TIP3   OH216177   2.319   1.047   1.891
 5411TIP3    H116178   2.332   0.967   1.943
 5411TIP3    H216179   2.229   1.073   1.910
 5412TIP3   OH216180   6.629   1.848   1.971
 5412TIP3    H116181   6.564   1.781   1.952
 5412TIP3    H216182   6.685   1.809   2.038
 5413TIP3   OH216183   2.063   0.285   0.691
 5413TIP3    H116184   2.016   0.201   0.691
 5413TIP3    H216185   2.154   0.262   0.706
 5414TIP3   OH216186   0.781   5.500   5.011
 5414TIP3    H116187   0.873   5.479   5.029
 5414TIP3    H216188   0.763   5.461   4.925
 5415TIP3   OH216189   7.202   4.697   2.232
 5415TIP3    H116190   7.288   4.738   2.224
 5415TIP3    H216191   7.140   4.769   2.222
 5416TIP3   OH216192   3.430   0.193   3.256
 5416TIP3    H116193   3.439   0.157   3.168
 5416TIP3    H216194   3.517   0.228   3.277
 5417TIP3   OH216195   2.628   5.439   5.780
 5417TIP3    H116196   2.639   5.390   5.698
 5417TIP3    H216197   2.581   5.379   5.838
 5418TIP3   OH216198   6.928   4.538   1.035
 5418TIP3    H116199   6.928   4.448   1.067
 5418TIP3    H216200   6.957   4.532   0.944
 5419TIP3   OH216201   6.011   7.230   3.852
 5419TIP3    H116202   6.080   7.226   3.919
 5419TIP3    H216203   5.960   7.150   3.866
 5420TIP3   OH216204   2.937   4.028   4.948
 5420TIP3    H116205   2.955   4.088   5.020
 5420TIP3    H216206   2.842   4.026   4.940
 5421TIP3   OH216207   1.384   1.744   4.331
 5421TIP3    H116208   1.302   1.792   4.338
 5421TIP3    H216209   1.358   1.652   4.331
 5422TIP3   OH216210   7.119   7.753   6.370
 5422TIP3    H116211   7.205   7.795   6.376
 5422TIP3    H216212   7.125   7.676   6.427
 5423TIP3   OH216213   2.873   1.276   3.130
 5423TIP3    H116214   2.954   1.296   3.082
 5423TIP3    H216215   2.855   1.185   3.109
 5424TIP3   OH216216   6.940   4.207   0.947
 5424TIP3    H116217   7.034   4.187   0.952
 5424TIP3    H216218   6.906   4.142   0.886
 5425TIP3   OH216219   6.564   3.053   2.921
 5425TIP3    H116220   6.582   3.082   3.010
 5425TIP3    H216221   6.568   3.133   2.868
 5426TIP3   OH216222   2.340   6.964   3.793
 5426TIP3    H116223   2.265   7.011   3.828
 5426TIP3    H216224   2.314   6.939   3.705
 5427TIP3   OH216225   3.121   5.626   0.050
 5427TIP3    H116226   3.127   5.614   0.145
 5427TIP3    H216227   3.059   5.560   0.021
 5428TIP3   OH216228   3.475   6.348   3.447
 5428TIP3    H116229   3.529   6.349   3.368
 5428TIP3    H216230   3.451   6.440   3.460
 5429TIP3   OH216231   8.138   4.969   0.075
 5429TIP3    H116232   8.097   4.926   0.151
 5429TIP3    H216233   8.107   5.060   0.079
 5430TIP3   OH216234   2.421   1.834   1.884
 5430TIP3    H116235   2.327   1.840   1.902
 5430TIP3    H216236   2.462   1.835   1.971
 5431TIP3   OH216237   6.590   6.526   1.245
 5431TIP3    H116238   6.679   6.513   1.276
 5431TIP3    H216239   6.536   6.471   1.302
 5432TIP3   OH216240   5.445   3.921   6.513
 5432TIP3    H116241   5.529   3.887   6.544
 5432TIP3    H216242   5.439   4.008   6.553
 5433TIP3   OH216243   6.449   7.314   3.271
 5433TIP3    H116244   6.534   7.354   3.290
 5433TIP3    H216245   6.462   7.267   3.189
 5434TIP3   OH216246   0.063   1.129   5.230
 5434TIP3    H116247  -0.013   1.142   5.287
 5434TIP3    H216248   0.068   1.210   5.179
 5435TIP3   OH216249   2.221   3.713   5.993
 5435TIP3    H116250   2.249   3.788   6.046
 5435TIP3    H216251   2.195   3.647   6.057
 5436TIP3   OH216252   2.670   5.193   3.956
 5436TIP3    H116253   2.661   5.288   3.964
 5436TIP3    H216254   2.728   5.180   3.881
 5437TIP3   OH216255   7.822   0.193   6.392
 5437TIP3    H116256   7.860   0.108   6.416
 5437TIP3    H216257   7.728   0.178   6.394
 5438TIP3   OH216258   1.510   7.721   3.111
 5438TIP3    H116259   1.417   7.737   3.095
 5438TIP3    H216260   1.515   7.626   3.127
 5439TIP3   OH216261   0.133   2.973   5.640
 5439TIP3    H116262   0.063   3.005   5.583
 5439TIP3    H216263   0.195   3.046   5.645
 5440TIP3   OH216264   2.396   7.238   1.071
 5440TIP3    H116265   2.427   7.304   1.133
 5440TIP3    H216266   2.474   7.189   1.047
 5441TIP3   OH216267   5.234   2.316   5.608
 5441TIP3    H116268   5.242   2.332   5.513
 5441TIP3    H216269   5.187   2.233   5.614
 5442TIP3   OH216270   1.654   1.518   4.349
 5442TIP3    H116271   1.596   1.593   4.361
 5442TIP3    H216272   1.702   1.538   4.268
 5443TIP3   OH216273   7.746   0.274   4.583
 5443TIP3    H116274   7.738   0.370   4.576
 5443TIP3    H216275   7.810   0.251   4.516
 5444TIP3   OH216276   3.994   0.702   6.112
 5444TIP3    H116277   3.976   0.787   6.152
 5444TIP3    H216278   4.087   0.687   6.128
 5445TIP3   OH216279   3.876   1.603   4.476
 5445TIP3    H116280   3.925   1.524   4.495
 5445TIP3    H216281   3.786   1.574   4.464
 5446TIP3   OH216282   3.899   3.266   0.660
 5446TIP3    H116283   3.862   3.225   0.738
 5446TIP3    H216284   3.845   3.344   0.647
 5447TIP3   OH216285   0.992   1.867   2.956
 5447TIP3    H116286   0.898   1.884   2.961
 5447TIP3    H216287   1.019   1.853   3.047
 5448TIP3   OH216288   5.557   3.428   5.334
 5448TIP3    H116289   5.567   3.333   5.334
 5448TIP3    H216290   5.591   3.456   5.249
 5449TIP3   OH216291   2.075  -0.006   1.269
 5449TIP3    H116292   1.990  -0.039   1.297
 5449TIP3    H216293   2.086   0.076   1.317
 5450TIP3   OH216294   6.358   1.666   6.303
 5450TIP3    H116295   6.268   1.654   6.275
 5450TIP3    H216296   6.359   1.752   6.346
 5451TIP3   OH216297   1.475   4.697   2.380
 5451TIP3    H116298   1.495   4.777   2.332
 5451TIP3    H216299   1.556   4.677   2.427
 5452TIP3   OH216300   8.163   5.154   6.358
 5452TIP3    H116301   8.248   5.172   6.398
 5452TIP3    H216302   8.171   5.187   6.269
 5453TIP3   OH216303   0.296   7.536   2.539
 5453TIP3    H116304   0.378   7.493   2.561
 5453TIP3    H216305   0.257   7.481   2.471
 5454TIP3   OH216306   3.290   7.749   1.377
 5454TIP3    H116307   3.229   7.821   1.388
 5454TIP3    H216308   3.373   7.791   1.352
 5455TIP3   OH216309   1.825   7.866   4.497
 5455TIP3    H116310   1.745   7.846   4.448
 5455TIP3    H216311   1.833   7.793   4.559
 5456TIP3   OH216312   6.022   0.352   0.691
 5456TIP3    H116313   5.935   0.364   0.729
 5456TIP3    H216314   6.019   0.397   0.607
 5457TIP3   OH216315   1.010   0.934   6.158
 5457TIP3    H116316   1.033   0.882   6.081
 5457TIP3    H216317   1.037   1.023   6.136
 5458TIP3   OH216318   1.644   0.141   3.895
 5458TIP3    H116319   1.709   0.184   3.950
 5458TIP3    H216320   1.629   0.202   3.823
 5459TIP3   OH216321   2.550   7.740   4.110
 5459TIP3    H116322   2.567   7.741   4.204
 5459TIP3    H216323   2.632   7.769   4.070
 5460TIP3   OH216324   0.282   4.104   0.994
 5460TIP3    H116325   0.268   4.153   1.075
 5460TIP3    H216326   0.373   4.075   0.998
 5461TIP3   OH216327   3.564   1.241   0.917
 5461TIP3    H116328   3.638   1.300   0.899
 5461TIP3    H216329   3.514   1.286   0.986
 5462TIP3   OH216330   4.938   4.287   0.739
 5462TIP3    H116331   4.939   4.285   0.835
 5462TIP3    H216332   5.014   4.340   0.715
 5463TIP3   OH216333   1.187   7.145   5.849
 5463TIP3    H116334   1.277   7.173   5.836
 5463TIP3    H216335   1.193   7.052   5.869
 5464TIP3   OH216336   1.000   6.455   3.364
 5464TIP3    H116337   1.022   6.363   3.349
 5464TIP3    H216338   1.014   6.497   3.280
 5465TIP3   OH216339   2.563   6.410   0.319
 5465TIP3    H116340   2.523   6.489   0.354
 5465TIP3    H216341   2.578   6.429   0.227
 5466TIP3   OH216342   7.604   2.704   6.017
 5466TIP3    H116343   7.662   2.700   5.940
 5466TIP3    H216344   7.661   2.735   6.088
 5467TIP3   OH216345   0.101   5.059   1.962
 5467TIP3    H116346   0.045   5.026   1.892
 5467TIP3    H216347   0.051   5.046   2.042
 5468TIP3   OH216348   6.987   7.495   1.967
 5468TIP3    H116349   7.082   7.486   1.967
 5468TIP3    H216350   6.955   7.411   2.002
 5469TIP3   OH216351   1.251   5.512   3.336
 5469TIP3    H116352   1.183   5.474   3.391
 5469TIP3    H216353   1.319   5.444   3.333
 5470TIP3   OH216354   4.977   2.695   2.306
 5470TIP3    H116355   4.977   2.754   2.231
 5470TIP3    H216356   4.950   2.751   2.380
 5471TIP3   OH216357   7.115   3.207   0.606
 5471TIP3    H116358   7.135   3.114   0.611
 5471TIP3    H216359   7.025   3.215   0.638
 5472TIP3   OH216360   1.079   5.154   2.274
 5472TIP3    H116361   1.169   5.122   2.281
 5472TIP3    H216362   1.078   5.233   2.327
 5473TIP3   OH216363   3.446   3.064   4.286
 5473TIP3    H116364   3.488   3.134   4.236
 5473TIP3    H216365   3.490   3.066   4.371
 5474TIP3   OH216366   1.796   4.685   0.972
 5474TIP3    H116367   1.775   4.623   1.042
 5474TIP3    H216368   1.880   4.655   0.939
 5475TIP3   OH216369   7.805   3.556   4.572
 5475TIP3    H116370   7.865   3.483   4.585
 5475TIP3    H216371   7.823   3.586   4.483
 5476TIP3   OH216372   1.128   3.469   1.609
 5476TIP3    H116373   1.130   3.562   1.631
 5476TIP3    H216374   1.217   3.438   1.626
 5477TIP3   OH216375   4.751   5.369   0.997
 5477TIP3    H116376   4.682   5.317   0.954
 5477TIP3    H216377   4.786   5.311   1.064
 5478TIP3   OH216378   7.302   2.599   6.511
 5478TIP3    H116379   7.341   2.565   6.591
 5478TIP3    H216380   7.223   2.644   6.541
 5479TIP3   OH216381   5.914   3.920   2.748
 5479TIP3    H116382   5.978   3.919   2.819
 5479TIP3    H216383   5.968   3.923   2.668
 5480TIP3   OH216384   7.944   5.974   3.114
 5480TIP3    H116385   8.019   6.000   3.167
 5480TIP3    H216386   7.935   5.880   3.129
 5481TIP3   OH216387   2.422   2.983   4.963
 5481TIP3    H116388   2.345   3.011   4.913
 5481TIP3    H216389   2.409   2.889   4.975
 5482TIP3   OH216390   4.750   6.285   5.558
 5482TIP3    H116391   4.690   6.313   5.627
 5482TIP3    H216392   4.798   6.212   5.596
 5483TIP3   OH216393   1.164   7.649   0.521
 5483TIP3    H116394   1.158   7.734   0.477
 5483TIP3    H216395   1.226   7.663   0.592
 5484TIP3   OH216396   5.862   0.094   2.572
 5484TIP3    H116397   5.844   0.006   2.604
 5484TIP3    H216398   5.897   0.081   2.484
 5485TIP3   OH216399   5.118   5.494   5.452
 5485TIP3    H116400   5.149   5.556   5.387
 5485TIP3    H216401   5.063   5.546   5.511
 5486TIP3   OH216402   6.068   4.854   1.480
 5486TIP3    H116403   6.161   4.876   1.488
 5486TIP3    H216404   6.025   4.938   1.465
 5487TIP3   OH216405   1.987   0.257   4.663
 5487TIP3    H116406   2.066   0.221   4.704
 5487TIP3    H216407   1.937   0.293   4.736
 5488TIP3   OH216408   5.366   7.775   2.677
 5488TIP3    H116409   5.400   7.829   2.749
 5488TIP3    H216410   5.347   7.839   2.607
 5489TIP3   OH216411   3.023   5.611   2.730
 5489TIP3    H116412   3.049   5.680   2.792
 5489TIP3    H216413   2.934   5.633   2.705
 5490TIP3   OH216414   1.937   5.732   1.413
 5490TIP3    H116415   1.844   5.754   1.403
 5490TIP3    H216416   1.965   5.784   1.488
 5491TIP3   OH216417   4.562   7.108   3.245
 5491TIP3    H116418   4.486   7.118   3.303
 5491TIP3    H216419   4.526   7.065   3.167
 5492TIP3   OH216420   7.119   0.645   1.376
 5492TIP3    H116421   7.068   0.708   1.325
 5492TIP3    H216422   7.186   0.615   1.316
 5493TIP3   OH216423   1.955   3.208   1.176
 5493TIP3    H116424   1.968   3.138   1.112
 5493TIP3    H216425   2.041   3.221   1.216
 5494TIP3   OH216426   0.083   2.656   2.589
 5494TIP3    H116427   0.094   2.566   2.559
 5494TIP3    H216428   0.008   2.689   2.541
 5495TIP3   OH216429   6.543   3.442   5.524
 5495TIP3    H116430   6.460   3.452   5.570
 5495TIP3    H216431   6.526   3.472   5.435
 5496TIP3   OH216432   6.782   7.248   6.417
 5496TIP3    H116433   6.712   7.278   6.475
 5496TIP3    H216434   6.737   7.227   6.335
 5497TIP3   OH216435   2.949   4.286   1.848
 5497TIP3    H116436   2.886   4.335   1.900
 5497TIP3    H216437   3.034   4.323   1.872
 5498TIP3   OH216438   5.577   1.526   5.912
 5498TIP3    H116439   5.488   1.551   5.889
 5498TIP3    H216440   5.582   1.433   5.890
 5499TIP3   OH216441   2.862   4.390   4.486
 5499TIP3    H116442   2.863   4.432   4.572
 5499TIP3    H216443   2.769   4.380   4.464
 5500TIP3   OH216444   1.519   7.225   4.587
 5500TIP3    H116445   1.456   7.226   4.658
 5500TIP3    H216446   1.540   7.132   4.576
 5501TIP3   OH216447   6.845   0.438   1.102
 5501TIP3    H116448   6.883   0.407   1.020
 5501TIP3    H216449   6.774   0.496   1.074
 5502TIP3   OH216450   4.888   3.924   3.969
 5502TIP3    H116451   4.936   3.950   3.890
 5502TIP3    H216452   4.897   3.999   4.028
 5503TIP3   OH216453   5.407   0.593   6.754
 5503TIP3    H116454   5.431   0.635   6.671
 5503TIP3    H216455   5.315   0.569   6.742
 5504TIP3   OH216456   6.645   5.640   1.801
 5504TIP3    H116457   6.699   5.687   1.865
 5504TIP3    H216458   6.657   5.548   1.822
 5505TIP3   OH216459   7.074   3.415   4.272
 5505TIP3    H116460   7.092   3.507   4.290
 5505TIP3    H216461   7.027   3.385   4.351
 5506TIP3   OH216462   2.293   5.380   5.289
 5506TIP3    H116463   2.306   5.371   5.195
 5506TIP3    H216464   2.199   5.394   5.300
 5507TIP3   OH216465   2.916   4.069   0.279
 5507TIP3    H116466   2.982   4.061   0.210
 5507TIP3    H216467   2.961   4.042   0.359
 5508TIP3   OH216468   1.246   2.384   5.209
 5508TIP3    H116469   1.333   2.417   5.188
 5508TIP3    H216470   1.234   2.402   5.302
 5509TIP3   OH216471   0.173   6.266   3.941
 5509TIP3    H116472   0.254   6.316   3.956
 5509TIP3    H216473   0.180   6.192   4.000
 5510TIP3   OH216474   7.634   3.139   4.400
 5510TIP3    H116475   7.728   3.138   4.383
 5510TIP3    H216476   7.626   3.133   4.495
 5511TIP3   OH216477   6.435   4.637   0.210
 5511TIP3    H116478   6.456   4.715   0.159
 5511TIP3    H216479   6.376   4.586   0.153
 5512TIP3   OH216480   5.403   0.359   0.905
 5512TIP3    H116481   5.423   0.269   0.881
 5512TIP3    H216482   5.315   0.374   0.870
 5513TIP3   OH216483   3.297   3.530   3.410
 5513TIP3    H116484   3.255   3.554   3.327
 5513TIP3    H216485   3.262   3.443   3.430
 5514TIP3   OH216486   7.947   0.010   5.623
 5514TIP3    H116487   8.042  -0.001   5.628
 5514TIP3    H216488   7.930   0.091   5.671
 5515TIP3   OH216489   7.343   2.914   6.502
 5515TIP3    H116490   7.274   2.898   6.438
 5515TIP3    H216491   7.418   2.864   6.468
 5516TIP3   OH216492   1.633   2.229   3.077
 5516TIP3    H116493   1.657   2.194   2.992
 5516TIP3    H216494   1.704   2.289   3.100
 5517TIP3   OH216495   8.010   2.941   0.446
 5517TIP3    H116496   8.049   2.854   0.451
 5517TIP3    H216497   7.988   2.953   0.354
 5518TIP3   OH216498   7.604   6.741   5.945
 5518TIP3    H116499   7.662   6.695   6.006
 5518TIP3    H216500   7.571   6.672   5.887
 5519TIP3   OH216501   5.987   0.718   4.623
 5519TIP3    H116502   6.065   0.770   4.644
 5519TIP3    H216503   5.947   0.699   4.708
 5520TIP3   OH216504   5.170   5.894   5.573
 5520TIP3    H116505   5.170   5.851   5.487
 5520TIP3    H216506   5.125   5.832   5.631
 5521TIP3   OH216507   3.454   2.267   5.307
 5521TIP3    H116508   3.502   2.191   5.275
 5521TIP3    H216509   3.450   2.326   5.232
 5522TIP3   OH216510   7.150   1.201   3.338
 5522TIP3    H116511   7.102   1.283   3.350
 5522TIP3    H216512   7.242   1.227   3.334
 5523TIP3   OH216513   5.247   3.953   2.452
 5523TIP3    H116514   5.241   4.017   2.522
 5523TIP3    H216515   5.166   3.903   2.458
 5524TIP3   OH216516   7.706   2.681   2.111
 5524TIP3    H116517   7.629   2.676   2.054
 5524TIP3    H216518   7.709   2.596   2.155
 5525TIP3   OH216519   7.913   3.214   1.958
 5525TIP3    H116520   7.845   3.233   2.023
 5525TIP3    H216521   7.923   3.296   1.909
 5526TIP3   OH216522   5.537   6.779   5.248
 5526TIP3    H116523   5.472   6.712   5.230
 5526TIP3    H216524   5.605   6.765   5.182
 5527TIP3   OH216525   0.454   5.425   1.598
 5527TIP3    H116526   0.452   5.359   1.528
 5527TIP3    H216527   0.538   5.468   1.588
 5528TIP3   OH216528   3.243   7.246   4.621
 5528TIP3    H116529   3.240   7.335   4.584
 5528TIP3    H216530   3.258   7.190   4.545
 5529TIP3   OH216531   2.990   5.836   1.294
 5529TIP3    H116532   2.933   5.887   1.237
 5529TIP3    H216533   2.943   5.830   1.377
 5530TIP3   OH216534   4.307   2.075   1.092
 5530TIP3    H116535   4.341   2.005   1.148
 5530TIP3    H216536   4.384   2.129   1.074
 5531TIP3   OH216537   4.732   2.730   0.208
 5531TIP3    H116538   4.705   2.674   0.135
 5531TIP3    H216539   4.818   2.763   0.182
 5532TIP3   OH216540   6.257   6.741   0.943
 5532TIP3    H116541   6.314   6.780   0.877
 5532TIP3    H216542   6.316   6.713   1.013
 5533TIP3   OH216543   7.730   5.427   6.041
 5533TIP3    H116544   7.734   5.428   6.137
 5533TIP3    H216545   7.646   5.467   6.020
 5534TIP3   OH216546   7.642   5.335   3.869
 5534TIP3    H116547   7.734   5.361   3.861
 5534TIP3    H216548   7.611   5.331   3.779
 5535TIP3   OH216549   1.608   6.571   4.730
 5535TIP3    H116550   1.676   6.583   4.664
 5535TIP3    H216551   1.540   6.633   4.706
 5536TIP3   OH216552   2.239   0.627   2.655
 5536TIP3    H116553   2.159   0.612   2.605
 5536TIP3    H216554   2.216   0.694   2.719
 5537TIP3   OH216555   0.956   6.854   0.418
 5537TIP3    H116556   0.926   6.859   0.509
 5537TIP3    H216557   0.875   6.846   0.366
 5538TIP3   OH216558   0.084   1.112   1.202
 5538TIP3    H116559   0.041   1.062   1.132
 5538TIP3    H216560   0.074   1.056   1.279
 5539TIP3   OH216561   6.550   4.565   5.289
 5539TIP3    H116562   6.465   4.610   5.285
 5539TIP3    H216563   6.592   4.602   5.367
 5540TIP3   OH216564   4.795   7.076   4.492
 5540TIP3    H116565   4.771   7.117   4.575
 5540TIP3    H216566   4.841   6.996   4.517
 5541TIP3   OH216567   2.656   6.613   2.213
 5541TIP3    H116568   2.643   6.530   2.259
 5541TIP3    H216569   2.591   6.672   2.253
 5542TIP3   OH216570   7.251   0.093   5.327
 5542TIP3    H116571   7.269   0.131   5.241
 5542TIP3    H216572   7.328   0.040   5.346
 5543TIP3   OH216573   2.344   6.155   0.453
 5543TIP3    H116574   2.396   6.229   0.486
 5543TIP3    H216575   2.374   6.080   0.504
 5544TIP3   OH216576   6.950   1.653   2.851
 5544TIP3    H116577   7.015   1.720   2.874
 5544TIP3    H216578   6.875   1.702   2.819
 5545TIP3   OH216579   7.603   4.987   1.518
 5545TIP3    H116580   7.658   5.063   1.537
 5545TIP3    H216581   7.572   5.002   1.428
 5546TIP3   OH216582   7.066   1.785   3.654
 5546TIP3    H116583   7.057   1.712   3.593
 5546TIP3    H216584   7.037   1.748   3.738
 5547TIP3   OH216585   2.066   3.334  -0.008
 5547TIP3    H116586   2.158   3.360  -0.001
 5547TIP3    H216587   2.042   3.306   0.081
 5548TIP3   OH216588   7.010   2.990   1.700
 5548TIP3    H116589   6.959   2.948   1.769
 5548TIP3    H216590   7.092   3.016   1.743
 5549TIP3   OH216591   1.854   2.358   5.301
 5549TIP3    H116592   1.928   2.363   5.362
 5549TIP3    H216593   1.864   2.435   5.244
 5550TIP3   OH216594   2.120   5.877   5.436
 5550TIP3    H116595   2.071   5.853   5.515
 5550TIP3    H216596   2.055   5.919   5.379
 5551TIP3   OH216597   7.475   5.750   3.682
 5551TIP3    H116598   7.514   5.674   3.638
 5551TIP3    H216599   7.539   5.774   3.748
 5552TIP3   OH216600   1.265   2.088   3.799
 5552TIP3    H116601   1.172   2.078   3.819
 5552TIP3    H216602   1.309   2.027   3.858
 5553TIP3   OH216603   7.463   5.341   6.419
 5553TIP3    H116604   7.377   5.372   6.392
 5553TIP3    H216605   7.457   5.246   6.414
 5554TIP3   OH216606   2.473   4.845   1.453
 5554TIP3    H116607   2.499   4.766   1.406
 5554TIP3    H216608   2.406   4.885   1.397
 5555TIP3   OH216609   8.052   0.222   0.737
 5555TIP3    H116610   8.036   0.280   0.662
 5555TIP3    H216611   8.063   0.281   0.811
 5556TIP3   OH216612   5.410   6.168   6.211
 5556TIP3    H116613   5.368   6.249   6.182
 5556TIP3    H216614   5.499   6.194   6.235
 5557TIP3   OH216615   2.899   1.644   1.606
 5557TIP3    H116616   2.818   1.695   1.597
 5557TIP3    H216617   2.967   1.700   1.568
 5558TIP3   OH216618   2.605   3.201   0.227
 5558TIP3    H116619   2.575   3.264   0.292
 5558TIP3    H216620   2.613   3.118   0.274
 5559TIP3   OH216621   4.749   7.220   4.737
 5559TIP3    H116622   4.655   7.232   4.733
 5559TIP3    H216623   4.765   7.185   4.825
 5560TIP3   OH216624   7.218   7.720   4.396
 5560TIP3    H116625   7.188   7.811   4.392
 5560TIP3    H216626   7.247   7.701   4.307
 5561TIP3   OH216627   4.524   1.653   4.549
 5561TIP3    H116628   4.615   1.654   4.580
 5561TIP3    H216629   4.499   1.560   4.553
 5562TIP3   OH216630   4.640   5.210   1.466
 5562TIP3    H116631   4.549   5.193   1.443
 5562TIP3    H216632   4.687   5.132   1.435
 5563TIP3   OH216633   2.466   5.505   0.249
 5563TIP3    H116634   2.504   5.421   0.276
 5563TIP3    H216635   2.514   5.570   0.300
 5564TIP3   OH216636   7.127   0.460   4.399
 5564TIP3    H116637   7.073   0.493   4.470
 5564TIP3    H216638   7.070   0.460   4.323
 5565TIP3   OH216639   3.110   5.705   6.184
 5565TIP3    H116640   3.193   5.712   6.231
 5565TIP3    H216641   3.129   5.648   6.110
 5566TIP3   OH216642   0.196   3.042   2.805
 5566TIP3    H116643   0.197   3.035   2.900
 5566TIP3    H216644   0.269   2.988   2.775
 5567TIP3   OH216645   0.468   3.670   3.177
 5567TIP3    H116646   0.484   3.743   3.237
 5567TIP3    H216647   0.390   3.627   3.213
 5568TIP3   OH216648   2.235   2.408   2.660
 5568TIP3    H116649   2.282   2.448   2.587
 5568TIP3    H216650   2.304   2.377   2.718
 5569TIP3   OH216651   5.222   1.204   1.119
 5569TIP3    H116652   5.260   1.252   1.046
 5569TIP3    H216653   5.265   1.241   1.197
 5570TIP3   OH216654   4.831   0.697   1.219
 5570TIP3    H116655   4.736   0.701   1.226
 5570TIP3    H216656   4.850   0.732   1.132
 5571TIP3   OH216657   1.842   6.189   4.383
 5571TIP3    H116658   1.769   6.246   4.359
 5571TIP3    H216659   1.821   6.160   4.472
 5572TIP3   OH216660   4.487   2.561   3.417
 5572TIP3    H116661   4.529   2.623   3.476
 5572TIP3    H216662   4.394   2.569   3.435
 5573TIP3   OH216663   0.089   0.444   2.799
 5573TIP3    H116664   0.129   0.368   2.756
 5573TIP3    H216665   0.036   0.486   2.731
 5574TIP3   OH216666   7.562   7.485   1.720
 5574TIP3    H116667   7.516   7.533   1.789
 5574TIP3    H216668   7.650   7.470   1.755
 5575TIP3   OH216669   4.267   2.886   3.544
 5575TIP3    H116670   4.254   2.793   3.526
 5575TIP3    H216671   4.342   2.910   3.489
 5576TIP3   OH216672   2.244   3.254   2.208
 5576TIP3    H116673   2.220   3.193   2.277
 5576TIP3    H216674   2.214   3.212   2.127
 5577TIP3   OH216675   1.237   0.049   3.576
 5577TIP3    H116676   1.234   0.045   3.480
 5577TIP3    H216677   1.209   0.138   3.597
 5578TIP3   OH216678   3.534   3.029   2.972
 5578TIP3    H116679   3.597   3.078   3.026
 5578TIP3    H216680   3.452   3.035   3.021
 5579TIP3   OH216681   0.180   5.904   0.324
 5579TIP3    H116682   0.229   5.878   0.402
 5579TIP3    H216683   0.241   5.889   0.251
 5580TIP3   OH216684   5.917   6.565   1.160
 5580TIP3    H116685   5.937   6.510   1.084
 5580TIP3    H216686   5.900   6.651   1.122
 5581TIP3   OH216687   4.694   6.892   3.354
 5581TIP3    H116688   4.646   6.965   3.314
 5581TIP3    H216689   4.635   6.817   3.345
 5582TIP3   OH216690   6.329   6.960   5.699
 5582TIP3    H116691   6.234   6.963   5.712
 5582TIP3    H216692   6.363   7.020   5.765
 5583TIP3   OH216693   4.052   3.447   1.241
 5583TIP3    H116694   4.065   3.540   1.225
 5583TIP3    H216695   4.140   3.414   1.262
 5584TIP3   OH216696   2.891   3.976   5.623
 5584TIP3    H116697   2.804   4.015   5.628
 5584TIP3    H216698   2.951   4.049   5.640
 5585TIP3   OH216699   4.576   3.036   4.631
 5585TIP3    H116700   4.536   3.102   4.687
 5585TIP3    H216701   4.517   3.028   4.556
 5586TIP3   OH216702   5.039   6.316   4.264
 5586TIP3    H116703   5.043   6.226   4.231
 5586TIP3    H216704   5.121   6.328   4.312
 5587TIP3   OH216705   0.601   6.814   3.691
 5587TIP3    H116706   0.546   6.777   3.622
 5587TIP3    H216707   0.545   6.881   3.732
 5588TIP3   OH216708   6.183   2.230   5.867
 5588TIP3    H116709   6.118   2.299   5.882
 5588TIP3    H216710   6.226   2.255   5.786
 5589TIP3   OH216711   7.084   2.509   3.828
 5589TIP3    H116712   7.153   2.521   3.893
 5589TIP3    H216713   7.019   2.454   3.871
 5590TIP3   OH216714   0.312   5.735   4.401
 5590TIP3    H116715   0.223   5.730   4.436
 5590TIP3    H216716   0.363   5.677   4.457
 5591TIP3   OH216717   0.684   7.141   0.445
 5591TIP3    H116718   0.647   7.053   0.456
 5591TIP3    H216719   0.699   7.172   0.534
 5592TIP3   OH216720   7.584   7.436   1.282
 5592TIP3    H116721   7.665   7.472   1.246
 5592TIP3    H216722   7.560   7.365   1.224
 5593TIP3   OH216723   6.825   5.502   6.469
 5593TIP3    H116724   6.817   5.556   6.548
 5593TIP3    H216725   6.863   5.420   6.500
 5594TIP3   OH216726   6.816   1.947   2.192
 5594TIP3    H116727   6.765   2.013   2.238
 5594TIP3    H216728   6.859   1.995   2.121
 5595TIP3   OH216729   6.514   1.328   4.230
 5595TIP3    H116730   6.521   1.233   4.222
 5595TIP3    H216731   6.470   1.355   4.149
 5596TIP3   OH216732   0.253   7.384   3.764
 5596TIP3    H116733   0.345   7.370   3.789
 5596TIP3    H216734   0.203   7.332   3.827
 5597TIP3   OH216735   5.443   5.322   5.795
 5597TIP3    H116736   5.421   5.233   5.767
 5597TIP3    H216737   5.363   5.373   5.778
 5598TIP3   OH216738   4.400   2.034   3.717
 5598TIP3    H116739   4.424   1.947   3.750
 5598TIP3    H216740   4.351   2.017   3.637
 5599TIP3   OH216741   5.703   3.590   2.860
 5599TIP3    H116742   5.712   3.685   2.856
 5599TIP3    H216743   5.792   3.558   2.873
 5600TIP3   OH216744   1.997   0.042   5.504
 5600TIP3    H116745   2.020   0.105   5.436
 5600TIP3    H216746   1.934  -0.017   5.462
 5601TIP3   OH216747   1.861   4.278   5.334
 5601TIP3    H116748   1.874   4.195   5.379
 5601TIP3    H216749   1.850   4.342   5.404
 5602TIP3   OH216750   2.366   6.192   2.772
 5602TIP3    H116751   2.441   6.135   2.788
 5602TIP3    H216752   2.308   6.176   2.846
 5603TIP3   OH216753   5.959   1.922   6.134
 5603TIP3    H116754   5.878   1.914   6.185
 5603TIP3    H216755   5.929   1.950   6.047
 5604TIP3   OH216756   7.503   5.982   5.501
 5604TIP3    H116757   7.587   6.026   5.487
 5604TIP3    H216758   7.519   5.891   5.479
 5605TIP3   OH216759   4.130   0.965   6.646
 5605TIP3    H116760   4.100   0.886   6.691
 5605TIP3    H216761   4.134   1.031   6.715
 5606TIP3   OH216762   5.686   1.837   5.928
 5606TIP3    H116763   5.731   1.753   5.928
 5606TIP3    H216764   5.756   1.901   5.919
 5607TIP3   OH216765   8.193   2.131   5.552
 5607TIP3    H116766   8.137   2.169   5.619
 5607TIP3    H216767   8.151   2.047   5.530
 5608TIP3   OH216768   1.828   0.190   2.871
 5608TIP3    H116769   1.890   0.256   2.837
 5608TIP3    H216770   1.880   0.137   2.931
 5609TIP3   OH216771   1.580   2.118   4.382
 5609TIP3    H116772   1.531   2.104   4.462
 5609TIP3    H216773   1.533   2.067   4.316
 5610TIP3   OH216774   5.611   6.145   1.154
 5610TIP3    H116775   5.642   6.236   1.151
 5610TIP3    H216776   5.636   6.108   1.069
 5611TIP3   OH216777   0.587   4.252   2.740
 5611TIP3    H116778   0.592   4.294   2.654
 5611TIP3    H216779   0.672   4.269   2.780
 5612TIP3   OH216780   3.589   7.506   3.814
 5612TIP3    H116781   3.520   7.440   3.820
 5612TIP3    H216782   3.554   7.572   3.754
 5613TIP3   OH216783   6.939   0.502   0.599
 5613TIP3    H116784   6.911   0.592   0.618
 5613TIP3    H216785   7.028   0.511   0.566
 5614TIP3   OH216786   3.295   6.975   6.324
 5614TIP3    H116787   3.290   6.928   6.407
 5614TIP3    H216788   3.204   6.983   6.296
 5615TIP3   OH216789   4.320   1.096   1.327
 5615TIP3    H116790   4.258   1.085   1.255
 5615TIP3    H216791   4.304   1.021   1.384
 5616TIP3   OH216792   5.876   0.582   2.146
 5616TIP3    H116793   5.898   0.507   2.091
 5616TIP3    H216794   5.818   0.636   2.091
 5617TIP3   OH216795   4.691   2.411   6.272
 5617TIP3    H116796   4.708   2.499   6.305
 5617TIP3    H216797   4.767   2.390   6.217
 5618TIP3   OH216798   7.968   6.525   6.602
 5618TIP3    H116799   8.015   6.460   6.656
 5618TIP3    H216800   7.991   6.502   6.512
 5619TIP3   OH216801   5.344   2.163   0.396
 5619TIP3    H116802   5.386   2.104   0.333
 5619TIP3    H216803   5.369   2.127   0.481
 5620TIP3   OH216804   5.054   4.567   4.395
 5620TIP3    H116805   4.965   4.602   4.383
 5620TIP3    H216806   5.042   4.494   4.455
 5621TIP3   OH216807   2.786   1.495   3.429
 5621TIP3    H116808   2.748   1.446   3.503
 5621TIP3    H216809   2.847   1.434   3.389
 5622TIP3   OH216810   6.411   1.939   4.460
 5622TIP3    H116811   6.334   1.934   4.516
 5622TIP3    H216812   6.461   1.860   4.480
 5623TIP3   OH216813   5.340   7.475   1.430
 5623TIP3    H116814   5.306   7.395   1.389
 5623TIP3    H216815   5.320   7.544   1.367
 5624TIP3   OH216816   2.677   2.520   6.011
 5624TIP3    H116817   2.676   2.428   5.985
 5624TIP3    H216818   2.679   2.569   5.929
 5625TIP3   OH216819   3.707   5.666   0.847
 5625TIP3    H116820   3.723   5.683   0.940
 5625TIP3    H216821   3.701   5.753   0.808
 5626TIP3   OH216822   0.855   4.942   4.942
 5626TIP3    H116823   0.826   4.879   5.008
 5626TIP3    H216824   0.809   4.916   4.862
 5627TIP3   OH216825   5.204   3.463   1.992
 5627TIP3    H116826   5.130   3.460   2.053
 5627TIP3    H216827   5.194   3.384   1.939
 5628TIP3   OH216828   6.765   5.832   0.614
 5628TIP3    H116829   6.779   5.765   0.547
 5628TIP3    H216830   6.684   5.876   0.588
 5629TIP3   OH216831   7.043   3.754   2.082
 5629TIP3    H116832   7.101   3.764   2.157
 5629TIP3    H216833   6.967   3.708   2.117
 5630TIP3   OH216834   7.940   6.042   6.253
 5630TIP3    H116835   7.984   6.062   6.171
 5630TIP3    H216836   8.008   6.052   6.320
 5631TIP3   OH216837   8.265   4.547   3.876
 5631TIP3    H116838   8.327   4.494   3.825
 5631TIP3    H216839   8.307   4.558   3.961
 5632TIP3   OH216840   3.722   4.265   4.997
 5632TIP3    H116841   3.770   4.232   5.074
 5632TIP3    H216842   3.756   4.214   4.924
 5633TIP3   OH216843   2.013   7.463   4.190
 5633TIP3    H116844   2.105   7.486   4.207
 5633TIP3    H216845   1.972   7.462   4.277
 5634TIP3   OH216846   4.926   4.851   3.536
 5634TIP3    H116847   4.844   4.854   3.585
 5634TIP3    H216848   4.950   4.942   3.521
 5635TIP3   OH216849   3.179   2.128   5.844
 5635TIP3    H116850   3.116   2.195   5.871
 5635TIP3    H216851   3.257   2.178   5.818
 5636TIP3   OH216852   0.958   3.779   2.212
 5636TIP3    H116853   1.011   3.700   2.224
 5636TIP3    H216854   0.874   3.758   2.253
 5637TIP3   OH216855   3.155   3.990   3.226
 5637TIP3    H116856   3.113   3.905   3.217
 5637TIP3    H216857   3.091   4.043   3.275
 5638TIP3   OH216858   8.192   5.328   0.102
 5638TIP3    H116859   8.178   5.315   0.008
 5638TIP3    H216860   8.287   5.337   0.111
 5639TIP3   OH216861   7.100   1.126   0.666
 5639TIP3    H116862   7.057   1.207   0.693
 5639TIP3    H216863   7.145   1.149   0.584
 5640TIP3   OH216864   0.343   1.167   5.288
 5640TIP3    H116865   0.409   1.103   5.258
 5640TIP3    H216866   0.261   1.135   5.252
 5641TIP3   OH216867   5.766   1.376   3.482
 5641TIP3    H116868   5.759   1.322   3.561
 5641TIP3    H216869   5.683   1.423   3.477
 5642TIP3   OH216870   6.279   0.012   5.522
 5642TIP3    H116871   6.308   0.103   5.516
 5642TIP3    H216872   6.264  -0.014   5.431
 5643TIP3   OH216873   5.529   5.643   0.797
 5643TIP3    H116874   5.470   5.678   0.731
 5643TIP3    H216875   5.611   5.690   0.784
 5644TIP3   OH216876   6.741   3.235   1.702
 5644TIP3    H116877   6.808   3.167   1.701
 5644TIP3    H216878   6.660   3.189   1.678
 5645TIP3   OH216879   4.682   5.117   3.256
 5645TIP3    H116880   4.692   5.207   3.224
 5645TIP3    H216881   4.714   5.063   3.185
 5646TIP3   OH216882   6.392   1.334   1.691
 5646TIP3    H116883   6.308   1.290   1.707
 5646TIP3    H216884   6.434   1.338   1.777
 5647TIP3   OH216885   8.095   3.664   3.932
 5647TIP3    H116886   8.126   3.742   3.976
 5647TIP3    H216887   8.005   3.653   3.963
 5648TIP3   OH216888   2.163   1.565   2.567
 5648TIP3    H116889   2.198   1.653   2.574
 5648TIP3    H216890   2.237   1.512   2.538
 5649TIP3   OH216891   1.909   0.972   1.613
 5649TIP3    H116892   1.926   1.014   1.529
 5649TIP3    H216893   1.962   0.892   1.612
 5650TIP3   OH216894   8.283   3.415   4.836
 5650TIP3    H116895   8.368   3.424   4.878
 5650TIP3    H216896   8.238   3.348   4.887
 5651TIP3   OH216897   4.734   1.925   4.813
 5651TIP3    H116898   4.730   1.830   4.828
 5651TIP3    H216899   4.820   1.951   4.845
 5652TIP3   OH216900   4.483   2.430   0.911
 5652TIP3    H116901   4.398   2.391   0.889
 5652TIP3    H216902   4.500   2.493   0.841
 5653TIP3   OH216903   1.783   7.430   3.367
 5653TIP3    H116904   1.806   7.402   3.456
 5653TIP3    H216905   1.865   7.463   3.331
 5654TIP3   OH216906   5.295   4.628   2.970
 5654TIP3    H116907   5.390   4.623   2.979
 5654TIP3    H216908   5.270   4.706   3.020
 5655TIP3   OH216909   5.691   2.941   5.185
 5655TIP3    H116910   5.733   2.858   5.209
 5655TIP3    H216911   5.712   2.953   5.092
 5656TIP3   OH216912   7.417   7.261   1.838
 5656TIP3    H116913   7.502   7.251   1.881
 5656TIP3    H216914   7.426   7.342   1.788
 5657TIP3   OH216915   3.373   3.498   3.786
 5657TIP3    H116916   3.310   3.570   3.786
 5657TIP3    H216917   3.319   3.419   3.783
 5658TIP3   OH216918   8.279   4.375   3.226
 5658TIP3    H116919   8.205   4.324   3.194
 5658TIP3    H216920   8.320   4.410   3.147
 5659TIP3   OH216921   5.976   2.217   2.707
 5659TIP3    H116922   5.977   2.297   2.654
 5659TIP3    H216923   5.972   2.248   2.798
 5660TIP3   OH216924   0.609   7.267   5.747
 5660TIP3    H116925   0.697   7.272   5.784
 5660TIP3    H216926   0.579   7.358   5.745
 5661TIP3   OH216927   6.361   7.694   5.077
 5661TIP3    H116928   6.294   7.626   5.069
 5661TIP3    H216929   6.439   7.656   5.037
 5662TIP3   OH216930   0.258   2.721   1.803
 5662TIP3    H116931   0.266   2.802   1.753
 5662TIP3    H216932   0.195   2.668   1.753
 5663TIP3   OH216933   5.731   6.215   3.339
 5663TIP3    H116934   5.673   6.208   3.264
 5663TIP3    H216935   5.681   6.178   3.412
 5664TIP3   OH216936   5.224   3.804   1.374
 5664TIP3    H116937   5.246   3.711   1.377
 5664TIP3    H216938   5.308   3.848   1.358
 5665TIP3   OH216939   6.195   0.616   0.205
 5665TIP3    H116940   6.181   0.614   0.300
 5665TIP3    H216941   6.284   0.583   0.193
 5666TIP3   OH216942   6.346   6.808   2.597
 5666TIP3    H116943   6.298   6.882   2.560
 5666TIP3    H216944   6.282   6.737   2.601
 5667TIP3   OH216945   3.316   3.576   2.824
 5667TIP3    H116946   3.365   3.643   2.871
 5667TIP3    H216947   3.229   3.613   2.812
 5668TIP3   OH216948   2.510   1.515   0.540
 5668TIP3    H116949   2.535   1.501   0.448
 5668TIP3    H216950   2.430   1.463   0.551
 5669TIP3   OH216951   8.131   2.297   0.878
 5669TIP3    H116952   8.048   2.305   0.926
 5669TIP3    H216953   8.170   2.384   0.884
 5670TIP3   OH216954   4.661   2.017   3.008
 5670TIP3    H116955   4.638   2.076   2.936
 5670TIP3    H216956   4.709   2.073   3.070
 5671TIP3   OH216957   8.095   7.446   5.203
 5671TIP3    H116958   8.172   7.418   5.253
 5671TIP3    H216959   8.040   7.491   5.268
 5672TIP3   OH216960   3.796   7.002   5.329
 5672TIP3    H116961   3.836   6.948   5.397
 5672TIP3    H216962   3.810   6.954   5.248
 5673TIP3   OH216963   0.084   4.904   4.825
 5673TIP3    H116964   0.064   4.853   4.746
 5673TIP3    H216965   0.067   4.844   4.897
 5674TIP3   OH216966   6.005   2.697   1.813
 5674TIP3    H116967   6.000   2.603   1.830
 5674TIP3    H216968   6.001   2.704   1.717
 5675TIP3   OH216969   5.053   1.437   3.762
 5675TIP3    H116970   4.992   1.463   3.693
 5675TIP3    H216971   5.140   1.456   3.725
 5676TIP3   OH216972   3.738   0.321   3.861
 5676TIP3    H116973   3.697   0.318   3.947
 5676TIP3    H216974   3.801   0.393   3.866
 5677TIP3   OH216975   7.917   2.857   2.807
 5677TIP3    H116976   7.924   2.763   2.825
 5677TIP3    H216977   7.991   2.895   2.854
 5678TIP3   OH216978   5.922   4.336   1.585
 5678TIP3    H116979   6.014   4.311   1.583
 5678TIP3    H216980   5.916   4.401   1.655
 5679TIP3   OH216981   6.218   1.279   4.450
 5679TIP3    H116982   6.177   1.331   4.382
 5679TIP3    H216983   6.175   1.306   4.531
 5680TIP3   OH216984   5.413   4.731   2.220
 5680TIP3    H116985   5.488   4.676   2.240
 5680TIP3    H216986   5.340   4.670   2.211
 5681TIP3   OH216987   4.562   6.956   1.694
 5681TIP3    H116988   4.574   6.979   1.602
 5681TIP3    H216989   4.649   6.925   1.721
 5682TIP3   OH216990   5.939   7.222   0.950
 5682TIP3    H116991   6.033   7.209   0.938
 5682TIP3    H216992   5.924   7.312   0.921
 5683TIP3   OH216993   2.581   3.170   4.564
 5683TIP3    H116994   2.668   3.164   4.526
 5683TIP3    H216995   2.587   3.120   4.646
 5684TIP3   OH216996   7.387   3.158   2.835
 5684TIP3    H116997   7.339   3.228   2.790
 5684TIP3    H216998   7.383   3.083   2.775
 5685TIP3   OH216999   6.724   6.933   3.241
 5685TIP3    H117000   6.679   6.858   3.281
 5685TIP3    H217001   6.706   7.006   3.299
 5686TIP3   OH217002   2.241   4.132   1.234
 5686TIP3    H117003   2.323   4.086   1.250
 5686TIP3    H217004   2.256   4.220   1.268
 5687TIP3   OH217005   7.508   1.862   5.989
 5687TIP3    H117006   7.526   1.769   5.982
 5687TIP3    H217007   7.594   1.903   5.993
 5688TIP3   OH217008   6.655   3.179   5.421
 5688TIP3    H117009   6.627   3.266   5.451
 5688TIP3    H217010   6.605   3.118   5.475
 5689TIP3   OH217011   0.431   4.580   2.707
 5689TIP3    H117012   0.460   4.550   2.621
 5689TIP3    H217013   0.384   4.661   2.690
 5690TIP3   OH217014   3.957   0.131   5.688
 5690TIP3    H117015   4.012   0.175   5.754
 5690TIP3    H217016   3.925   0.203   5.633
 5691TIP3   OH217017   5.305   2.083   6.141
 5691TIP3    H117018   5.217   2.046   6.138
 5691TIP3    H217019   5.334   2.067   6.231
 5692TIP3   OH217020   4.407   1.053   3.416
 5692TIP3    H117021   4.368   1.107   3.348
 5692TIP3    H217022   4.453   0.984   3.368
 5693TIP3   OH217023   5.918   6.358   2.840
 5693TIP3    H117024   5.881   6.270   2.842
 5693TIP3    H217025   5.871   6.403   2.770
 5694TIP3   OH217026   6.355   0.878   0.593
 5694TIP3    H117027   6.345   0.934   0.516
 5694TIP3    H217028   6.287   0.812   0.583
 5695TIP3   OH217029   7.480   6.960   5.238
 5695TIP3    H117030   7.477   7.053   5.261
 5695TIP3    H217031   7.487   6.915   5.322
 5696TIP3   OH217032   6.571   6.767   2.061
 5696TIP3    H117033   6.594   6.772   1.968
 5696TIP3    H217034   6.586   6.676   2.085
 5697TIP3   OH217035   5.526   5.514   6.296
 5697TIP3    H117036   5.511   5.429   6.255
 5697TIP3    H217037   5.547   5.572   6.224
 5698TIP3   OH217038   0.370   6.475   2.549
 5698TIP3    H117039   0.344   6.567   2.544
 5698TIP3    H217040   0.295   6.431   2.587
 5699TIP3   OH217041   7.510   4.408   4.507
 5699TIP3    H117042   7.590   4.357   4.494
 5699TIP3    H217043   7.491   4.400   4.600
 5700TIP3   OH217044   6.898   4.740   1.987
 5700TIP3    H117045   6.858   4.819   1.952
 5700TIP3    H217046   6.932   4.767   2.073
 5701TIP3   OH217047   8.119   0.959   0.148
 5701TIP3    H117048   8.169   0.877   0.149
 5701TIP3    H217049   8.106   0.977   0.055
 5702TIP3   OH217050   6.755   4.503   2.243
 5702TIP3    H117051   6.751   4.425   2.297
 5702TIP3    H217052   6.757   4.470   2.153
 5703TIP3   OH217053   6.081   6.759   1.900
 5703TIP3    H117054   6.138   6.746   1.824
 5703TIP3    H217055   6.118   6.837   1.943
 5704TIP3   OH217056   0.723   7.017   1.144
 5704TIP3    H117057   0.784   6.985   1.210
 5704TIP3    H217058   0.678   6.938   1.114
 5705TIP3   OH217059   3.433   6.578   1.525
 5705TIP3    H117060   3.435   6.532   1.609
 5705TIP3    H217061   3.481   6.659   1.541
 5706TIP3   OH217062   6.079   3.240   2.889
 5706TIP3    H117063   6.071   3.200   2.803
 5706TIP3    H217064   6.126   3.175   2.941
 5707TIP3   OH217065   8.187   6.253   5.179
 5707TIP3    H117066   8.202   6.274   5.272
 5707TIP3    H217067   8.109   6.304   5.156
 5708TIP3   OH217068   2.659   6.426   3.173
 5708TIP3    H117069   2.647   6.348   3.120
 5708TIP3    H217070   2.713   6.396   3.247
 5709TIP3   OH217071   6.112   4.393   0.614
 5709TIP3    H117072   6.172   4.321   0.633
 5709TIP3    H217073   6.160   4.448   0.552
 5710TIP3   OH217074   0.944   4.440   3.194
 5710TIP3    H117075   0.961   4.370   3.257
 5710TIP3    H217076   1.028   4.456   3.152
 5711TIP3   OH217077   6.559   3.890   5.168
 5711TIP3    H117078   6.490   3.955   5.182
 5711TIP3    H217079   6.554   3.871   5.074
 5712TIP3   OH217080   7.376   0.844   5.958
 5712TIP3    H117081   7.406   0.930   5.929
 5712TIP3    H217082   7.345   0.801   5.878
 5713TIP3   OH217083   4.311   6.689   5.871
 5713TIP3    H117084   4.302   6.758   5.937
 5713TIP3    H217085   4.287   6.608   5.916
 5714TIP3   OH217086   4.067   6.808   6.651
 5714TIP3    H117087   4.073   6.756   6.731
 5714TIP3    H217088   4.152   6.851   6.644
 5715TIP3   OH217089   5.466   3.102   0.292
 5715TIP3    H117090   5.550   3.063   0.269
 5715TIP3    H217091   5.428   3.042   0.356
 5716TIP3   OH217092   5.673   7.451   2.955
 5716TIP3    H117093   5.768   7.463   2.945
 5716TIP3    H217094   5.642   7.434   2.866
 5717TIP3   OH217095   8.191   3.761   4.467
 5717TIP3    H117096   8.285   3.758   4.452
 5717TIP3    H217097   8.167   3.672   4.491
 5718TIP3   OH217098   4.521   6.633   4.883
 5718TIP3    H117099   4.582   6.563   4.905
 5718TIP3    H217100   4.495   6.670   4.968
 5719TIP3   OH217101   2.126   1.262   1.542
 5719TIP3    H117102   2.220   1.272   1.553
 5719TIP3    H217103   2.106   1.311   1.462
 5720TIP3   OH217104   1.865   2.077   2.189
 5720TIP3    H117105   1.864   2.005   2.126
 5720TIP3    H217106   1.917   2.146   2.147
 5721TIP3   OH217107   4.145   7.112   5.582
 5721TIP3    H117108   4.083   7.142   5.515
 5721TIP3    H217109   4.142   7.017   5.576
 5722TIP3   OH217110   5.758   1.933   6.323
 5722TIP3    H117111   5.827   1.918   6.387
 5722TIP3    H217112   5.678   1.937   6.376
 5723TIP3   OH217113   5.355   1.228   4.558
 5723TIP3    H117114   5.398   1.143   4.569
 5723TIP3    H217115   5.313   1.223   4.472
 5724TIP3   OH217116   7.259   6.423   0.348
 5724TIP3    H117117   7.329   6.385   0.294
 5724TIP3    H217118   7.300   6.497   0.392
 5725TIP3   OH217119   5.594   0.488   2.059
 5725TIP3    H117120   5.612   0.435   2.137
 5725TIP3    H217121   5.551   0.567   2.093
 5726TIP3   OH217122   0.807   1.142   2.382
 5726TIP3    H117123   0.739   1.154   2.315
 5726TIP3    H217124   0.887   1.176   2.341
 5727TIP3   OH217125   3.398   5.339   3.021
 5727TIP3    H117126   3.387   5.399   2.947
 5727TIP3    H217127   3.484   5.360   3.056
 5728TIP3   OH217128   4.144   0.408   2.795
 5728TIP3    H117129   4.055   0.443   2.788
 5728TIP3    H217130   4.157   0.396   2.889
 5729TIP3   OH217131   4.736   1.250   0.824
 5729TIP3    H117132   4.797   1.216   0.889
 5729TIP3    H217133   4.753   1.199   0.745
 5730TIP3   OH217134   0.438   5.398   4.154
 5730TIP3    H117135   0.403   5.384   4.066
 5730TIP3    H217136   0.520   5.348   4.154
 5731TIP3   OH217137   2.624   3.841   2.673
 5731TIP3    H117138   2.646   3.918   2.621
 5731TIP3    H217139   2.690   3.840   2.743
 5732TIP3   OH217140   6.794   7.491   1.508
 5732TIP3    H117141   6.811   7.414   1.562
 5732TIP3    H217142   6.823   7.466   1.420
 5733TIP3   OH217143   0.363   3.785   1.057
 5733TIP3    H117144   0.278   3.817   1.087
 5733TIP3    H217145   0.395   3.853   0.997
 5734TIP3   OH217146   6.695   1.181   5.127
 5734TIP3    H117147   6.738   1.141   5.051
 5734TIP3    H217148   6.648   1.256   5.092
 5735TIP3   OH217149   3.969   7.105   3.878
 5735TIP3    H117150   4.025   7.182   3.865
 5735TIP3    H217151   3.880   7.137   3.863
 5736TIP3   OH217152   4.010   1.902   2.878
 5736TIP3    H117153   4.030   1.957   2.954
 5736TIP3    H217154   3.916   1.887   2.884
 5737TIP3   OH217155   1.578   3.483   3.475
 5737TIP3    H117156   1.499   3.513   3.431
 5737TIP3    H217157   1.638   3.462   3.403
 5738TIP3   OH217158   1.103   7.257   0.866
 5738TIP3    H117159   1.108   7.310   0.945
 5738TIP3    H217160   1.100   7.166   0.897
 5739TIP3   OH217161   3.187   3.693   6.744
 5739TIP3    H117162   3.104   3.671   6.786
 5739TIP3    H217163   3.163   3.722   6.656
 5740TIP3   OH217164   1.020   3.695   0.972
 5740TIP3    H117165   0.998   3.606   0.998
 5740TIP3    H217166   1.004   3.748   1.050
 5741TIP3   OH217167   0.476   1.183   1.801
 5741TIP3    H117168   0.398   1.149   1.845
 5741TIP3    H217169   0.470   1.148   1.712
 5742TIP3   OH217170   5.853   2.722   5.197
 5742TIP3    H117171   5.785   2.662   5.167
 5742TIP3    H217172   5.901   2.673   5.263
 5743TIP3   OH217173   1.708   6.927   1.287
 5743TIP3    H117174   1.798   6.930   1.319
 5743TIP3    H217175   1.683   6.834   1.294
 5744TIP3   OH217176   2.150   5.715   0.573
 5744TIP3    H117177   2.096   5.655   0.625
 5744TIP3    H217178   2.092   5.743   0.502
 5745TIP3   OH217179   6.037   2.170   1.605
 5745TIP3    H117180   6.121   2.206   1.577
 5745TIP3    H217181   5.978   2.245   1.608
 5746TIP3   OH217182   4.851   6.681   2.535
 5746TIP3    H117183   4.798   6.603   2.519
 5746TIP3    H217184   4.832   6.704   2.626
 5747TIP3   OH217185   2.957   0.993   1.996
 5747TIP3    H117186   3.052   1.003   1.996
 5747TIP3    H217187   2.941   0.920   2.056
 5748TIP3   OH217188   2.074   3.148   5.343
 5748TIP3    H117189   2.050   3.066   5.385
 5748TIP3    H217190   2.164   3.135   5.313
 5749TIP3   OH217191   6.145   2.136   0.657
 5749TIP3    H117192   6.229   2.138   0.611
 5749TIP3    H217193   6.083   2.172   0.595
 5750TIP3   OH217194   6.482   2.279   0.285
 5750TIP3    H117195   6.410   2.341   0.295
 5750TIP3    H217196   6.531   2.286   0.366
 5751TIP3   OH217197   3.880   3.224   1.367
 5751TIP3    H117198   3.866   3.132   1.342
 5751TIP3    H217199   3.880   3.223   1.463
 5752TIP3   OH217200   6.795   5.535   3.558
 5752TIP3    H117201   6.880   5.575   3.541
 5752TIP3    H217202   6.804   5.496   3.645
 5753TIP3   OH217203   4.929   0.360   6.468
 5753TIP3    H117204   4.971   0.333   6.550
 5753TIP3    H217205   4.847   0.312   6.467
 5754TIP3   OH217206   7.771   4.465   1.361
 5754TIP3    H117207   7.837   4.435   1.298
 5754TIP3    H217208   7.712   4.391   1.371
 5755TIP3   OH217209   2.944   0.519   2.051
 5755TIP3    H117210   2.891   0.460   2.105
 5755TIP3    H217211   2.917   0.499   1.961
 5756TIP3   OH217212   1.330   6.332   0.137
 5756TIP3    H117213   1.278   6.251   0.130
 5756TIP3    H217214   1.280   6.397   0.087
 5757TIP3   OH217215   4.786   3.940   6.133
 5757TIP3    H117216   4.766   3.881   6.205
 5757TIP3    H217217   4.832   4.013   6.174
 5758TIP3   OH217218   5.138   6.864   1.617
 5758TIP3    H117219   5.085   6.785   1.601
 5758TIP3    H217220   5.225   6.831   1.637
 5759TIP3   OH217221   2.936   4.365   0.162
 5759TIP3    H117222   3.020   4.341   0.199
 5759TIP3    H217223   2.871   4.333   0.225
 5760TIP3   OH217224   5.285   6.935   3.587
 5760TIP3    H117225   5.229   6.966   3.658
 5760TIP3    H217226   5.340   7.011   3.565
 5761TIP3   OH217227   2.799   0.728   0.776
 5761TIP3    H117228   2.812   0.821   0.793
 5761TIP3    H217229   2.881   0.687   0.802
 5762TIP3   OH217230   3.562   7.338   4.728
 5762TIP3    H117231   3.509   7.370   4.802
 5762TIP3    H217232   3.629   7.406   4.716
 5763TIP3   OH217233   2.536   3.610   5.652
 5763TIP3    H117234   2.500   3.647   5.571
 5763TIP3    H217235   2.609   3.555   5.623
 5764TIP3   OH217236   5.417   7.631   6.113
 5764TIP3    H117237   5.483   7.583   6.063
 5764TIP3    H217238   5.334   7.592   6.086
 5765TIP3   OH217239   3.138   0.882   6.313
 5765TIP3    H117240   3.141   0.938   6.391
 5765TIP3    H217241   3.226   0.844   6.307
 5766TIP3   OH217242   6.480   2.470   5.847
 5766TIP3    H117243   6.546   2.502   5.786
 5766TIP3    H217244   6.482   2.375   5.837
 5767TIP3   OH217245   0.957   1.549   2.119
 5767TIP3    H117246   0.928   1.634   2.151
 5767TIP3    H217247   0.990   1.567   2.031
 5768TIP3   OH217248   1.339   1.368   6.154
 5768TIP3    H117249   1.334   1.294   6.214
 5768TIP3    H217250   1.333   1.446   6.210
 5769TIP3   OH217251   0.260   0.007   6.051
 5769TIP3    H117252   0.170   0.008   6.020
 5769TIP3    H217253   0.298   0.088   6.019
 5770TIP3   OH217254   6.931   6.800   4.967
 5770TIP3    H117255   6.944   6.874   5.025
 5770TIP3    H217256   6.893   6.732   5.022
 5771TIP3   OH217257   2.399   3.806   2.174
 5771TIP3    H117258   2.398   3.825   2.267
 5771TIP3    H217259   2.412   3.711   2.169
 5772TIP3   OH217260   2.256   4.623   5.351
 5772TIP3    H117261   2.209   4.672   5.419
 5772TIP3    H217262   2.344   4.661   5.350
 5773TIP3   OH217263   7.329   7.132   3.888
 5773TIP3    H117264   7.277   7.072   3.834
 5773TIP3    H217265   7.267   7.201   3.912
 5774TIP3   OH217266   5.749   2.270   5.449
 5774TIP3    H117267   5.781   2.206   5.385
 5774TIP3    H217268   5.694   2.330   5.399
 5775TIP3   OH217269   2.658   0.476   4.185
 5775TIP3    H117270   2.713   0.550   4.161
 5775TIP3    H217271   2.689   0.450   4.272
 5776TIP3   OH217272   8.112   3.534   3.162
 5776TIP3    H117273   8.091   3.589   3.237
 5776TIP3    H217274   8.118   3.596   3.088
 5777TIP3   OH217275   2.268   1.616   1.571
 5777TIP3    H117276   2.291   1.567   1.493
 5777TIP3    H217277   2.333   1.590   1.637
 5778TIP3   OH217278   4.753   3.380   5.159
 5778TIP3    H117279   4.696   3.324   5.211
 5778TIP3    H217280   4.741   3.350   5.069
 5779TIP3   OH217281   0.703   6.163   6.015
 5779TIP3    H117282   0.673   6.154   6.106
 5779TIP3    H217283   0.792   6.128   6.016
 5780TIP3   OH217284   6.384   5.627   1.877
 5780TIP3    H117285   6.383   5.684   1.954
 5780TIP3    H217286   6.477   5.621   1.853
 5781TIP3   OH217287   4.802   2.764   3.219
 5781TIP3    H117288   4.733   2.803   3.273
 5781TIP3    H217289   4.876   2.754   3.279
 5782TIP3   OH217290   7.455   1.014   3.057
 5782TIP3    H117291   7.429   0.989   2.968
 5782TIP3    H217292   7.444   1.109   3.060
 5783TIP3   OH217293   2.114   2.665   2.631
 5783TIP3    H117294   2.153   2.584   2.597
 5783TIP3    H217295   2.175   2.696   2.697
 5784TIP3   OH217296   1.832   0.302   1.212
 5784TIP3    H117297   1.840   0.251   1.132
 5784TIP3    H217298   1.810   0.390   1.183
 5785TIP3   OH217299   4.077   5.651   2.213
 5785TIP3    H117300   4.170   5.650   2.232
 5785TIP3    H217301   4.036   5.679   2.295
 5786TIP3   OH217302   1.283   6.859   6.103
 5786TIP3    H117303   1.245   6.928   6.157
 5786TIP3    H217304   1.373   6.852   6.133
 5787TIP3   OH217305   6.234   5.579   3.004
 5787TIP3    H117306   6.300   5.517   3.033
 5787TIP3    H217307   6.157   5.525   2.985
 5788TIP3   OH217308   6.155   3.820   4.957
 5788TIP3    H117309   6.141   3.912   4.978
 5788TIP3    H217310   6.116   3.809   4.870
 5789TIP3   OH217311   6.061   6.569   6.530
 5789TIP3    H117312   6.103   6.539   6.449
 5789TIP3    H217313   6.039   6.660   6.512
 5790TIP3   OH217314   7.562   4.860   3.936
 5790TIP3    H117315   7.586   4.941   3.981
 5790TIP3    H217316   7.589   4.791   3.996
 5791TIP3   OH217317   2.269   3.385   5.612
 5791TIP3    H117318   2.318   3.445   5.669
 5791TIP3    H217319   2.304   3.404   5.524
 5792TIP3   OH217320   2.507   5.444   2.942
 5792TIP3    H117321   2.428   5.477   2.898
 5792TIP3    H217322   2.506   5.484   3.028
 5793TIP3   OH217323   7.866   1.415   3.895
 5793TIP3    H117324   7.826   1.347   3.949
 5793TIP3    H217325   7.873   1.376   3.808
 5794TIP3   OH217326   8.250   1.977   1.334
 5794TIP3    H117327   8.314   1.936   1.276
 5794TIP3    H217328   8.165   1.945   1.303
 5795TIP3   OH217329   5.381   4.041   6.270
 5795TIP3    H117330   5.393   4.004   6.358
 5795TIP3    H217331   5.456   4.009   6.220
 5796TIP3   OH217332   2.664   1.507   0.310
 5796TIP3    H117333   2.723   1.564   0.359
 5796TIP3    H217334   2.721   1.458   0.251
 5797TIP3   OH217335   2.358   5.740   5.534
 5797TIP3    H117336   2.285   5.798   5.510
 5797TIP3    H217337   2.405   5.725   5.453
 5798TIP3   OH217338   0.791   4.367   1.420
 5798TIP3    H117339   0.798   4.343   1.328
 5798TIP3    H217340   0.823   4.458   1.424
 5799TIP3   OH217341   0.381   3.017   3.443
 5799TIP3    H117342   0.355   3.109   3.446
 5799TIP3    H217343   0.316   2.971   3.497
 5800TIP3   OH217344   4.054   4.408   5.205
 5800TIP3    H117345   3.960   4.417   5.220
 5800TIP3    H217346   4.076   4.321   5.239
 5801TIP3   OH217347   0.080   5.668   4.540
 5801TIP3    H117348   0.052   5.595   4.484
 5801TIP3    H217349   0.046   5.646   4.627
 5802TIP3   OH217350   5.068   7.761   2.049
 5802TIP3    H117351   5.036   7.766   1.959
 5802TIP3    H217352   5.107   7.673   2.055
 5803TIP3   OH217353   1.266   0.328   6.236
 5803TIP3    H117354   1.232   0.289   6.316
 5803TIP3    H217355   1.189   0.359   6.189
 5804TIP3   OH217356   3.738   3.225   4.649
 5804TIP3    H117357   3.756   3.318   4.661
 5804TIP3    H217358   3.820   3.181   4.669
 5805TIP3   OH217359   1.425   1.579   2.188
 5805TIP3    H117360   1.506   1.614   2.152
 5805TIP3    H217361   1.359   1.645   2.168
 5806TIP3   OH217362   4.150   5.497   2.709
 5806TIP3    H117363   4.208   5.436   2.753
 5806TIP3    H217364   4.130   5.456   2.625
 5807TIP3   OH217365   3.652   1.688   1.165
 5807TIP3    H117366   3.707   1.618   1.130
 5807TIP3    H217367   3.707   1.732   1.230
 5808TIP3   OH217368   1.754   7.509   4.047
 5808TIP3    H117369   1.767   7.565   4.124
 5808TIP3    H217370   1.837   7.462   4.038
 5809TIP3   OH217371   0.815   0.959   4.007
 5809TIP3    H117372   0.881   0.960   4.076
 5809TIP3    H217373   0.769   1.043   4.016
 5810TIP3   OH217374   4.317   5.864   1.814
 5810TIP3    H117375   4.257   5.820   1.754
 5810TIP3    H217376   4.265   5.877   1.894
 5811TIP3   OH217377   0.188   0.714  -0.030
 5811TIP3    H117378   0.243   0.792  -0.031
 5811TIP3    H217379   0.251   0.641  -0.026
 5812TIP3   OH217380   0.499   1.866   1.107
 5812TIP3    H117381   0.471   1.953   1.080
 5812TIP3    H217382   0.567   1.841   1.044
 5813TIP3   OH217383   2.652   2.703   5.782
 5813TIP3    H117384   2.689   2.762   5.716
 5813TIP3    H217385   2.573   2.668   5.741
 5814TIP3   OH217386   1.752   7.044   0.391
 5814TIP3    H117387   1.759   7.138   0.374
 5814TIP3    H217388   1.686   7.013   0.330
 5815TIP3   OH217389   5.355   5.371   4.952
 5815TIP3    H117390   5.416   5.435   4.913
 5815TIP3    H217391   5.318   5.326   4.876
 5816TIP3   OH217392   1.393   5.856   6.710
 5816TIP3    H117393   1.324   5.887   6.768
 5816TIP3    H217394   1.399   5.762   6.729
 5817TIP3   OH217395   1.462   6.737   0.419
 5817TIP3    H117396   1.375   6.774   0.436
 5817TIP3    H217397   1.452   6.687   0.338
 5818TIP3   OH217398   5.813   2.034   4.974
 5818TIP3    H117399   5.772   2.113   4.938
 5818TIP3    H217400   5.743   1.991   5.023
 5819TIP3   OH217401   5.297   6.624   0.785
 5819TIP3    H117402   5.293   6.706   0.736
 5819TIP3    H217403   5.387   6.593   0.773
 5820TIP3   OH217404   7.573   7.544   2.579
 5820TIP3    H117405   7.498   7.593   2.614
 5820TIP3    H217406   7.642   7.555   2.644
 5821TIP3   OH217407   3.372   2.452   0.202
 5821TIP3    H117408   3.309   2.503   0.150
 5821TIP3    H217409   3.429   2.518   0.241
 5822TIP3   OH217410   5.994   4.670   6.018
 5822TIP3    H117411   6.058   4.694   6.085
 5822TIP3    H217412   6.021   4.584   5.988
 5823TIP3   OH217413   2.442   1.432   6.652
 5823TIP3    H117414   2.367   1.489   6.661
 5823TIP3    H217415   2.454   1.394   6.739
 5824TIP3   OH217416   3.816   1.289   6.500
 5824TIP3    H117417   3.722   1.296   6.487
 5824TIP3    H217418   3.854   1.343   6.431
 5825TIP3   OH217419   4.575   0.541   1.768
 5825TIP3    H117420   4.484   0.562   1.744
 5825TIP3    H217421   4.577   0.446   1.773
 5826TIP3   OH217422   1.860   3.850   4.052
 5826TIP3    H117423   1.794   3.832   4.119
 5826TIP3    H217424   1.815   3.906   3.989
 5827TIP3   OH217425   0.737   6.003   2.365
 5827TIP3    H117426   0.717   5.950   2.288
 5827TIP3    H217427   0.801   6.067   2.335
 5828TIP3   OH217428   1.657   2.750   0.965
 5828TIP3    H117429   1.744   2.736   1.003
 5828TIP3    H217430   1.610   2.668   0.981
 5829TIP3   OH217431   4.653   5.718   1.535
 5829TIP3    H117432   4.570   5.765   1.545
 5829TIP3    H217433   4.717   5.773   1.580
 5830TIP3   OH217434   7.215   7.580   0.728
 5830TIP3    H117435   7.234   7.631   0.649
 5830TIP3    H217436   7.251   7.632   0.799
 5831TIP3   OH217437   1.663   1.726   2.404
 5831TIP3    H117438   1.758   1.734   2.407
 5831TIP3    H217439   1.631   1.816   2.411
 5832TIP3   OH217440   4.757   6.335   0.809
 5832TIP3    H117441   4.706   6.330   0.889
 5832TIP3    H217442   4.724   6.412   0.763
 5833TIP3   OH217443   3.401   1.359   5.383
 5833TIP3    H117444   3.347   1.426   5.341
 5833TIP3    H217445   3.338   1.293   5.411
 5834TIP3   OH217446   0.577   5.016   3.935
 5834TIP3    H117447   0.574   5.112   3.929
 5834TIP3    H217448   0.646   4.991   3.873
 5835TIP3   OH217449   2.561   2.283   5.242
 5835TIP3    H117450   2.595   2.196   5.223
 5835TIP3    H217451   2.639   2.335   5.264
 5836TIP3   OH217452   6.313   1.872   5.011
 5836TIP3    H117453   6.219   1.876   4.995
 5836TIP3    H217454   6.321   1.823   5.093
 5837TIP3   OH217455   4.784   3.906   4.684
 5837TIP3    H117456   4.747   3.896   4.596
 5837TIP3    H217457   4.820   3.820   4.705
 5838TIP3   OH217458   5.480   1.592   0.822
 5838TIP3    H117459   5.500   1.672   0.774
 5838TIP3    H217460   5.464   1.526   0.754
 5839TIP3   OH217461   5.236   7.469   5.292
 5839TIP3    H117462   5.278   7.421   5.220
 5839TIP3    H217463   5.308   7.510   5.339
 5840TIP3   OH217464   6.836   5.391   5.120
 5840TIP3    H117465   6.823   5.301   5.090
 5840TIP3    H217466   6.804   5.390   5.211
 5841TIP3   OH217467   3.222   3.235   1.762
 5841TIP3    H117468   3.166   3.208   1.689
 5841TIP3    H217469   3.169   3.223   1.840
 5842TIP3   OH217470   6.971   5.558   5.723
 5842TIP3    H117471   6.887   5.603   5.721
 5842TIP3    H217472   6.983   5.526   5.633
 5843TIP3   OH217473   6.624   4.688   3.562
 5843TIP3    H117474   6.705   4.718   3.519
 5843TIP3    H217475   6.556   4.748   3.528
 5844TIP3   OH217476   2.772   4.989   0.056
 5844TIP3    H117477   2.745   5.002  -0.035
 5844TIP3    H217478   2.725   4.911   0.084
 5845TIP3   OH217479   0.463   5.421   1.892
 5845TIP3    H117480   0.429   5.337   1.925
 5845TIP3    H217481   0.386   5.466   1.857
 5846TIP3   OH217482   5.251   3.877   4.086
 5846TIP3    H117483   5.321   3.903   4.025
 5846TIP3    H217484   5.191   3.826   4.032
 5847TIP3   OH217485   6.249   5.321   1.463
 5847TIP3    H117486   6.260   5.252   1.398
 5847TIP3    H217487   6.160   5.309   1.496
 5848TIP3   OH217488   1.458   7.704   1.715
 5848TIP3    H117489   1.466   7.612   1.742
 5848TIP3    H217490   1.378   7.735   1.756
 5849TIP3   OH217491   5.765   0.021   4.845
 5849TIP3    H117492   5.829   0.087   4.873
 5849TIP3    H217493   5.730   0.055   4.763
 5850TIP3   OH217494   3.414   5.223   3.826
 5850TIP3    H117495   3.362   5.272   3.891
 5850TIP3    H217496   3.478   5.287   3.794
 5851TIP3   OH217497   6.817   4.422   4.727
 5851TIP3    H117498   6.900   4.458   4.757
 5851TIP3    H217499   6.823   4.424   4.631
 5852TIP3   OH217500   7.036   5.874   6.084
 5852TIP3    H117501   7.082   5.958   6.080
 5852TIP3    H217502   7.015   5.854   5.992
 5853TIP3   OH217503   4.159   4.059   3.069
 5853TIP3    H117504   4.093   4.003   3.112
 5853TIP3    H217505   4.127   4.068   2.979
 5854TIP3   OH217506   4.847   5.583   0.059
 5854TIP3    H117507   4.777   5.522   0.083
 5854TIP3    H217508   4.814   5.669   0.085
 5855TIP3   OH217509   5.238   2.836   6.563
 5855TIP3    H117510   5.322   2.877   6.584
 5855TIP3    H217511   5.207   2.882   6.486
 5856TIP3   OH217512   1.533   3.993   5.429
 5856TIP3    H117513   1.583   3.929   5.378
 5856TIP3    H217514   1.505   4.058   5.364
 5857TIP3   OH217515   2.802   5.858   1.070
 5857TIP3    H117516   2.814   5.929   1.006
 5857TIP3    H217517   2.868   5.793   1.046
 5858TIP3   OH217518   3.412   4.010   1.394
 5858TIP3    H117519   3.326   4.040   1.364
 5858TIP3    H217520   3.392   3.947   1.463
 5859TIP3   OH217521   3.619   6.713   5.243
 5859TIP3    H117522   3.546   6.769   5.216
 5859TIP3    H217523   3.690   6.736   5.183
 5860TIP3   OH217524   5.673   3.468   6.307
 5860TIP3    H117525   5.607   3.502   6.368
 5860TIP3    H217526   5.744   3.532   6.310
 5861TIP3   OH217527   4.881   6.565   2.797
 5861TIP3    H117528   4.956   6.604   2.842
 5861TIP3    H217529   4.916   6.488   2.754
 5862TIP3   OH217530   7.564   1.001   1.346
 5862TIP3    H117531   7.638   0.950   1.313
 5862TIP3    H217532   7.574   1.087   1.305
 5863TIP3   OH217533   1.786   5.041   3.248
 5863TIP3    H117534   1.754   4.951   3.258
 5863TIP3    H217535   1.752   5.070   3.164
 5864TIP3   OH217536   1.933   7.511   0.574
 5864TIP3    H117537   1.845   7.539   0.548
 5864TIP3    H217538   1.990   7.546   0.506
 5865TIP3   OH217539   3.978   3.160   5.623
 5865TIP3    H117540   3.911   3.226   5.609
 5865TIP3    H217541   3.998   3.167   5.717
 5866TIP3   OH217542   7.432   1.097   0.015
 5866TIP3    H117543   7.518   1.087   0.057
 5866TIP3    H217544   7.445   1.167  -0.049
 5867TIP3   OH217545   0.106   1.747   5.503
 5867TIP3    H117546   0.025   1.717   5.461
 5867TIP3    H217547   0.109   1.698   5.586
 5868TIP3   OH217548   5.081   0.199   3.560
 5868TIP3    H117549   5.120   0.286   3.557
 5868TIP3    H217550   5.011   0.202   3.495
 5869TIP3   OH217551   2.494   4.716   2.403
 5869TIP3    H117552   2.399   4.716   2.395
 5869TIP3    H217553   2.522   4.634   2.363
 5870TIP3   OH217554   8.029   2.986   5.237
 5870TIP3    H117555   7.945   3.013   5.274
 5870TIP3    H217556   8.008   2.957   5.148
 5871TIP3   OH217557   4.790   0.066   4.042
 5871TIP3    H117558   4.705   0.035   4.009
 5871TIP3    H217559   4.780   0.065   4.138
 5872TIP3   OH217560   2.581   6.262   4.458
 5872TIP3    H117561   2.581   6.229   4.368
 5872TIP3    H217562   2.559   6.355   4.449
 5873TIP3   OH217563   3.002   2.323   3.622
 5873TIP3    H117564   3.089   2.295   3.594
 5873TIP3    H217565   2.942   2.286   3.557
 5874TIP3   OH217566   0.105   3.449   1.980
 5874TIP3    H117567   0.101   3.477   2.072
 5874TIP3    H217568   0.191   3.478   1.950
 5875TIP3   OH217569   1.033   7.605   5.451
 5875TIP3    H117570   1.053   7.594   5.358
 5875TIP3    H217571   1.110   7.648   5.488
 5876TIP3   OH217572   2.654   4.936   2.375
 5876TIP3    H117573   2.589   4.869   2.396
 5876TIP3    H217574   2.608   5.019   2.387
 5877TIP3   OH217575   5.890   1.958   4.662
 5877TIP3    H117576   5.961   1.994   4.716
 5877TIP3    H217577   5.834   2.033   4.642
 5878TIP3   OH217578   7.247   1.985   0.631
 5878TIP3    H117579   7.174   1.928   0.656
 5878TIP3    H217580   7.220   2.072   0.658
 5879TIP3   OH217581   5.573   7.073   6.762
 5879TIP3    H117582   5.635   7.097   6.693
 5879TIP3    H217583   5.523   7.154   6.778
 5880TIP3   OH217584   7.929   7.418   0.879
 5880TIP3    H117585   7.931   7.513   0.868
 5880TIP3    H217586   8.005   7.386   0.829
 5881TIP3   OH217587   4.507   3.036   0.179
 5881TIP3    H117588   4.573   2.998   0.120
 5881TIP3    H217589   4.432   3.054   0.122
 5882TIP3   OH217590   0.898   1.788   2.611
 5882TIP3    H117591   0.968   1.795   2.676
 5882TIP3    H217592   0.943   1.768   2.529
 5883TIP3   OH217593   4.009   6.742   1.797
 5883TIP3    H117594   4.022   6.647   1.805
 5883TIP3    H217595   3.935   6.751   1.737
 5884TIP3   OH217596   5.231   3.362   2.559
 5884TIP3    H117597   5.296   3.309   2.606
 5884TIP3    H217598   5.148   3.316   2.574
 5885TIP3   OH217599   7.380   1.005   5.005
 5885TIP3    H117600   7.306   0.973   4.954
 5885TIP3    H217601   7.342   1.060   5.073
 5886TIP3   OH217602   1.992   6.320   1.021
 5886TIP3    H117603   1.966   6.299   1.111
 5886TIP3    H217604   2.026   6.409   1.026
 5887TIP3   OH217605   7.766   3.200   2.213
 5887TIP3    H117606   7.675   3.229   2.208
 5887TIP3    H217607   7.765   3.110   2.179
 5888TIP3   OH217608   6.329   3.131   3.830
 5888TIP3    H117609   6.361   3.093   3.912
 5888TIP3    H217610   6.253   3.078   3.807
 5889TIP3   OH217611   1.994   3.592   4.440
 5889TIP3    H117612   2.082   3.596   4.478
 5889TIP3    H217613   1.939   3.559   4.511
 5890TIP3   OH217614   1.761   7.740   5.241
 5890TIP3    H117615   1.846   7.712   5.275
 5890TIP3    H217616   1.697   7.695   5.296
 5891TIP3   OH217617   2.584   4.945   5.737
 5891TIP3    H117618   2.566   4.902   5.653
 5891TIP3    H217619   2.594   4.873   5.799
 5892TIP3   OH217620   1.041   1.799   0.657
 5892TIP3    H117621   0.953   1.835   0.646
 5892TIP3    H217622   1.099   1.873   0.642
 5893TIP3   OH217623   8.017   1.919   1.626
 5893TIP3    H117624   8.098   1.871   1.609
 5893TIP3    H217625   7.952   1.850   1.643
 5894TIP3   OH217626   3.678   3.777   6.727
 5894TIP3    H117627   3.598   3.827   6.743
 5894TIP3    H217628   3.677   3.760   6.633
 5895TIP3   OH217629   5.461   3.001   6.579
 5895TIP3    H117630   5.483   3.012   6.671
 5895TIP3    H217631   5.538   2.959   6.541
 5896TIP3   OH217632   6.210   6.593   5.454
 5896TIP3    H117633   6.303   6.608   5.439
 5896TIP3    H217634   6.202   6.582   5.549
 5897TIP3   OH217635   6.436   6.709   1.511
 5897TIP3    H117636   6.358   6.682   1.464
 5897TIP3    H217637   6.445   6.645   1.582
 5898TIP3   OH217638   0.625   2.715   4.767
 5898TIP3    H117639   0.615   2.691   4.674
 5898TIP3    H217640   0.713   2.685   4.790
 5899TIP3   OH217641   1.795   5.786   5.829
 5899TIP3    H117642   1.700   5.778   5.834
 5899TIP3    H217643   1.828   5.719   5.889
 5900TIP3   OH217644   6.970   2.199   0.510
 5900TIP3    H117645   7.032   2.222   0.440
 5900TIP3    H217646   7.019   2.215   0.591
 5901TIP3   OH217647   4.969   3.495   6.169
 5901TIP3    H117648   5.012   3.533   6.245
 5901TIP3    H217649   4.995   3.403   6.170
 5902TIP3   OH217650   7.510   2.548   3.501
 5902TIP3    H117651   7.604   2.536   3.486
 5902TIP3    H217652   7.478   2.460   3.525
 5903TIP3   OH217653   5.332   4.993   6.008
 5903TIP3    H117654   5.278   5.029   5.938
 5903TIP3    H217655   5.295   4.906   6.024
 5904TIP3   OH217656   8.013   3.233   2.339
 5904TIP3    H117657   7.990   3.317   2.378
 5904TIP3    H217658   7.935   3.207   2.290
 5905TIP3   OH217659   0.063   0.876   5.411
 5905TIP3    H117660   0.041   0.943   5.347
 5905TIP3    H217661  -0.021   0.832   5.429
 5906TIP3   OH217662   4.468   2.112   0.540
 5906TIP3    H117663   4.447   2.194   0.496
 5906TIP3    H217664   4.542   2.134   0.597
 5907TIP3   OH217665   2.729   0.167   3.387
 5907TIP3    H117666   2.648   0.138   3.430
 5907TIP3    H217667   2.709   0.164   3.294
 5908TIP3   OH217668   3.595   1.234   3.723
 5908TIP3    H117669   3.624   1.289   3.795
 5908TIP3    H217670   3.622   1.145   3.747
 5909TIP3   OH217671   5.434   1.432   1.940
 5909TIP3    H117672   5.455   1.379   1.863
 5909TIP3    H217673   5.384   1.374   1.997
 5910TIP3   OH217674   2.974   3.092   1.851
 5910TIP3    H117675   2.964   3.010   1.900
 5910TIP3    H217676   2.915   3.083   1.776
 5911TIP3   OH217677   7.337   4.696   4.699
 5911TIP3    H117678   7.334   4.778   4.649
 5911TIP3    H217679   7.269   4.641   4.660
 5912TIP3   OH217680   7.119   3.148   4.233
 5912TIP3    H117681   7.096   3.103   4.314
 5912TIP3    H217682   7.096   3.240   4.250
 5913TIP3   OH217683   4.728   5.916   4.539
 5913TIP3    H117684   4.686   5.897   4.455
 5913TIP3    H217685   4.743   6.011   4.538
 5914TIP3   OH217686   6.596   4.155   1.029
 5914TIP3    H117687   6.652   4.111   0.965
 5914TIP3    H217688   6.651   4.164   1.107
 5915TIP3   OH217689   2.803   6.648   5.254
 5915TIP3    H117690   2.733   6.707   5.225
 5915TIP3    H217691   2.879   6.673   5.200
 5916TIP3   OH217692   2.098   6.049   3.337
 5916TIP3    H117693   2.040   6.021   3.267
 5916TIP3    H217694   2.073   5.995   3.412
 5917TIP3   OH217695   1.413   3.168   2.946
 5917TIP3    H117696   1.361   3.103   2.899
 5917TIP3    H217697   1.357   3.195   3.019
 5918TIP3   OH217698   7.709   3.231   0.773
 5918TIP3    H117699   7.738   3.279   0.695
 5918TIP3    H217700   7.682   3.145   0.739
 5919TIP3   OH217701   4.803   0.123   6.186
 5919TIP3    H117702   4.754   0.044   6.162
 5919TIP3    H217703   4.794   0.180   6.110
 5920TIP3   OH217704   4.047   2.497   2.496
 5920TIP3    H117705   4.015   2.495   2.586
 5920TIP3    H217706   4.109   2.425   2.491
 5921TIP3   OH217707   5.015   6.245   2.913
 5921TIP3    H117708   4.949   6.290   2.965
 5921TIP3    H217709   5.015   6.291   2.829
 5922TIP3   OH217710   2.795   1.272   1.749
 5922TIP3    H117711   2.830   1.297   1.663
 5922TIP3    H217712   2.868   1.287   1.809
 5923TIP3   OH217713   7.968   3.464   1.363
 5923TIP3    H117714   7.939   3.553   1.382
 5923TIP3    H217715   7.953   3.416   1.445
 5924TIP3   OH217716   7.469   2.206   4.710
 5924TIP3    H117717   7.459   2.134   4.649
 5924TIP3    H217718   7.452   2.284   4.658
 5925TIP3   OH217719   2.207   7.113   3.551
 5925TIP3    H117720   2.188   7.191   3.602
 5925TIP3    H217721   2.137   7.052   3.572
 5926TIP3   OH217722   3.070   6.686   6.022
 5926TIP3    H117723   3.163   6.686   6.042
 5926TIP3    H217724   3.043   6.594   6.033
 5927TIP3   OH217725   4.859   2.142   3.865
 5927TIP3    H117726   4.873   2.092   3.784
 5927TIP3    H217727   4.764   2.142   3.876
 5928TIP3   OH217728   1.013   6.076   0.812
 5928TIP3    H117729   1.001   6.145   0.877
 5928TIP3    H217730   1.075   6.114   0.749
 5929TIP3   OH217731   3.547   2.019   5.203
 5929TIP3    H117732   3.507   1.966   5.133
 5929TIP3    H217733   3.556   1.958   5.276
 5930TIP3   OH217734   7.521   0.428   6.164
 5930TIP3    H117735   7.545   0.511   6.124
 5930TIP3    H217736   7.535   0.363   6.095
 5931TIP3   OH217737   3.974   1.557   4.214
 5931TIP3    H117738   3.924   1.560   4.296
 5931TIP3    H217739   4.041   1.624   4.225
 5932TIP3   OH217740   5.018   7.345   2.255
 5932TIP3    H117741   4.936   7.349   2.303
 5932TIP3    H217742   5.048   7.255   2.266
 5933TIP3   OH217743   7.098   3.506   3.550
 5933TIP3    H117744   7.181   3.553   3.549
 5933TIP3    H217745   7.108   3.437   3.485
 5934TIP3   OH217746   2.925   4.066   5.919
 5934TIP3    H117747   2.929   3.974   5.944
 5934TIP3    H217748   2.835   4.093   5.940
 5935TIP3   OH217749   4.254   0.449   0.925
 5935TIP3    H117750   4.222   0.387   0.990
 5935TIP3    H217751   4.302   0.514   0.976
 5936TIP3   OH217752   4.273   0.991   2.460
 5936TIP3    H117753   4.339   1.025   2.400
 5936TIP3    H217754   4.191   0.999   2.412
 5937TIP3   OH217755   7.253   1.588   0.109
 5937TIP3    H117756   7.226   1.498   0.093
 5937TIP3    H217757   7.339   1.595   0.066
 5938TIP3   OH217758   0.637   5.531   0.971
 5938TIP3    H117759   0.706   5.499   0.912
 5938TIP3    H217760   0.578   5.580   0.914
 5939TIP3   OH217761   5.653   4.906   3.403
 5939TIP3    H117762   5.638   4.867   3.489
 5939TIP3    H217763   5.725   4.967   3.416
 5940TIP3   OH217764   3.270   4.407   2.684
 5940TIP3    H117765   3.284   4.457   2.604
 5940TIP3    H217766   3.323   4.328   2.672
 5941TIP3   OH217767   5.376   1.462   0.598
 5941TIP3    H117768   5.404   1.371   0.595
 5941TIP3    H217769   5.282   1.460   0.580
 5942TIP3   OH217770   3.261   7.808   1.885
 5942TIP3    H117771   3.222   7.746   1.823
 5942TIP3    H217772   3.198   7.879   1.892
 5943TIP3   OH217773   2.669   2.099   5.004
 5943TIP3    H117774   2.721   2.176   4.983
 5943TIP3    H217775   2.713   2.060   5.080
 5944TIP3   OH217776   0.013   4.345   1.449
 5944TIP3    H117777  -0.068   4.380   1.411
 5944TIP3    H217778   0.069   4.328   1.373
 5945TIP3   OH217779   7.263   5.946   2.120
 5945TIP3    H117780   7.230   5.860   2.146
 5945TIP3    H217781   7.254   5.948   2.025
 5946TIP3   OH217782   3.518   5.923   5.903
 5946TIP3    H117783   3.533   5.991   5.837
 5946TIP3    H217784   3.429   5.938   5.934
 5947TIP3   OH217785   4.916   3.642   4.038
 5947TIP3    H117786   4.951   3.592   3.964
 5947TIP3    H217787   4.907   3.731   4.004
 5948TIP3   OH217788   5.963   7.445   2.964
 5948TIP3    H117789   6.021   7.518   2.944
 5948TIP3    H217790   5.949   7.450   3.059
 5949TIP3   OH217791   4.771   7.447   3.704
 5949TIP3    H117792   4.811   7.528   3.736
 5949TIP3    H217793   4.761   7.460   3.610
 5950TIP3   OH217794   7.972   3.020   3.220
 5950TIP3    H117795   7.930   3.080   3.282
 5950TIP3    H217796   8.058   3.059   3.204
 5951TIP3   OH217797   7.055   4.037   0.652
 5951TIP3    H117798   7.137   4.083   0.633
 5951TIP3    H217799   7.080   3.965   0.710
 5952TIP3   OH217800   6.677   7.265   2.624
 5952TIP3    H117801   6.765   7.303   2.617
 5952TIP3    H217802   6.633   7.289   2.543
 5953TIP3   OH217803   5.950   3.332   2.303
 5953TIP3    H117804   6.004   3.259   2.274
 5953TIP3    H217805   5.908   3.300   2.384
 5954TIP3   OH217806   5.551   2.755   3.333
 5954TIP3    H117807   5.460   2.780   3.344
 5954TIP3    H217808   5.596   2.792   3.409
 5955TIP3   OH217809   7.657   0.592   1.736
 5955TIP3    H117810   7.623   0.680   1.756
 5955TIP3    H217811   7.751   0.605   1.724
 5956TIP3   OH217812   4.543   6.305   0.045
 5956TIP3    H117813   4.525   6.311  -0.049
 5956TIP3    H217814   4.613   6.370   0.059
 5957TIP3   OH217815   6.682   3.773   4.752
 5957TIP3    H117816   6.674   3.866   4.776
 5957TIP3    H217817   6.635   3.766   4.668
 5958TIP3   OH217818   7.892   5.489   1.876
 5958TIP3    H117819   7.828   5.548   1.916
 5958TIP3    H217820   7.967   5.545   1.857
 5959TIP3   OH217821   1.426   4.081   4.672
 5959TIP3    H117822   1.516   4.071   4.704
 5959TIP3    H217823   1.435   4.088   4.577
 5960TIP3   OH217824   6.619   0.325   2.502
 5960TIP3    H117825   6.656   0.238   2.523
 5960TIP3    H217826   6.564   0.310   2.426
 5961TIP3   OH217827   3.319   6.283   2.367
 5961TIP3    H117828   3.257   6.270   2.295
 5961TIP3    H217829   3.349   6.373   2.357
 5962TIP3   OH217830   5.351   2.288   3.884
 5962TIP3    H117831   5.289   2.361   3.878
 5962TIP3    H217832   5.296   2.213   3.906
 5963TIP3   OH217833   0.138   0.501   4.153
 5963TIP3    H117834   0.066   0.524   4.212
 5963TIP3    H217835   0.217   0.523   4.203
 5964TIP3   OH217836   4.837   4.311   0.254
 5964TIP3    H117837   4.870   4.224   0.279
 5964TIP3    H217838   4.879   4.371   0.316
 5965TIP3   OH217839   1.470   6.416   5.613
 5965TIP3    H117840   1.515   6.362   5.677
 5965TIP3    H217841   1.538   6.445   5.553
 5966TIP3   OH217842   0.287   4.794   2.641
 5966TIP3    H117843   0.257   4.812   2.730
 5966TIP3    H217844   0.277   4.877   2.595
 5967TIP3   OH217845   2.554   4.483   3.994
 5967TIP3    H117846   2.553   4.573   3.961
 5967TIP3    H217847   2.532   4.491   4.087
 5968TIP3   OH217848   3.942   4.273   0.771
 5968TIP3    H117849   3.856   4.235   0.756
 5968TIP3    H217850   3.937   4.360   0.731
 5969TIP3   OH217851   4.211   4.487   4.008
 5969TIP3    H117852   4.134   4.473   3.953
 5969TIP3    H217853   4.263   4.407   3.996
 5970TIP3   OH217854   6.318   2.215   1.507
 5970TIP3    H117855   6.372   2.136   1.502
 5970TIP3    H217856   6.313   2.247   1.417
 5971TIP3   OH217857   4.316   7.589   2.141
 5971TIP3    H117858   4.383   7.555   2.201
 5971TIP3    H217859   4.269   7.512   2.111
 5972TIP3   OH217860   6.547   6.898   0.338
 5972TIP3    H117861   6.466   6.898   0.389
 5972TIP3    H217862   6.599   6.827   0.376
 5973TIP3   OH217863   3.192   4.501   6.389
 5973TIP3    H117864   3.219   4.478   6.300
 5973TIP3    H217865   3.128   4.435   6.412
 5974TIP3   OH217866   0.019   6.807   2.851
 5974TIP3    H117867   0.079   6.749   2.898
 5974TIP3    H217868   0.011   6.767   2.764
 5975TIP3   OH217869   6.606   1.781   2.667
 5975TIP3    H117870   6.691   1.792   2.708
 5975TIP3    H217871   6.560   1.719   2.723
 5976TIP3   OH217872   6.016   0.420   0.158
 5976TIP3    H117873   6.072   0.497   0.155
 5976TIP3    H217874   6.034   0.373   0.077
 5977TIP3   OH217875   7.656   2.748   2.649
 5977TIP3    H117876   7.595   2.734   2.576
 5977TIP3    H217877   7.740   2.716   2.616
 5978TIP3   OH217878   0.521   4.890   0.093
 5978TIP3    H117879   0.518   4.823   0.026
 5978TIP3    H217880   0.511   4.842   0.175
 5979TIP3   OH217881   7.883   0.465   3.872
 5979TIP3    H117882   7.887   0.460   3.777
 5979TIP3    H217883   7.974   0.472   3.900
 5980TIP3   OH217884   5.563   7.808   4.856
 5980TIP3    H117885   5.475   7.794   4.892
 5980TIP3    H217886   5.590   7.723   4.823
 5981TIP3   OH217887   0.882   6.287   1.149
 5981TIP3    H117888   0.887   6.329   1.235
 5981TIP3    H217889   0.888   6.194   1.167
 5982TIP3   OH217890   3.122   0.102   6.077
 5982TIP3    H117891   3.198   0.043   6.072
 5982TIP3    H217892   3.093   0.096   6.168
 5983TIP3   OH217893   0.423   2.181   1.276
 5983TIP3    H117894   0.356   2.226   1.225
 5983TIP3    H217895   0.420   2.223   1.362
 5984TIP3   OH217896   4.297   0.816   5.505
 5984TIP3    H117897   4.389   0.789   5.504
 5984TIP3    H217898   4.253   0.751   5.560
 5985TIP3   OH217899   0.778   3.384   5.157
 5985TIP3    H117900   0.786   3.370   5.063
 5985TIP3    H217901   0.866   3.365   5.191
 5986TIP3   OH217902   1.258   0.375   2.322
 5986TIP3    H117903   1.333   0.315   2.322
 5986TIP3    H217904   1.282   0.443   2.385
 5987TIP3   OH217905   6.154   6.234   0.782
 5987TIP3    H117906   6.205   6.174   0.727
 5987TIP3    H217907   6.103   6.286   0.721
 5988TIP3   OH217908   7.916   6.288   0.625
 5988TIP3    H117909   7.990   6.230   0.611
 5988TIP3    H217910   7.839   6.234   0.607
 5989TIP3   OH217911   3.785   4.117   5.637
 5989TIP3    H117912   3.779   4.211   5.619
 5989TIP3    H217913   3.700   4.082   5.610
 5990TIP3   OH217914   4.583   4.662   1.349
 5990TIP3    H117915   4.652   4.711   1.303
 5990TIP3    H217916   4.517   4.727   1.370
 5991TIP3   OH217917   1.193   0.668   3.593
 5991TIP3    H117918   1.273   0.622   3.619
 5991TIP3    H217919   1.150   0.608   3.532
 5992TIP3   OH217920   3.313   6.707   4.970
 5992TIP3    H117921   3.265   6.786   4.945
 5992TIP3    H217922   3.273   6.681   5.053
 5993TIP3   OH217923   0.474   2.654   3.875
 5993TIP3    H117924   0.456   2.561   3.891
 5993TIP3    H217925   0.475   2.694   3.962
 5994TIP3   OH217926   2.345   2.694   0.389
 5994TIP3    H117927   2.279   2.637   0.348
 5994TIP3    H217928   2.426   2.674   0.341
 5995TIP3   OH217929   1.741   0.053   3.560
 5995TIP3    H117930   1.806   0.046   3.630
 5995TIP3    H217931   1.718   0.145   3.557
 5996TIP3   OH217932   7.228   3.021   0.844
 5996TIP3    H117933   7.269   3.097   0.887
 5996TIP3    H217934   7.268   3.018   0.757
 5997TIP3   OH217935   4.349   2.519   0.238
 5997TIP3    H117936   4.339   2.613   0.224
 5997TIP3    H217937   4.441   2.508   0.263
 5998TIP3   OH217938   2.671   5.102   0.312
 5998TIP3    H117939   2.722   5.162   0.259
 5998TIP3    H217940   2.726   5.024   0.321
 5999TIP3   OH217941   0.269   7.534   2.017
 5999TIP3    H117942   0.248   7.582   1.937
 5999TIP3    H217943   0.345   7.579   2.053
 6000TIP3   OH217944   6.468   4.398   6.699
 6000TIP3    H117945   6.543   4.344   6.678
 6000TIP3    H217946   6.458   4.390   6.794
 6001TIP3   OH217947   6.468   3.551   4.264
 6001TIP3    H117948   6.477   3.546   4.359
 6001TIP3    H217949   6.377   3.581   4.250
 6002TIP3   OH217950   4.676   1.135   1.860
 6002TIP3    H117951   4.770   1.116   1.868
 6002TIP3    H217952   4.642   1.064   1.806
 6003TIP3   OH217953   0.869   7.807   1.320
 6003TIP3    H117954   0.948   7.769   1.359
 6003TIP3    H217955   0.902   7.878   1.264
 6004TIP3   OH217956   0.113   4.480   0.557
 6004TIP3    H117957   0.090   4.560   0.509
 6004TIP3    H217958   0.057   4.482   0.635
 6005TIP3   OH217959   0.652   6.473   6.298
 6005TIP3    H117960   0.634   6.567   6.310
 6005TIP3    H217961   0.737   6.460   6.340
 6006TIP3   OH217962   2.814   2.676   6.179
 6006TIP3    H117963   2.770   2.627   6.110
 6006TIP3    H217964   2.747   2.736   6.212
 6007TIP3   OH217965   0.421   6.664   0.211
 6007TIP3    H117966   0.486   6.733   0.224
 6007TIP3    H217967   0.385   6.682   0.124
 6008TIP3   OH217968   1.341   6.470   0.606
 6008TIP3    H117969   1.297   6.396   0.648
 6008TIP3    H217970   1.270   6.532   0.587
 6009TIP3   OH217971   7.638   3.756   6.046
 6009TIP3    H117972   7.652   3.780   5.954
 6009TIP3    H217973   7.694   3.816   6.095
 6010TIP3   OH217974   3.786   4.418   5.265
 6010TIP3    H117975   3.713   4.360   5.242
 6010TIP3    H217976   3.745   4.503   5.281
 6011TIP3   OH217977   6.942   7.752   2.068
 6011TIP3    H117978   6.851   7.757   2.096
 6011TIP3    H217979   6.965   7.660   2.076
 6012TIP3   OH217980   5.921   6.440   3.481
 6012TIP3    H117981   5.856   6.370   3.484
 6012TIP3    H217982   5.957   6.436   3.393
 6013TIP3   OH217983   5.283   7.778   2.316
 6013TIP3    H117984   5.372   7.755   2.341
 6013TIP3    H217985   5.228   7.715   2.362
 6014TIP3   OH217986   0.965   5.534   1.912
 6014TIP3    H117987   0.917   5.542   1.994
 6014TIP3    H217988   0.910   5.478   1.857
 6015TIP3   OH217989   2.602   3.487   2.657
 6015TIP3    H117990   2.536   3.530   2.712
 6015TIP3    H217991   2.615   3.401   2.698
 6016TIP3   OH217992   3.813   0.343   0.689
 6016TIP3    H117993   3.818   0.248   0.679
 6016TIP3    H217994   3.722   0.364   0.667
 6017TIP3   OH217995   0.877   6.221   1.789
 6017TIP3    H117996   0.844   6.218   1.699
 6017TIP3    H217997   0.926   6.304   1.794
 6018TIP3   OH217998   0.776   2.937   6.565
 6018TIP3    H117999   0.711   2.975   6.506
 6018TIP3    H218000   0.829   3.012   6.594
 6019TIP3   OH218001   0.762   5.695   3.762
 6019TIP3    H118002   0.704   5.666   3.692
 6019TIP3    H218003   0.826   5.624   3.771
 6020TIP3   OH218004   7.457   0.578   4.868
 6020TIP3    H118005   7.529   0.589   4.929
 6020TIP3    H218006   7.493   0.526   4.796
 6021TIP3   OH218007   5.788   0.484   6.286
 6021TIP3    H118008   5.804   0.504   6.194
 6021TIP3    H218009   5.762   0.392   6.287
 6022TIP3   OH218010   1.009   1.486   2.704
 6022TIP3    H118011   1.031   1.430   2.630
 6022TIP3    H218012   0.914   1.497   2.697
 6023TIP3   OH218013   4.601   6.807   4.640
 6023TIP3    H118014   4.685   6.852   4.628
 6023TIP3    H218015   4.606   6.769   4.728
 6024TIP3   OH218016   5.378   7.213   4.352
 6024TIP3    H118017   5.425   7.291   4.322
 6024TIP3    H218018   5.435   7.175   4.419
 6025TIP3   OH218019   7.286   0.379   0.791
 6025TIP3    H118020   7.321   0.385   0.879
 6025TIP3    H218021   7.209   0.323   0.799
 6026TIP3   OH218022   6.185   3.588   4.206
 6026TIP3    H118023   6.136   3.530   4.148
 6026TIP3    H218024   6.229   3.649   4.147
 6027TIP3   OH218025   1.529   2.193   6.000
 6027TIP3    H118026   1.589   2.179   6.074
 6027TIP3    H218027   1.512   2.105   5.967
 6028TIP3   OH218028   7.577   5.833   4.003
 6028TIP3    H118029   7.646   5.842   4.069
 6028TIP3    H218030   7.616   5.869   3.923
 6029TIP3   OH218031   2.609   5.888   1.579
 6029TIP3    H118032   2.683   5.856   1.631
 6029TIP3    H218033   2.536   5.832   1.604
 6030TIP3   OH218034   3.707   4.904   3.605
 6030TIP3    H118035   3.729   4.997   3.602
 6030TIP3    H218036   3.621   4.900   3.646
 6031TIP3   OH218037   5.055   5.215   0.520
 6031TIP3    H118038   4.964   5.213   0.491
 6031TIP3    H218039   5.060   5.145   0.586
 6032TIP3   OH218040   2.285   0.145   4.664
 6032TIP3    H118041   2.350   0.089   4.622
 6032TIP3    H218042   2.270   0.216   4.601
 6033TIP3   OH218043   3.530   5.798   3.112
 6033TIP3    H118044   3.516   5.738   3.185
 6033TIP3    H218045   3.564   5.878   3.153
 6034TIP3   OH218046   4.045   3.035   4.756
 6034TIP3    H118047   4.058   3.072   4.842
 6034TIP3    H218048   4.094   2.953   4.757
 6035TIP3   OH218049   4.233   4.962   4.822
 6035TIP3    H118050   4.229   5.052   4.791
 6035TIP3    H218051   4.179   4.962   4.902
 6036TIP3   OH218052   7.347   1.492   4.336
 6036TIP3    H118053   7.295   1.504   4.415
 6036TIP3    H218054   7.427   1.543   4.352
 6037TIP3   OH218055   7.548   6.485   1.654
 6037TIP3    H118056   7.467   6.525   1.623
 6037TIP3    H218057   7.538   6.392   1.634
 6038TIP3   OH218058   4.650   6.911   5.897
 6038TIP3    H118059   4.642   6.853   5.821
 6038TIP3    H218060   4.618   6.858   5.970
 6039TIP3   OH218061   3.157   5.050   2.724
 6039TIP3    H118062   3.242   5.056   2.768
 6039TIP3    H218063   3.155   4.962   2.687
 6040TIP3   OH218064   1.066   2.918   0.528
 6040TIP3    H118065   1.104   2.896   0.443
 6040TIP3    H218066   1.086   3.011   0.540
 6041TIP3   OH218067   4.828   5.836   2.596
 6041TIP3    H118068   4.904   5.809   2.544
 6041TIP3    H218069   4.847   5.803   2.684
 6042TIP3   OH218070   7.889   1.377   0.326
 6042TIP3    H118071   7.821   1.442   0.344
 6042TIP3    H218072   7.908   1.337   0.411
 6043TIP3   OH218073   5.441   3.468   2.406
 6043TIP3    H118074   5.350   3.458   2.434
 6043TIP3    H218075   5.457   3.562   2.413
 6044TIP3   OH218076   5.546   7.552   2.661
 6044TIP3    H118077   5.457   7.588   2.662
 6044TIP3    H218078   5.543   7.482   2.597
 6045TIP3   OH218079   5.403   3.965   5.244
 6045TIP3    H118080   5.343   4.012   5.302
 6045TIP3    H218081   5.489   3.977   5.285
 6046TIP3   OH218082   2.755   6.056   1.888
 6046TIP3    H118083   2.721   5.970   1.862
 6046TIP3    H218084   2.723   6.069   1.977
 6047TIP3   OH218085   1.610   6.013   6.704
 6047TIP3    H118086   1.537   5.957   6.681
 6047TIP3    H218087   1.686   5.971   6.664
 6048TIP3   OH218088   2.587   0.856   2.750
 6048TIP3    H118089   2.552   0.859   2.840
 6048TIP3    H218090   2.548   0.932   2.707
 6049TIP3   OH218091   7.472   3.923   4.390
 6049TIP3    H118092   7.444   3.831   4.391
 6049TIP3    H218093   7.532   3.929   4.316
 6050TIP3   OH218094   1.427   4.341   1.840
 6050TIP3    H118095   1.439   4.275   1.772
 6050TIP3    H218096   1.353   4.309   1.892
 6051TIP3   OH218097   3.214   2.839   0.576
 6051TIP3    H118098   3.179   2.810   0.491
 6051TIP3    H218099   3.297   2.792   0.585
 6052TIP3   OH218100   8.087   6.608   5.369
 6052TIP3    H118101   8.039   6.676   5.322
 6052TIP3    H218102   8.093   6.640   5.459
 6053TIP3   OH218103   0.695   2.575   5.933
 6053TIP3    H118104   0.644   2.637   5.881
 6053TIP3    H218105   0.785   2.607   5.928
 6054TIP3   OH218106   1.364   2.046   5.662
 6054TIP3    H118107   1.340   1.983   5.594
 6054TIP3    H218108   1.281   2.088   5.686
 6055TIP3   OH218109   4.110   3.413   2.519
 6055TIP3    H118110   4.097   3.508   2.512
 6055TIP3    H218111   4.141   3.399   2.608
 6056TIP3   OH218112   4.010   3.073   6.329
 6056TIP3    H118113   4.038   3.065   6.420
 6056TIP3    H218114   4.026   2.986   6.292
 6057TIP3   OH218115   6.530   6.549   4.529
 6057TIP3    H118116   6.610   6.530   4.579
 6057TIP3    H218117   6.540   6.501   4.447
 6058TIP3   OH218118   7.377   5.475   0.659
 6058TIP3    H118119   7.287   5.487   0.690
 6058TIP3    H218120   7.400   5.558   0.617
 6059TIP3   OH218121   1.060   0.578   1.481
 6059TIP3    H118122   0.981   0.535   1.448
 6059TIP3    H218123   1.031   0.628   1.557
 6060TIP3   OH218124   7.366   4.214   6.311
 6060TIP3    H118125   7.332   4.188   6.397
 6060TIP3    H218126   7.307   4.171   6.248
 6061TIP3   OH218127   5.286   6.133   1.939
 6061TIP3    H118128   5.264   6.223   1.917
 6061TIP3    H218129   5.216   6.105   1.998
 6062TIP3   OH218130   6.283   1.764   5.271
 6062TIP3    H118131   6.310   1.811   5.350
 6062TIP3    H218132   6.294   1.672   5.293
 6063TIP3   OH218133   0.269   5.491   4.995
 6063TIP3    H118134   0.187   5.535   4.972
 6063TIP3    H218135   0.248   5.397   4.994
 6064TIP3   OH218136   1.305   0.367   4.452
 6064TIP3    H118137   1.252   0.356   4.531
 6064TIP3    H218138   1.252   0.421   4.394
 6065TIP3   OH218139   2.826   7.234   2.705
 6065TIP3    H118140   2.862   7.273   2.784
 6065TIP3    H218141   2.864   7.285   2.633
 6066TIP3   OH218142   3.688   3.042   1.637
 6066TIP3    H118143   3.613   3.056   1.579
 6066TIP3    H218144   3.725   3.129   1.649
 6067TIP3   OH218145   7.303   4.068   1.230
 6067TIP3    H118146   7.388   4.025   1.238
 6067TIP3    H218147   7.296   4.121   1.309
 6068TIP3   OH218148   6.922   6.997   6.457
 6068TIP3    H118149   6.839   6.986   6.503
 6068TIP3    H218150   6.924   7.089   6.431
 6069TIP3   OH218151   5.560   4.316   5.897
 6069TIP3    H118152   5.504   4.315   5.820
 6069TIP3    H218153   5.549   4.403   5.934
 6070TIP3   OH218154   7.008   6.411   0.457
 6070TIP3    H118155   6.973   6.498   0.441
 6070TIP3    H218156   7.080   6.402   0.394
 6071TIP3   OH218157   3.630   5.388   3.179
 6071TIP3    H118158   3.708   5.387   3.234
 6071TIP3    H218159   3.558   5.408   3.240
 6072TIP3   OH218160   1.854   6.547   6.477
 6072TIP3    H118161   1.810   6.630   6.495
 6072TIP3    H218162   1.941   6.558   6.515
 6073TIP3   OH218163   3.673   3.067   1.178
 6073TIP3    H118164   3.763   3.086   1.152
 6073TIP3    H218165   3.623   3.073   1.097
 6074TIP3   OH218166   7.357   7.691   3.962
 6074TIP3    H118167   7.449   7.665   3.957
 6074TIP3    H218168   7.323   7.678   3.874
 6075TIP3   OH218169   5.395   0.014   2.865
 6075TIP3    H118170   5.471   0.072   2.870
 6075TIP3    H218171   5.416  -0.059   2.923
 6076TIP3   OH218172   4.149   3.378   0.906
 6076TIP3    H118173   4.217   3.376   0.973
 6076TIP3    H218174   4.178   3.315   0.840
 6077TIP3   OH218175   2.803   0.567   4.611
 6077TIP3    H118176   2.792   0.496   4.549
 6077TIP3    H218177   2.855   0.632   4.565
 6078TIP3   OH218178   0.478   5.269   5.947
 6078TIP3    H118179   0.519   5.351   5.975
 6078TIP3    H218180   0.481   5.213   6.025
 6079TIP3   OH218181   7.389   0.534   0.112
 6079TIP3    H118182   7.339   0.454   0.133
 6079TIP3    H218183   7.322   0.600   0.097
 6080TIP3   OH218184   2.259   5.135   6.258
 6080TIP3    H118185   2.167   5.111   6.252
 6080TIP3    H218186   2.282   5.164   6.170
 6081TIP3   OH218187   7.714   7.368   4.517
 6081TIP3    H118188   7.629   7.339   4.548
 6081TIP3    H218189   7.776   7.306   4.556
 6082TIP3   OH218190   7.706   3.852   6.538
 6082TIP3    H118191   7.698   3.830   6.631
 6082TIP3    H218192   7.633   3.807   6.496
 6083TIP3   OH218193   3.153   1.712   2.059
 6083TIP3    H118194   3.066   1.714   2.097
 6083TIP3    H218195   3.143   1.666   1.976
 6084TIP3   OH218196   3.529   0.153   2.492
 6084TIP3    H118197   3.500   0.167   2.582
 6084TIP3    H218198   3.616   0.193   2.489
 6085TIP3   OH218199   7.201   0.640   4.915
 6085TIP3    H118200   7.296   0.627   4.912
 6085TIP3    H218201   7.188   0.729   4.884
 6086TIP3   OH218202   3.152   3.704   3.783
 6086TIP3    H118203   3.067   3.662   3.790
 6086TIP3    H218204   3.152   3.745   3.696
 6087TIP3   OH218205   6.358   2.650   5.390
 6087TIP3    H118206   6.399   2.564   5.397
 6087TIP3    H218207   6.329   2.670   5.479
 6088TIP3   OH218208   3.206   5.247   2.502
 6088TIP3    H118209   3.298   5.247   2.528
 6088TIP3    H218210   3.159   5.215   2.580
 6089TIP3   OH218211   1.180   6.479   6.355
 6089TIP3    H118212   1.220   6.484   6.268
 6089TIP3    H218213   1.253   6.494   6.416
 6090TIP3   OH218214   8.018   6.368   1.625
 6090TIP3    H118215   8.039   6.378   1.718
 6090TIP3    H218216   8.094   6.406   1.580
 6091TIP3   OH218217   7.055   4.651   0.543
 6091TIP3    H118218   7.113   4.667   0.468
 6091TIP3    H218219   6.990   4.590   0.510
 6092TIP3   OH218220   1.996   4.594   2.298
 6092TIP3    H118221   1.948   4.532   2.242
 6092TIP3    H218222   1.981   4.679   2.257
 6093TIP3   OH218223   2.942   1.480   5.098
 6093TIP3    H118224   3.029   1.464   5.134
 6093TIP3    H218225   2.944   1.571   5.069
 6094TIP3   OH218226   6.842   2.225   0.007
 6094TIP3    H118227   6.859   2.265  -0.078
 6094TIP3    H218228   6.748   2.206   0.007
 6095TIP3   OH218229   7.749   6.298   0.178
 6095TIP3    H118230   7.825   6.274   0.125
 6095TIP3    H218231   7.783   6.363   0.240
 6096TIP3   OH218232   1.855   5.982   1.007
 6096TIP3    H118233   1.886   5.987   0.917
 6096TIP3    H218234   1.930   5.950   1.057
 6097TIP3   OH218235   5.032   7.485   1.235
 6097TIP3    H118236   4.969   7.551   1.207
 6097TIP3    H218237   5.109   7.536   1.262
 6098TIP3   OH218238   1.190   4.779   1.497
 6098TIP3    H118239   1.215   4.792   1.405
 6098TIP3    H218240   1.230   4.854   1.543
 6099TIP3   OH218241   5.545   2.006   3.507
 6099TIP3    H118242   5.510   2.061   3.577
 6099TIP3    H218243   5.624   2.051   3.477
 6100TIP3   OH218244   3.435   1.532   4.217
 6100TIP3    H118245   3.422   1.540   4.122
 6100TIP3    H218246   3.346   1.530   4.252
 6101TIP3   OH218247   1.549   6.459   3.610
 6101TIP3    H118248   1.606   6.463   3.534
 6101TIP3    H218249   1.603   6.490   3.683
 6102TIP3   OH218250   5.448   7.786   3.730
 6102TIP3    H118251   5.474   7.805   3.820
 6102TIP3    H218252   5.356   7.758   3.737
 6103TIP3   OH218253   4.650   5.968   1.820
 6103TIP3    H118254   4.741   5.982   1.845
 6103TIP3    H218255   4.599   6.014   1.886
 6104TIP3   OH218256   7.300   7.323   4.203
 6104TIP3    H118257   7.285   7.332   4.297
 6104TIP3    H218258   7.217   7.347   4.162
 6105TIP3   OH218259   7.019   4.101   2.224
 6105TIP3    H118260   7.033   4.020   2.274
 6105TIP3    H218261   7.044   4.079   2.134
 6106TIP3   OH218262   4.608   2.582   2.006
 6106TIP3    H118263   4.525   2.613   2.041
 6106TIP3    H218264   4.586   2.503   1.957
 6107TIP3   OH218265   6.058   1.381   4.271
 6107TIP3    H118266   6.003   1.433   4.330
 6107TIP3    H218267   6.003   1.308   4.243
 6108TIP3   OH218268   4.962   6.843   3.963
 6108TIP3    H118269   4.903   6.911   3.995
 6108TIP3    H218270   5.012   6.885   3.893
 6109TIP3   OH218271   8.164   2.941   4.504
 6109TIP3    H118272   8.217   2.894   4.441
 6109TIP3    H218273   8.227   2.988   4.559
 6110TIP3   OH218274   5.769   5.887   5.869
 6110TIP3    H118275   5.710   5.926   5.804
 6110TIP3    H218276   5.737   5.918   5.953
 6111TIP3   OH218277   4.973   1.960   6.589
 6111TIP3    H118278   4.900   2.017   6.613
 6111TIP3    H218279   5.022   1.950   6.671
 6112TIP3   OH218280   0.481   5.459   0.449
 6112TIP3    H118281   0.532   5.379   0.452
 6112TIP3    H218282   0.390   5.430   0.454
 6113TIP3   OH218283   8.186   1.865   0.196
 6113TIP3    H118284   8.214   1.776   0.177
 6113TIP3    H218285   8.094   1.856   0.222
 6114TIP3   OH218286   4.337   6.494   4.430
 6114TIP3    H118287   4.338   6.586   4.455
 6114TIP3    H218288   4.358   6.494   4.337
 6115TIP3   OH218289   1.107   1.241   5.348
 6115TIP3    H118290   1.085   1.243   5.441
 6115TIP3    H218291   1.193   1.200   5.345
 6116TIP3   OH218292   5.292   3.165   3.294
 6116TIP3    H118293   5.274   3.216   3.373
 6116TIP3    H218294   5.386   3.172   3.281
 6117TIP3   OH218295   8.223   2.164   6.051
 6117TIP3    H118296   8.297   2.102   6.054
 6117TIP3    H218297   8.263   2.246   6.021
 6118TIP3   OH218298   4.984   3.539   5.209
 6118TIP3    H118299   4.903   3.488   5.207
 6118TIP3    H218300   5.050   3.478   5.240
 6119TIP3   OH218301   5.160   3.637   3.597
 6119TIP3    H118302   5.076   3.626   3.554
 6119TIP3    H218303   5.224   3.635   3.526
 6120TIP3   OH218304   5.667   6.545   0.381
 6120TIP3    H118305   5.626   6.624   0.347
 6120TIP3    H218306   5.757   6.570   0.399
 6121TIP3   OH218307   5.315   5.860   6.140
 6121TIP3    H118308   5.320   5.945   6.098
 6121TIP3    H218309   5.286   5.879   6.229
 6122TIP3   OH218310   1.756   2.381   0.408
 6122TIP3    H118311   1.787   2.426   0.486
 6122TIP3    H218312   1.670   2.347   0.432
 6123TIP3   OH218313   7.046   1.289   4.135
 6123TIP3    H118314   7.015   1.327   4.217
 6123TIP3    H218315   7.074   1.201   4.159
 6124TIP3   OH218316   1.694   2.377   0.675
 6124TIP3    H118317   1.649   2.449   0.719
 6124TIP3    H218318   1.710   2.312   0.744
 6125TIP3   OH218319   4.188   5.644   4.273
 6125TIP3    H118320   4.257   5.709   4.261
 6125TIP3    H218321   4.126   5.686   4.333
 6126TIP3   OH218322   2.433   2.354   5.854
 6126TIP3    H118323   2.419   2.442   5.817
 6126TIP3    H218324   2.479   2.307   5.784
 6127TIP3   OH218325   2.483   3.014   0.666
 6127TIP3    H118326   2.486   3.108   0.681
 6127TIP3    H218327   2.575   2.987   0.665
 6128TIP3   OH218328   6.211   4.312   1.846
 6128TIP3    H118329   6.164   4.394   1.860
 6128TIP3    H218330   6.197   4.292   1.753
 6129TIP3   OH218331   3.225   6.055   2.902
 6129TIP3    H118332   3.296   6.119   2.888
 6129TIP3    H218333   3.200   6.028   2.814
 6130TIP3   OH218334   4.401   2.706   6.355
 6130TIP3    H118335   4.402   2.797   6.324
 6130TIP3    H218336   4.390   2.654   6.276
 6131TIP3   OH218337   2.263   7.410   3.126
 6131TIP3    H118338   2.210   7.353   3.183
 6131TIP3    H218339   2.200   7.470   3.087
 6132TIP3   OH218340   4.216   6.092   5.497
 6132TIP3    H118341   4.186   6.180   5.475
 6132TIP3    H218342   4.279   6.105   5.568
 6133TIP3   OH218343   0.734   5.222   0.324
 6133TIP3    H118344   0.654   5.204   0.275
 6133TIP3    H218345   0.790   5.270   0.263
 6134TIP3   OH218346   1.899   3.998   0.952
 6134TIP3    H118347   1.899   4.019   1.046
 6134TIP3    H218348   1.973   4.047   0.917
 6135TIP3   OH218349   7.363   1.460   4.992
 6135TIP3    H118350   7.335   1.498   5.075
 6135TIP3    H218351   7.425   1.391   5.018
 6136TIP3   OH218352   7.898   5.755   2.225
 6136TIP3    H118353   7.975   5.700   2.236
 6136TIP3    H218354   7.934   5.843   2.208
 6137TIP3   OH218355   7.140   4.450   2.115
 6137TIP3    H118356   7.138   4.540   2.147
 6137TIP3    H218357   7.210   4.449   2.049
 6138TIP3   OH218358   1.050   4.487   2.759
 6138TIP3    H118359   1.086   4.575   2.746
 6138TIP3    H218360   0.997   4.471   2.680
 6139TIP3   OH218361   3.515   3.117   0.827
 6139TIP3    H118362   3.503   3.152   0.739
 6139TIP3    H218363   3.602   3.076   0.825
 6140TIP3   OH218364   7.405   1.941   3.898
 6140TIP3    H118365   7.457   1.871   3.938
 6140TIP3    H218366   7.335   1.959   3.961
 6141TIP3   OH218367   1.526   1.935   5.930
 6141TIP3    H118368   1.598   1.873   5.938
 6141TIP3    H218369   1.495   1.924   5.840
 6142TIP3   OH218370   6.343   5.293   3.270
 6142TIP3    H118371   6.370   5.344   3.193
 6142TIP3    H218372   6.417   5.300   3.331
 6143TIP3   OH218373   8.034   0.501   6.169
 6143TIP3    H118374   8.128   0.499   6.186
 6143TIP3    H218375   8.025   0.462   6.082
 6144TIP3   OH218376   6.452   5.655   1.554
 6144TIP3    H118377   6.459   5.561   1.535
 6144TIP3    H218378   6.542   5.687   1.547
 6145TIP3   OH218379   3.127   7.375   0.557
 6145TIP3    H118380   3.139   7.443   0.624
 6145TIP3    H218381   3.092   7.421   0.481
 6146TIP3   OH218382   0.794   6.708   6.075
 6146TIP3    H118383   0.811   6.621   6.038
 6146TIP3    H218384   0.880   6.738   6.104
 6147TIP3   OH218385   1.481   4.625   3.816
 6147TIP3    H118386   1.511   4.538   3.793
 6147TIP3    H218387   1.543   4.656   3.882
 6148TIP3   OH218388   1.354   4.463   1.321
 6148TIP3    H118389   1.265   4.497   1.319
 6148TIP3    H218390   1.343   4.368   1.332
 6149TIP3   OH218391   0.850   4.985   5.818
 6149TIP3    H118392   0.772   4.936   5.792
 6149TIP3    H218393   0.912   4.918   5.846
 6150TIP3   OH218394   5.528   1.177   0.616
 6150TIP3    H118395   5.596   1.168   0.683
 6150TIP3    H218396   5.570   1.225   0.545
 6151TIP3   OH218397   4.087   7.503   1.474
 6151TIP3    H118398   4.034   7.505   1.554
 6151TIP3    H218399   4.037   7.555   1.411
 6152TIP3   OH218400   6.481   6.109   1.271
 6152TIP3    H118401   6.444   6.050   1.336
 6152TIP3    H218402   6.478   6.060   1.189
 6153TIP3   OH218403   5.076   4.913   5.854
 6153TIP3    H118404   5.104   4.831   5.813
 6153TIP3    H218405   5.035   4.886   5.936
 6154TIP3   OH218406   4.616   2.846   0.937
 6154TIP3    H118407   4.655   2.794   0.866
 6154TIP3    H218408   4.691   2.870   0.992
 6155TIP3   OH218409   0.107   5.951   5.299
 6155TIP3    H118410   0.139   5.861   5.294
 6155TIP3    H218411   0.178   5.999   5.341
 6156TIP3   OH218412   7.408   7.817   2.233
 6156TIP3    H118413   7.324   7.772   2.237
 6156TIP3    H218414   7.458   7.768   2.168
 6157TIP3   OH218415   0.403   7.103   0.575
 6157TIP3    H118416   0.453   7.029   0.540
 6157TIP3    H218417   0.325   7.107   0.520
 6158TIP3   OH218418   2.639   1.205   6.633
 6158TIP3    H118419   2.695   1.265   6.681
 6158TIP3    H218420   2.567   1.259   6.601
 6159TIP3   OH218421   0.865   1.179   1.191
 6159TIP3    H118422   0.785   1.130   1.176
 6159TIP3    H218423   0.838   1.255   1.243
 6160TIP3   OH218424   1.506   5.127   6.568
 6160TIP3    H118425   1.461   5.080   6.638
 6160TIP3    H218426   1.437   5.174   6.521
 6161TIP3   OH218427   6.380   3.833   4.621
 6161TIP3    H118428   6.422   3.840   4.535
 6161TIP3    H218429   6.315   3.763   4.610
 6162TIP3   OH218430   0.181   2.712   2.336
 6162TIP3    H118431   0.160   2.672   2.252
 6162TIP3    H218432   0.168   2.806   2.323
 6163TIP3   OH218433   8.235   2.562   4.235
 6163TIP3    H118434   8.296   2.543   4.163
 6163TIP3    H218435   8.258   2.651   4.262
 6164TIP3   OH218436   1.560   5.474   5.595
 6164TIP3    H118437   1.651   5.474   5.565
 6164TIP3    H218438   1.543   5.565   5.620
 6165TIP3   OH218439   4.334   2.006   2.021
 6165TIP3    H118440   4.422   1.986   2.052
 6165TIP3    H218441   4.318   1.942   1.951
 6166TIP3   OH218442   0.475   0.661   1.479
 6166TIP3    H118443   0.540   0.730   1.494
 6166TIP3    H218444   0.392   0.699   1.506
 6167TIP3   OH218445   7.724   2.592   6.740
 6167TIP3    H118446   7.757   2.510   6.777
 6167TIP3    H218447   7.709   2.649   6.815
 6168TIP3   OH218448   5.771  -0.030   5.730
 6168TIP3    H118449   5.769   0.034   5.802
 6168TIP3    H218450   5.848  -0.006   5.679
 6169TIP3   OH218451  -0.026   1.307   2.354
 6169TIP3    H118452   0.001   1.270   2.269
 6169TIP3    H218453   0.055   1.333   2.396
 6170TIP3   OH218454   5.266   5.468   1.218
 6170TIP3    H118455   5.305   5.525   1.152
 6170TIP3    H218456   5.172   5.480   1.207
 6171TIP3   OH218457   0.864   5.989   3.903
 6171TIP3    H118458   0.957   5.970   3.887
 6171TIP3    H218459   0.861   6.084   3.915
 6172TIP3   OH218460   8.001   5.874   5.033
 6172TIP3    H118461   8.030   5.879   5.124
 6172TIP3    H218462   7.926   5.814   5.036
 6173TIP3   OH218463   7.770   7.080   5.149
 6173TIP3    H118464   7.842   7.018   5.135
 6173TIP3    H218465   7.807   7.147   5.206
 6174TIP3   OH218466   8.245   7.749   2.289
 6174TIP3    H118467   8.261   7.666   2.245
 6174TIP3    H218468   8.218   7.809   2.218
 6175TIP3   OH218469   2.881   7.290   0.125
 6175TIP3    H118470   2.976   7.297   0.134
 6175TIP3    H218471   2.868   7.209   0.077
 6176TIP3   OH218472   2.952   4.737   3.558
 6176TIP3    H118473   3.007   4.803   3.516
 6176TIP3    H218474   2.999   4.715   3.639
 6177TIP3   OH218475   3.492   2.387   3.822
 6177TIP3    H118476   3.560   2.417   3.761
 6177TIP3    H218477   3.460   2.468   3.864
 6178TIP3   OH218478   0.671   7.568   0.813
 6178TIP3    H118479   0.576   7.580   0.825
 6178TIP3    H218480   0.702   7.537   0.898
 6179TIP3   OH218481   6.858   5.849   6.268
 6179TIP3    H118482   6.905   5.863   6.186
 6179TIP3    H218483   6.913   5.788   6.317
 6180TIP3   OH218484   3.220   3.556   1.377
 6180TIP3    H118485   3.215   3.626   1.442
 6180TIP3    H218486   3.137   3.509   1.386
 6181TIP3   OH218487   6.191   5.640   1.663
 6181TIP3    H118488   6.168   5.601   1.747
 6181TIP3    H218489   6.286   5.648   1.665
 6182TIP3   OH218490   4.145   7.030   2.423
 6182TIP3    H118491   4.232   7.054   2.392
 6182TIP3    H218492   4.160   6.960   2.486
 6183TIP3   OH218493   2.029   1.445   3.598
 6183TIP3    H118494   2.023   1.351   3.609
 6183TIP3    H218495   1.940   1.472   3.572
 6184TIP3   OH218496   0.649   4.032   0.639
 6184TIP3    H118497   0.571   3.998   0.597
 6184TIP3    H218498   0.655   4.122   0.609
 6185TIP3   OH218499   6.246   5.959   2.519
 6185TIP3    H118500   6.291   6.034   2.558
 6185TIP3    H218501   6.244   5.978   2.425
 6186TIP3   OH218502   0.245   4.653   5.412
 6186TIP3    H118503   0.262   4.666   5.319
 6186TIP3    H218504   0.213   4.563   5.419
 6187TIP3   OH218505   3.266   1.242   5.936
 6187TIP3    H118506   3.268   1.147   5.932
 6187TIP3    H218507   3.336   1.271   5.877
 6188TIP3   OH218508   6.640   6.630   3.594
 6188TIP3    H118509   6.555   6.588   3.584
 6188TIP3    H218510   6.633   6.710   3.542
 6189TIP3   OH218511   4.509   5.669   1.845
 6189TIP3    H118512   4.596   5.707   1.831
 6189TIP3    H218513   4.450   5.744   1.843
 6190TIP3   OH218514   4.343   5.239   5.314
 6190TIP3    H118515   4.277   5.308   5.307
 6190TIP3    H218516   4.377   5.229   5.225
 6191TIP3   OH218517   4.796   0.274   2.426
 6191TIP3    H118518   4.712   0.271   2.472
 6191TIP3    H218519   4.806   0.365   2.400
 6192TIP3   OH218520   7.801   6.425   2.874
 6192TIP3    H118521   7.774   6.361   2.941
 6192TIP3    H218522   7.891   6.446   2.897
 6193TIP3   OH218523   4.567   0.961   3.940
 6193TIP3    H118524   4.490   0.907   3.922
 6193TIP3    H218525   4.575   0.959   4.036
 6194TIP3   OH218526   0.988   6.805   5.631
 6194TIP3    H118527   1.055   6.809   5.698
 6194TIP3    H218528   0.943   6.890   5.636
 6195TIP3   OH218529   6.597   0.326   4.475
 6195TIP3    H118530   6.679   0.304   4.519
 6195TIP3    H218531   6.569   0.244   4.434
 6196TIP3   OH218532   6.548   4.057   5.479
 6196TIP3    H118533   6.508   4.112   5.411
 6196TIP3    H218534   6.627   4.023   5.438
 6197TIP3   OH218535   1.489   0.238   2.254
 6197TIP3    H118536   1.545   0.172   2.295
 6197TIP3    H218537   1.495   0.220   2.161
 6198TIP3   OH218538   6.023   6.293   0.192
 6198TIP3    H118539   5.961   6.220   0.184
 6198TIP3    H218540   6.004   6.348   0.116
 6199TIP3   OH218541   1.753   4.541   0.112
 6199TIP3    H118542   1.739   4.593   0.033
 6199TIP3    H218543   1.779   4.603   0.179
 6200TIP3   OH218544   6.359   3.246   1.872
 6200TIP3    H118545   6.402   3.249   1.786
 6200TIP3    H218546   6.305   3.325   1.874
 6201TIP3   OH218547   0.142   7.160   3.073
 6201TIP3    H118548   0.237   7.169   3.079
 6201TIP3    H218549   0.117   7.218   3.001
 6202TIP3   OH218550   0.718   6.592   4.862
 6202TIP3    H118551   0.699   6.683   4.885
 6202TIP3    H218552   0.725   6.546   4.946
 6203TIP3   OH218553   3.147   5.900   6.772
 6203TIP3    H118554   3.063   5.902   6.816
 6203TIP3    H218555   3.148   5.817   6.724
 6204TIP3   OH218556   4.602   6.350   5.044
 6204TIP3    H118557   4.596   6.260   5.077
 6204TIP3    H218558   4.584   6.404   5.121
 6205TIP3   OH218559   7.542   5.137   4.048
 6205TIP3    H118560   7.510   5.162   4.135
 6205TIP3    H218561   7.596   5.211   4.020
 6206TIP3   OH218562   6.699   0.817   1.841
 6206TIP3    H118563   6.765   0.884   1.859
 6206TIP3    H218564   6.622   0.846   1.889
 6207TIP3   OH218565   2.778   7.118   5.257
 6207TIP3    H118566   2.808   7.045   5.202
 6207TIP3    H218567   2.815   7.099   5.343
 6208TIP3   OH218568   4.380   7.035   0.029
 6208TIP3    H118569   4.301   6.997   0.068
 6208TIP3    H218570   4.355   7.055  -0.061
 6209TIP3   OH218571   6.946   2.698   0.415
 6209TIP3    H118572   6.916   2.702   0.506
 6209TIP3    H218573   6.875   2.655   0.368
 6210TIP3   OH218574   8.072   7.168   4.914
 6210TIP3    H118575   8.146   7.228   4.913
 6210TIP3    H218576   8.109   7.085   4.944
 6211TIP3   OH218577   0.060   1.940   3.629
 6211TIP3    H118578   0.145   1.975   3.654
 6211TIP3    H218579   0.053   1.856   3.675
 6212TIP3   OH218580   2.492   0.550   2.997
 6212TIP3    H118581   2.551   0.594   3.058
 6212TIP3    H218582   2.420   0.612   2.985
 6213TIP3   OH218583   3.602   4.629   5.314
 6213TIP3    H118584   3.586   4.720   5.340
 6213TIP3    H218585   3.529   4.609   5.255
 6214TIP3   OH218586   2.127   1.637   2.205
 6214TIP3    H118587   2.126   1.672   2.116
 6214TIP3    H218588   2.076   1.700   2.256
 6215TIP3   OH218589   8.090   6.544   0.136
 6215TIP3    H118590   8.063   6.460   0.098
 6215TIP3    H218591   8.131   6.520   0.219
 6216TIP3   OH218592   8.059   0.745   3.797
 6216TIP3    H118593   8.090   0.828   3.759
 6216TIP3    H218594   7.979   0.725   3.748
 6217TIP3   OH218595   7.261   6.655   1.867
 6217TIP3    H118596   7.219   6.689   1.789
 6217TIP3    H218597   7.248   6.560   1.862
 6218TIP3   OH218598   7.663   1.163   4.454
 6218TIP3    H118599   7.749   1.172   4.413
 6218TIP3    H218600   7.675   1.196   4.543
 6219TIP3   OH218601   3.867   7.487   1.215
 6219TIP3    H118602   3.808   7.412   1.223
 6219TIP3    H218603   3.934   7.458   1.153
 6220TIP3   OH218604   0.593   0.942   2.009
 6220TIP3    H118605   0.599   0.872   1.945
 6220TIP3    H218606   0.553   1.015   1.960
 6221TIP3   OH218607   3.841   2.870   2.084
 6221TIP3    H118608   3.778   2.940   2.067
 6221TIP3    H218609   3.808   2.826   2.162
 6222TIP3   OH218610   4.484   1.214   0.973
 6222TIP3    H118611   4.578   1.216   0.952
 6222TIP3    H218612   4.467   1.300   1.011
 6223TIP3   OH218613   3.101   6.085   0.462
 6223TIP3    H118614   3.117   6.131   0.380
 6223TIP3    H218615   3.188   6.061   0.494
 6224TIP3   OH218616   3.889   2.327   5.897
 6224TIP3    H118617   3.881   2.287   5.811
 6224TIP3    H218618   3.798   2.341   5.925
 6225TIP3   OH218619   0.498   3.102   3.224
 6225TIP3    H118620   0.485   3.052   3.305
 6225TIP3    H218621   0.579   3.151   3.239
 6226TIP3   OH218622   5.424   3.804   3.166
 6226TIP3    H118623   5.396   3.841   3.082
 6226TIP3    H218624   5.471   3.876   3.209
 6227TIP3   OH218625   2.964   3.753   3.487
 6227TIP3    H118626   3.053   3.788   3.491
 6227TIP3    H218627   2.911   3.816   3.536
 6228TIP3   OH218628   7.462   1.772   3.195
 6228TIP3    H118629   7.433   1.840   3.256
 6228TIP3    H218630   7.434   1.690   3.235
 6229TIP3   OH218631   6.733   5.255   5.634
 6229TIP3    H118632   6.652   5.224   5.676
 6229TIP3    H218633   6.793   5.270   5.707
 6230TIP3   OH218634   4.340   4.986   6.410
 6230TIP3    H118635   4.256   4.960   6.447
 6230TIP3    H218636   4.405   4.937   6.461
 6231TIP3   OH218637   8.201   0.038   5.402
 6231TIP3    H118638   8.176   0.063   5.491
 6231TIP3    H218639   8.286   0.080   5.388
 6232TIP3   OH218640   4.889   5.150   2.376
 6232TIP3    H118641   4.913   5.073   2.428
 6232TIP3    H218642   4.927   5.224   2.424
 6233TIP3   OH218643   2.077   7.387   1.082
 6233TIP3    H118644   1.987   7.399   1.052
 6233TIP3    H218645   2.128   7.373   1.002
 6234TIP3   OH218646   2.294   6.216   2.109
 6234TIP3    H118647   2.354   6.285   2.081
 6234TIP3    H218648   2.314   6.142   2.051
 6235TIP3   OH218649   2.490   2.561   1.505
 6235TIP3    H118650   2.506   2.495   1.438
 6235TIP3    H218651   2.557   2.544   1.571
 6236TIP3   OH218652   8.018   2.117   4.706
 6236TIP3    H118653   7.977   2.196   4.670
 6236TIP3    H218654   8.103   2.147   4.738
 6237TIP3   OH218655   3.144   0.499   1.261
 6237TIP3    H118656   3.178   0.419   1.300
 6237TIP3    H218657   3.181   0.500   1.172
 6238TIP3   OH218658   4.179   0.883   5.238
 6238TIP3    H118659   4.101   0.938   5.232
 6238TIP3    H218660   4.183   0.858   5.330
 6239TIP3   OH218661   5.524   4.099   2.598
 6239TIP3    H118662   5.567   4.111   2.682
 6239TIP3    H218663   5.439   4.142   2.608
 6240TIP3   OH218664   5.763   2.132   4.210
 6240TIP3    H118665   5.707   2.173   4.145
 6240TIP3    H218666   5.802   2.057   4.165
 6241TIP3   OH218667   0.480   1.772   2.894
 6241TIP3    H118668   0.463   1.808   2.807
 6241TIP3    H218669   0.424   1.694   2.898
 6242TIP3   OH218670   5.241   3.382   3.078
 6242TIP3    H118671   5.334   3.374   3.097
 6242TIP3    H218672   5.213   3.294   3.052
 6243TIP3   OH218673   5.093   5.692   0.118
 6243TIP3    H118674   5.016   5.637   0.105
 6243TIP3    H218675   5.059   5.773   0.154
 6244TIP3   OH218676   3.444   4.194   4.150
 6244TIP3    H118677   3.359   4.229   4.175
 6244TIP3    H218678   3.482   4.161   4.232
 6245TIP3   OH218679   0.860   2.840   3.062
 6245TIP3    H118680   0.856   2.935   3.077
 6245TIP3    H218681   0.932   2.829   3.000
 6246TIP3   OH218682   3.400   7.404   6.184
 6246TIP3    H118683   3.461   7.337   6.152
 6246TIP3    H218684   3.449   7.450   6.252
 6247TIP3   OH218685   5.314   3.345   3.506
 6247TIP3    H118686   5.298   3.377   3.595
 6247TIP3    H218687   5.408   3.325   3.504
 6248TIP3   OH218688   7.752   2.900   0.259
 6248TIP3    H118689   7.751   2.970   0.324
 6248TIP3    H218690   7.725   2.943   0.178
 6249TIP3   OH218691   7.858   0.988   5.081
 6249TIP3    H118692   7.791   0.980   5.150
 6249TIP3    H218693   7.936   0.947   5.118
 6250TIP3   OH218694   5.699   0.578   1.354
 6250TIP3    H118695   5.758   0.578   1.278
 6250TIP3    H218696   5.623   0.528   1.324
 6251TIP3   OH218697   3.849   3.647   1.700
 6251TIP3    H118698   3.909   3.675   1.770
 6251TIP3    H218699   3.769   3.620   1.746
 6252TIP3   OH218700   7.812   3.811   3.428
 6252TIP3    H118701   7.897   3.783   3.461
 6252TIP3    H218702   7.784   3.740   3.370
 6253TIP3   OH218703   5.048   6.022   4.573
 6253TIP3    H118704   5.028   5.934   4.540
 6253TIP3    H218705   4.972   6.075   4.548
 6254TIP3   OH218706   5.962   2.997   0.996
 6254TIP3    H118707   6.009   2.914   1.007
 6254TIP3    H218708   5.945   3.003   0.902
 6255TIP3   OH218709   1.937   5.322   1.910
 6255TIP3    H118710   1.857   5.317   1.962
 6255TIP3    H218711   2.007   5.294   1.970
 6256TIP3   OH218712   4.938   3.759   2.457
 6256TIP3    H118713   5.005   3.766   2.389
 6256TIP3    H218714   4.904   3.847   2.466
 6257TIP3   OH218715   0.557   7.635   3.687
 6257TIP3    H118716   0.462   7.641   3.691
 6257TIP3    H218717   0.577   7.629   3.593
 6258TIP3   OH218718   3.066   6.436   6.156
 6258TIP3    H118719   3.046   6.407   6.245
 6258TIP3    H218720   3.160   6.452   6.156
 6259TIP3   OH218721   0.457   3.288   1.238
 6259TIP3    H118722   0.415   3.205   1.260
 6259TIP3    H218723   0.528   3.265   1.178
 6260TIP3   OH218724   4.261   2.786   1.855
 6260TIP3    H118725   4.259   2.751   1.945
 6260TIP3    H218726   4.320   2.861   1.860
 6261TIP3   OH218727   1.653   2.481   4.688
 6261TIP3    H118728   1.667   2.429   4.609
 6261TIP3    H218729   1.738   2.478   4.733
 6262TIP3   OH218730   5.234   4.942   0.124
 6262TIP3    H118731   5.210   4.859   0.166
 6262TIP3    H218732   5.175   5.007   0.162
 6263TIP3   OH218733   1.055   5.913   2.135
 6263TIP3    H118734   1.131   5.925   2.079
 6263TIP3    H218735   0.985   5.961   2.091
 6264TIP3   OH218736   7.084   7.402   5.982
 6264TIP3    H118737   7.161   7.347   5.974
 6264TIP3    H218738   7.017   7.357   5.931
 6265TIP3   OH218739   2.729   1.554   2.934
 6265TIP3    H118740   2.652   1.548   2.877
 6265TIP3    H218741   2.694   1.544   3.022
 6266TIP3   OH218742   5.953   0.606   2.709
 6266TIP3    H118743   5.961   0.511   2.702
 6266TIP3    H218744   5.969   0.625   2.802
 6267TIP3   OH218745   2.831   0.521   3.031
 6267TIP3    H118746   2.772   0.562   3.094
 6267TIP3    H218747   2.862   0.593   2.976
 6268TIP3   OH218748   0.998   2.202   2.868
 6268TIP3    H118749   0.928   2.151   2.908
 6268TIP3    H218750   1.071   2.196   2.929
 6269TIP3   OH218751   0.864   0.661   1.994
 6269TIP3    H118752   0.813   0.675   2.074
 6269TIP3    H218753   0.955   0.671   2.022
 6270TIP3   OH218754   5.502   0.009   4.969
 6270TIP3    H118755   5.506  -0.048   5.046
 6270TIP3    H218756   5.593   0.017   4.941
 6271TIP3   OH218757   7.511   3.309   5.328
 6271TIP3    H118758   7.435   3.271   5.372
 6271TIP3    H218759   7.490   3.402   5.320
 6272TIP3   OH218760   3.001   6.563   0.566
 6272TIP3    H118761   2.936   6.493   0.554
 6272TIP3    H218762   3.028   6.586   0.477
 6273TIP3   OH218763   2.297   7.540   4.234
 6273TIP3    H118764   2.325   7.496   4.154
 6273TIP3    H218765   2.349   7.500   4.304
 6274TIP3   OH218766   0.897   3.550   4.399
 6274TIP3    H118767   0.881   3.478   4.459
 6274TIP3    H218768   0.954   3.514   4.331
 6275TIP3   OH218769   0.021   7.244   1.086
 6275TIP3    H118770  -0.019   7.310   1.143
 6275TIP3    H218771   0.067   7.295   1.019
 6276TIP3   OH218772   0.180   5.045   0.593
 6276TIP3    H118773   0.177   5.083   0.681
 6276TIP3    H218774   0.235   4.967   0.603
 6277TIP3   OH218775   6.852   2.671   3.203
 6277TIP3    H118776   6.942   2.648   3.180
 6277TIP3    H218777   6.798   2.624   3.139
 6278TIP3   OH218778   0.739   1.754   5.886
 6278TIP3    H118779   0.805   1.801   5.836
 6278TIP3    H218780   0.709   1.817   5.952
 6279TIP3   OH218781   7.415   6.733   3.926
 6279TIP3    H118782   7.413   6.819   3.968
 6279TIP3    H218783   7.349   6.738   3.857
 6280TIP3   OH218784   6.013   1.571   1.360
 6280TIP3    H118785   6.026   1.504   1.427
 6280TIP3    H218786   5.977   1.524   1.285
 6281TIP3   OH218787   1.922   7.655   5.878
 6281TIP3    H118788   2.010   7.661   5.916
 6281TIP3    H218789   1.864   7.642   5.953
 6282TIP3   OH218790   6.182   3.851   5.849
 6282TIP3    H118791   6.216   3.940   5.856
 6282TIP3    H218792   6.216   3.819   5.765
 6283TIP3   OH218793   6.487   6.864   4.889
 6283TIP3    H118794   6.516   6.942   4.936
 6283TIP3    H218795   6.562   6.804   4.896
 6284TIP3   OH218796   5.975   6.886   4.102
 6284TIP3    H118797   5.926   6.930   4.171
 6284TIP3    H218798   5.996   6.800   4.138
 6285TIP3   OH218799   6.818   7.744   4.916
 6285TIP3    H118800   6.812   7.720   4.824
 6285TIP3    H218801   6.732   7.724   4.952
 6286TIP3   OH218802   3.835   2.134   2.538
 6286TIP3    H118803   3.914   2.099   2.498
 6286TIP3    H218804   3.776   2.059   2.545
 6287TIP3   OH218805   7.653   2.100   6.507
 6287TIP3    H118806   7.620   2.190   6.508
 6287TIP3    H218807   7.739   2.106   6.465
 6288TIP3   OH218808   2.463   1.377   1.067
 6288TIP3    H118809   2.408   1.325   1.126
 6288TIP3    H218810   2.428   1.361   0.980
 6289TIP3   OH218811   1.237   6.504   5.325
 6289TIP3    H118812   1.232   6.430   5.386
 6289TIP3    H218813   1.325   6.498   5.288
 6290TIP3   OH218814   3.614   4.852   0.928
 6290TIP3    H118815   3.614   4.898   1.012
 6290TIP3    H218816   3.536   4.797   0.931
 6291TIP3   OH218817   0.640   2.039   2.726
 6291TIP3    H118818   0.611   1.948   2.723
 6291TIP3    H218819   0.678   2.055   2.640
 6292TIP3   OH218820   4.998   0.152   2.058
 6292TIP3    H118821   5.084   0.158   2.016
 6292TIP3    H218822   4.937   0.183   1.991
 6293TIP3   OH218823   4.739   4.868   2.613
 6293TIP3    H118824   4.686   4.794   2.641
 6293TIP3    H218825   4.736   4.929   2.687
 6294TIP3   OH218826   0.143   7.769   5.328
 6294TIP3    H118827   0.051   7.768   5.352
 6294TIP3    H218828   0.181   7.840   5.380
 6295TIP3   OH218829   3.247   5.957   5.910
 6295TIP3    H118830   3.220   5.871   5.943
 6295TIP3    H218831   3.208   6.019   5.972
 6296TIP3   OH218832   4.808   3.926   0.612
 6296TIP3    H118833   4.809   3.838   0.576
 6296TIP3    H218834   4.745   3.922   0.684
 6297TIP3   OH218835   6.901   2.676   1.840
 6297TIP3    H118836   6.916   2.582   1.827
 6297TIP3    H218837   6.989   2.714   1.842
 6298TIP3   OH218838   7.663   1.243   4.713
 6298TIP3    H118839   7.724   1.294   4.768
 6298TIP3    H218840   7.652   1.160   4.760
 6299TIP3   OH218841   4.083   4.646   3.701
 6299TIP3    H118842   4.169   4.608   3.721
 6299TIP3    H218843   4.055   4.686   3.784
 6300TIP3   OH218844   7.152   6.016   2.967
 6300TIP3    H118845   7.224   5.962   2.934
 6300TIP3    H218846   7.170   6.026   3.060
 6301TIP3   OH218847   2.739   5.804   3.915
 6301TIP3    H118848   2.801   5.732   3.906
 6301TIP3    H218849   2.674   5.790   3.846
 6302TIP3   OH218850   5.248   0.803   4.964
 6302TIP3    H118851   5.298   0.740   4.913
 6302TIP3    H218852   5.165   0.814   4.916
 6303TIP3   OH218853   4.001   2.134   6.550
 6303TIP3    H118854   4.025   2.074   6.620
 6303TIP3    H218855   4.068   2.202   6.552
 6304TIP3   OH218856   3.012   3.103   3.126
 6304TIP3    H118857   2.986   3.191   3.153
 6304TIP3    H218858   3.052   3.115   3.040
 6305TIP3   OH218859   6.259   7.482   0.866
 6305TIP3    H118860   6.231   7.411   0.924
 6305TIP3    H218861   6.354   7.471   0.859
 6306TIP3   OH218862   7.321   6.422   3.113
 6306TIP3    H118863   7.384   6.401   3.183
 6306TIP3    H218864   7.350   6.369   3.039
 6307TIP3   OH218865   5.073   1.979   2.936
 6307TIP3    H118866   5.153   2.027   2.955
 6307TIP3    H218867   5.005   2.047   2.933
 6308TIP3   OH218868   5.746   5.387   0.281
 6308TIP3    H118869   5.798   5.405   0.359
 6308TIP3    H218870   5.730   5.472   0.242
 6309TIP3   OH218871   6.049   4.054   5.036
 6309TIP3    H118872   5.972   4.040   5.090
 6309TIP3    H218873   6.016   4.098   4.958
 6310TIP3   OH218874   7.169   3.776   3.755
 6310TIP3    H118875   7.082   3.739   3.767
 6310TIP3    H218876   7.197   3.742   3.670
 6311TIP3   OH218877   8.104   7.173   3.239
 6311TIP3    H118878   8.177   7.225   3.270
 6311TIP3    H218879   8.029   7.201   3.292
 6312TIP3   OH218880   5.687   1.345   4.561
 6312TIP3    H118881   5.663   1.431   4.526
 6312TIP3    H218882   5.638   1.339   4.643
 6313TIP3   OH218883   0.636   2.109   2.354
 6313TIP3    H118884   0.705   2.053   2.389
 6313TIP3    H218885   0.619   2.073   2.267
 6314TIP3   OH218886   5.700   3.303   6.105
 6314TIP3    H118887   5.721   3.331   6.194
 6314TIP3    H218888   5.636   3.367   6.074
 6315TIP3   OH218889   7.868   6.805   2.850
 6315TIP3    H118890   7.814   6.727   2.836
 6315TIP3    H218891   7.810   6.866   2.895
 6316TIP3   OH218892   6.851   0.147   0.621
 6316TIP3    H118893   6.916   0.079   0.604
 6316TIP3    H218894   6.792   0.108   0.685
 6317TIP3   OH218895   7.740   1.975   5.907
 6317TIP3    H118896   7.817   2.013   5.948
 6317TIP3    H218897   7.771   1.944   5.821
 6318TIP3   OH218898   8.200   0.311   2.338
 6318TIP3    H118899   8.181   0.366   2.262
 6318TIP3    H218900   8.124   0.322   2.395
 6319TIP3   OH218901   0.440   3.463   5.632
 6319TIP3    H118902   0.476   3.431   5.715
 6319TIP3    H218903   0.508   3.522   5.599
 6320TIP3   OH218904   4.885   6.985   6.054
 6320TIP3    H118905   4.801   6.990   6.007
 6320TIP3    H218906   4.892   6.893   6.079
 6321TIP3   OH218907   0.823   4.907   0.019
 6321TIP3    H118908   0.738   4.902   0.062
 6321TIP3    H218909   0.887   4.895   0.090
 6322TIP3   OH218910   1.512   3.693   6.247
 6322TIP3    H118911   1.505   3.666   6.155
 6322TIP3    H218912   1.492   3.614   6.297
 6323TIP3   OH218913   6.861   3.810   3.814
 6323TIP3    H118914   6.836   3.878   3.876
 6323TIP3    H218915   6.820   3.837   3.731
 6324TIP3   OH218916   7.225   5.385   0.168
 6324TIP3    H118917   7.189   5.308   0.212
 6324TIP3    H218918   7.219   5.455   0.233
 6325TIP3   OH218919   2.998   7.550   4.719
 6325TIP3    H118920   2.966   7.552   4.810
 6325TIP3    H218921   3.072   7.611   4.719
 6326TIP3   OH218922   1.356   0.640   0.272
 6326TIP3    H118923   1.412   0.704   0.318
 6326TIP3    H218924   1.314   0.691   0.203
 6327TIP3   OH218925   6.715   6.490   3.851
 6327TIP3    H118926   6.634   6.532   3.822
 6327TIP3    H218927   6.760   6.558   3.901
 6328TIP3   OH218928   3.955   0.618   2.250
 6328TIP3    H118929   4.027   0.635   2.189
 6328TIP3    H218930   3.968   0.682   2.321
 6329TIP3   OH218931   8.181   0.127   0.068
 6329TIP3    H118932   8.086   0.115   0.061
 6329TIP3    H218933   8.201   0.191   0.000
 6330TIP3   OH218934   8.265   6.550   6.477
 6330TIP3    H118935   8.340   6.610   6.474
 6330TIP3    H218936   8.189   6.607   6.476
 6331TIP3   OH218937   6.988   5.887   4.925
 6331TIP3    H118938   6.986   5.799   4.963
 6331TIP3    H218939   7.003   5.945   5.000
 6332TIP3   OH218940   7.752   0.035   2.937
 6332TIP3    H118941   7.703   0.010   3.016
 6332TIP3    H218942   7.715   0.119   2.911
 6333TIP3   OH218943   7.658   3.320   1.439
 6333TIP3    H118944   7.597   3.322   1.365
 6333TIP3    H218945   7.658   3.410   1.472
 6334TIP3   OH218946   5.634   6.799   6.385
 6334TIP3    H118947   5.636   6.745   6.305
 6334TIP3    H218948   5.722   6.789   6.422
 6335TIP3   OH218949   6.641   1.927   0.418
 6335TIP3    H118950   6.633   2.008   0.468
 6335TIP3    H218951   6.725   1.936   0.372
 6336TIP3   OH218952   5.764   7.510   5.883
 6336TIP3    H118953   5.817   7.562   5.942
 6336TIP3    H218954   5.686   7.487   5.933
 6337TIP3   OH218955   6.055   6.383   5.292
 6337TIP3    H118956   6.125   6.436   5.329
 6337TIP3    H218957   6.074   6.381   5.198
 6338TIP3   OH218958   7.291   2.320   2.164
 6338TIP3    H118959   7.314   2.386   2.229
 6338TIP3    H218960   7.279   2.369   2.083
 6339TIP3   OH218961   2.669   5.495   4.643
 6339TIP3    H118962   2.694   5.587   4.652
 6339TIP3    H218963   2.620   5.491   4.561
 6340TIP3   OH218964   0.200   2.997   1.666
 6340TIP3    H118965   0.255   3.030   1.737
 6340TIP3    H218966   0.137   3.068   1.650
 6341TIP3   OH218967   2.495   0.496   2.054
 6341TIP3    H118968   2.518   0.405   2.072
 6341TIP3    H218969   2.577   0.544   2.062
 6342TIP3   OH218970   5.544   5.599   0.436
 6342TIP3    H118971   5.464   5.637   0.474
 6342TIP3    H218972   5.574   5.537   0.503
 6343TIP3   OH218973   5.575   3.003   1.508
 6343TIP3    H118974   5.558   3.090   1.473
 6343TIP3    H218975   5.661   3.011   1.550
 6344TIP3   OH218976   4.472   4.883   1.921
 6344TIP3    H118977   4.567   4.898   1.915
 6344TIP3    H218978   4.445   4.864   1.831
 6345TIP3   OH218979   5.972   2.846   0.606
 6345TIP3    H118980   5.904   2.788   0.573
 6345TIP3    H218981   6.047   2.789   0.622
 6346TIP3   OH218982   4.368   7.449   2.865
 6346TIP3    H118983   4.296   7.512   2.872
 6346TIP3    H218984   4.342   7.377   2.922
 6347TIP3   OH218985   2.767   3.420   0.016
 6347TIP3    H118986   2.729   3.503  -0.012
 6347TIP3    H218987   2.777   3.429   0.111
 6348TIP3   OH218988   7.830   3.089   3.456
 6348TIP3    H118989   7.776   3.016   3.487
 6348TIP3    H218990   7.920   3.058   3.465
 6349TIP3   OH218991   0.923   3.233   0.916
 6349TIP3    H118992   0.860   3.273   0.856
 6349TIP3    H218993   0.963   3.162   0.865
 6350TIP3   OH218994   0.275   6.859   0.759
 6350TIP3    H118995   0.278   6.863   0.855
 6350TIP3    H218996   0.362   6.828   0.734
 6351TIP3   OH218997   1.577   0.121   4.645
 6351TIP3    H118998   1.590   0.072   4.726
 6351TIP3    H218999   1.501   0.079   4.604
 6352TIP3   OH219000   1.508   4.119   4.418
 6352TIP3    H119001   1.491   4.040   4.366
 6352TIP3    H219002   1.566   4.172   4.363
 6353TIP3   OH219003   3.649   5.589   4.405
 6353TIP3    H119004   3.587   5.646   4.450
 6353TIP3    H219005   3.618   5.500   4.423
 6354TIP3   OH219006   4.701   2.308   6.528
 6354TIP3    H119007   4.680   2.353   6.446
 6354TIP3    H219008   4.634   2.337   6.589
 6355TIP3   OH219009   8.135   3.133   0.609
 6355TIP3    H119010   8.171   3.083   0.682
 6355TIP3    H219011   8.082   3.070   0.560
 6356TIP3   OH219012   8.117   2.792   5.768
 6356TIP3    H119013   8.079   2.711   5.735
 6356TIP3    H219014   8.210   2.785   5.749
 6357TIP3   OH219015   3.676   0.842   1.889
 6357TIP3    H119016   3.728   0.805   1.818
 6357TIP3    H219017   3.606   0.778   1.904
 6358TIP3   OH219018   0.542   0.384   2.171
 6358TIP3    H119019   0.453   0.420   2.179
 6358TIP3    H219020   0.574   0.419   2.088
 6359TIP3   OH219021   5.657   0.600   2.840
 6359TIP3    H119022   5.709   0.658   2.784
 6359TIP3    H219023   5.567   0.616   2.814
 6360TIP3   OH219024   1.248   3.490   1.896
 6360TIP3    H119025   1.287   3.457   1.815
 6360TIP3    H219026   1.283   3.579   1.904
 6361TIP3   OH219027   5.040   0.218   6.693
 6361TIP3    H119028   4.951   0.191   6.717
 6361TIP3    H219029   5.071   0.149   6.635
 6362TIP3   OH219030   7.851   5.014   4.263
 6362TIP3    H119031   7.854   4.932   4.312
 6362TIP3    H219032   7.868   4.989   4.172
 6363TIP3   OH219033   4.240   3.665   2.179
 6363TIP3    H119034   4.289   3.747   2.171
 6363TIP3    H219035   4.305   3.597   2.166
 6364TIP3   OH219036   7.711   4.915   3.347
 6364TIP3    H119037   7.728   4.822   3.330
 6364TIP3    H219038   7.717   4.924   3.442
 6365TIP3   OH219039   2.936   1.288   5.358
 6365TIP3    H119040   3.025   1.267   5.387
 6365TIP3    H219041   2.949   1.354   5.290
 6366TIP3   OH219042   7.849   0.633   5.667
 6366TIP3    H119043   7.853   0.551   5.618
 6366TIP3    H219044   7.771   0.625   5.721
 6367TIP3   OH219045   0.077   2.125   5.171
 6367TIP3    H119046  -0.015   2.105   5.156
 6367TIP3    H219047   0.121   2.040   5.168
 6368TIP3   OH219048   8.074   7.728   5.025
 6368TIP3    H119049   8.002   7.665   5.027
 6368TIP3    H219050   8.038   7.804   4.979
 6369TIP3   OH219051   2.489   0.527   5.848
 6369TIP3    H119052   2.583   0.518   5.864
 6369TIP3    H219053   2.476   0.619   5.827
 6370TIP3   OH219054   7.734   7.494   5.459
 6370TIP3    H119055   7.646   7.469   5.485
 6370TIP3    H219056   7.772   7.535   5.537
 6371TIP3   OH219057   7.841   2.107   1.522
 6371TIP3    H119058   7.902   2.180   1.514
 6371TIP3    H219059   7.893   2.036   1.560
 6372TIP3   OH219060   6.262   4.853   3.498
 6372TIP3    H119061   6.300   4.893   3.420
 6372TIP3    H219062   6.277   4.917   3.567
 6373TIP3   OH219063   0.027   2.457   5.666
 6373TIP3    H119064  -0.008   2.527   5.611
 6373TIP3    H219065   0.032   2.381   5.608
 6374TIP3   OH219066   4.227   6.510   1.559
 6374TIP3    H119067   4.318   6.530   1.539
 6374TIP3    H219068   4.177   6.583   1.522
 6375TIP3   OH219069   1.160   5.717   1.064
 6375TIP3    H119070   1.071   5.707   1.098
 6375TIP3    H219071   1.215   5.717   1.142
 6376TIP3   OH219072   0.254   4.127   0.155
 6376TIP3    H119073   0.269   4.196   0.220
 6376TIP3    H219074   0.186   4.164   0.098
 6377TIP3   OH219075   4.983   1.609   5.896
 6377TIP3    H119076   4.943   1.599   5.982
 6377TIP3    H219077   5.006   1.520   5.869
 6378TIP3   OH219078   2.591   7.555   0.436
 6378TIP3    H119079   2.661   7.517   0.383
 6378TIP3    H219080   2.633   7.577   0.519
 6379TIP3   OH219081   5.990   5.072   4.092
 6379TIP3    H119082   6.048   5.114   4.155
 6379TIP3    H219083   6.047   5.013   4.043
 6380TIP3   OH219084   3.742   7.747   4.206
 6380TIP3    H119085   3.740   7.828   4.156
 6380TIP3    H219086   3.652   7.737   4.239
 6381TIP3   OH219087   5.482   0.989   6.594
 6381TIP3    H119088   5.426   1.050   6.546
 6381TIP3    H219089   5.460   1.004   6.686
 6382TIP3   OH219090   7.410   5.566   5.231
 6382TIP3    H119091   7.381   5.554   5.321
 6382TIP3    H219092   7.470   5.494   5.214
 6383TIP3   OH219093   1.579   4.805   1.831
 6383TIP3    H119094   1.640   4.842   1.768
 6383TIP3    H219095   1.537   4.733   1.784
 6384TIP3   OH219096   1.348   5.109   2.531
 6384TIP3    H119097   1.357   5.038   2.468
 6384TIP3    H219098   1.282   5.078   2.593
 6385TIP3   OH219099   6.795   7.707   0.493
 6385TIP3    H119100   6.722   7.729   0.435
 6385TIP3    H219101   6.872   7.745   0.450
 6386TIP3   OH219102   1.933   5.942   3.160
 6386TIP3    H119103   1.850   5.990   3.161
 6386TIP3    H219104   1.909   5.852   3.184
 6387TIP3   OH219105   1.162   3.454   2.881
 6387TIP3    H119106   1.256   3.454   2.868
 6387TIP3    H219107   1.131   3.382   2.825
 6388TIP3   OH219108   7.401   3.839   5.132
 6388TIP3    H119109   7.382   3.847   5.038
 6388TIP3    H219110   7.494   3.818   5.136
 6389TIP3   OH219111   4.430   6.755   3.948
 6389TIP3    H119112   4.437   6.849   3.931
 6389TIP3    H219113   4.461   6.743   4.038
 6390TIP3   OH219114   2.422   2.613   5.470
 6390TIP3    H119115   2.509   2.651   5.478
 6390TIP3    H219116   2.367   2.684   5.439
 6391TIP3   OH219117   1.800   0.336   1.960
 6391TIP3    H119118   1.849   0.295   1.889
 6391TIP3    H219119   1.715   0.291   1.959
 6392TIP3   OH219120   5.812   6.617   5.134
 6392TIP3    H119121   5.893   6.611   5.083
 6392TIP3    H219122   5.839   6.651   5.219
 6393TIP3   OH219123   0.674   0.418   4.033
 6393TIP3    H119124   0.766   0.431   4.009
 6393TIP3    H219125   0.629   0.411   3.949
 6394TIP3   OH219126   2.755   1.194   6.373
 6394TIP3    H119127   2.761   1.270   6.431
 6394TIP3    H219128   2.719   1.124   6.427
 6395TIP3   OH219129   0.933   0.270   3.613
 6395TIP3    H119130   1.016   0.318   3.606
 6395TIP3    H219131   0.927   0.220   3.532
 6396TIP3   OH219132   5.753   6.205   1.704
 6396TIP3    H119133   5.820   6.230   1.767
 6396TIP3    H219134   5.801   6.173   1.628
 6397TIP3   OH219135   7.569   7.372   5.182
 6397TIP3    H119136   7.540   7.456   5.218
 6397TIP3    H219137   7.550   7.309   5.251
 6398TIP3   OH219138   4.417   6.199   4.664
 6398TIP3    H119139   4.481   6.270   4.659
 6398TIP3    H219140   4.468   6.120   4.681
 6399TIP3   OH219141   0.960   6.539   3.805
 6399TIP3    H119142   0.946   6.630   3.831
 6399TIP3    H219143   0.889   6.521   3.743
 6400TIP3   OH219144   2.338   6.760   1.196
 6400TIP3    H119145   2.246   6.737   1.212
 6400TIP3    H219146   2.342   6.775   1.101
 6401TIP3   OH219147   0.718   5.454   1.605
 6401TIP3    H119148   0.739   5.391   1.673
 6401TIP3    H219149   0.744   5.413   1.523
 6402TIP3   OH219150   5.299   2.458   2.932
 6402TIP3    H119151   5.391   2.454   2.906
 6402TIP3    H219152   5.298   2.417   3.019
 6403TIP3   OH219153   2.505   6.374   3.496
 6403TIP3    H119154   2.536   6.310   3.431
 6403TIP3    H219155   2.557   6.453   3.478
 6404TIP3   OH219156   1.807   1.540   4.059
 6404TIP3    H119157   1.855   1.527   3.977
 6404TIP3    H219158   1.723   1.497   4.045
 6405TIP3   OH219159   0.196   1.294   0.172
 6405TIP3    H119160   0.222   1.386   0.166
 6405TIP3    H219161   0.225   1.267   0.259
 6406TIP3   OH219162   8.196   7.744   1.778
 6406TIP3    H119163   8.219   7.651   1.782
 6406TIP3    H219164   8.171   7.758   1.686
 6407TIP3   OH219165   4.574   5.583   2.230
 6407TIP3    H119166   4.631   5.659   2.240
 6407TIP3    H219167   4.601   5.543   2.148
 6408TIP3   OH219168   2.565   0.654   4.814
 6408TIP3    H119169   2.656   0.661   4.844
 6408TIP3    H219170   2.547   0.560   4.814
 6409TIP3   OH219171   6.586   6.142   4.149
 6409TIP3    H119172   6.648   6.194   4.098
 6409TIP3    H219173   6.576   6.061   4.100
 6410TIP3   OH219174   7.417   4.809   4.335
 6410TIP3    H119175   7.338   4.756   4.342
 6410TIP3    H219176   7.386   4.899   4.328
 6411TIP3   OH219177   4.099   1.421   3.090
 6411TIP3    H119178   4.135   1.398   3.004
 6411TIP3    H219179   4.007   1.394   3.086
 6412TIP3   OH219180   1.881   2.545   0.938
 6412TIP3    H119181   1.919   2.466   0.899
 6412TIP3    H219182   1.805   2.513   0.987
 6413TIP3   OH219183   5.351   6.872   0.702
 6413TIP3    H119184   5.365   6.872   0.607
 6413TIP3    H219185   5.413   6.938   0.734
 6414TIP3   OH219186   5.052   4.564   5.118
 6414TIP3    H119187   5.123   4.566   5.183
 6414TIP3    H219188   5.081   4.625   5.050
 6415TIP3   OH219189   7.615   3.472   2.343
 6415TIP3    H119190   7.525   3.448   2.364
 6415TIP3    H219191   7.668   3.401   2.378
 6416TIP3   OH219192   2.433   4.064   1.947
 6416TIP3    H119193   2.393   4.143   1.982
 6416TIP3    H219194   2.522   4.090   1.923
 6417TIP3   OH219195   7.342   7.765   1.203
 6417TIP3    H119196   7.259   7.811   1.191
 6417TIP3    H219197   7.384   7.771   1.117
 6418TIP3   OH219198   2.493   4.585   4.542
 6418TIP3    H119199   2.494   4.667   4.492
 6418TIP3    H219200   2.421   4.595   4.604
 6419TIP3   OH219201   2.623   3.164   6.328
 6419TIP3    H119202   2.670   3.133   6.406
 6419TIP3    H219203   2.673   3.241   6.299
 6420TIP3   OH219204   6.508   1.328   1.965
 6420TIP3    H119205   6.439   1.311   2.029
 6420TIP3    H219206   6.565   1.252   1.971
 6421TIP3   OH219207   4.813   6.848   2.317
 6421TIP3    H119208   4.787   6.873   2.406
 6421TIP3    H219209   4.835   6.755   2.323
 6422TIP3   OH219210   0.612   6.707   6.590
 6422TIP3    H119211   0.705   6.694   6.611
 6422TIP3    H219212   0.613   6.734   6.498
 6423TIP3   OH219213   7.705   5.700   1.882
 6423TIP3    H119214   7.648   5.709   1.958
 6423TIP3    H219215   7.738   5.789   1.866
 6424TIP3   OH219216   3.615   6.537   3.800
 6424TIP3    H119217   3.556   6.515   3.871
 6424TIP3    H219218   3.686   6.473   3.807
 6425TIP3   OH219219   2.781   4.871   0.917
 6425TIP3    H119220   2.863   4.890   0.963
 6425TIP3    H219221   2.808   4.845   0.829
 6426TIP3   OH219222   4.456   5.624   2.598
 6426TIP3    H119223   4.463   5.608   2.692
 6426TIP3    H219224   4.486   5.543   2.557
 6427TIP3   OH219225   6.015   5.535   4.885
 6427TIP3    H119226   6.035   5.609   4.943
 6427TIP3    H219227   6.100   5.502   4.857
 6428TIP3   OH219228   1.211   2.628   3.782
 6428TIP3    H119229   1.265   2.549   3.783
 6428TIP3    H219230   1.272   2.699   3.803
 6429TIP3   OH219231   6.977   7.179   6.164
 6429TIP3    H119232   7.054   7.131   6.136
 6429TIP3    H219233   6.979   7.260   6.113
 6430TIP3   OH219234   0.484   1.739   2.177
 6430TIP3    H119235   0.561   1.737   2.120
 6430TIP3    H219236   0.418   1.689   2.129
 6431TIP3   OH219237   1.992   0.445   2.826
 6431TIP3    H119238   2.075   0.398   2.821
 6431TIP3    H219239   1.982   0.485   2.740
 6432TIP3   OH219240   6.155   7.686   2.981
 6432TIP3    H119241   6.203   7.658   3.058
 6432TIP3    H219242   6.212   7.752   2.941
 6433TIP3   OH219243   7.322   7.353   3.530
 6433TIP3    H119244   7.293   7.430   3.578
 6433TIP3    H219245   7.417   7.352   3.541
 6434TIP3   OH219246   5.148   5.525   4.171
 6434TIP3    H119247   5.212   5.482   4.228
 6434TIP3    H219248   5.103   5.453   4.126
 6435TIP3   OH219249   3.429   4.497   6.580
 6435TIP3    H119250   3.495   4.563   6.559
 6435TIP3    H219251   3.359   4.512   6.516
 6436TIP3   OH219252   5.805   2.107   3.049
 6436TIP3    H119253   5.742   2.060   3.104
 6436TIP3    H219254   5.886   2.057   3.057
 6437TIP3   OH219255   1.383   3.430   6.336
 6437TIP3    H119256   1.371   3.399   6.247
 6437TIP3    H219257   1.303   3.405   6.382
 6438TIP3   OH219258   7.954   2.113   4.116
 6438TIP3    H119259   8.049   2.108   4.125
 6438TIP3    H219260   7.937   2.090   4.025
 6439TIP3   OH219261   5.507   1.736   3.829
 6439TIP3    H119262   5.585   1.715   3.778
 6439TIP3    H219263   5.445   1.770   3.765
 6440TIP3   OH219264   3.334   0.900   0.398
 6440TIP3    H119265   3.285   0.976   0.365
 6440TIP3    H219266   3.421   0.935   0.418
 6441TIP3   OH219267   2.125   6.940   3.059
 6441TIP3    H119268   2.192   6.879   3.088
 6441TIP3    H219269   2.160   6.978   2.978
 6442TIP3   OH219270   0.887   3.106   3.102
 6442TIP3    H119271   0.883   3.155   3.020
 6442TIP3    H219272   0.837   3.160   3.164
 6443TIP3   OH219273   4.250   6.533   4.840
 6443TIP3    H119274   4.327   6.586   4.858
 6443TIP3    H219275   4.207   6.576   4.767
 6444TIP3   OH219276   6.060   5.693   0.258
 6444TIP3    H119277   5.985   5.655   0.212
 6444TIP3    H219278   6.136   5.645   0.225
 6445TIP3   OH219279   3.074   1.025   0.335
 6445TIP3    H119280   3.017   0.952   0.313
 6445TIP3    H219281   3.075   1.080   0.256
 6446TIP3   OH219282   7.280   4.875   3.902
 6446TIP3    H119283   7.285   4.966   3.874
 6446TIP3    H219284   7.365   4.838   3.877
 6447TIP3   OH219285   2.826   4.305   0.418
 6447TIP3    H119286   2.731   4.312   0.407
 6447TIP3    H219287   2.848   4.217   0.387
 6448TIP3   OH219288   8.041   4.745   4.916
 6448TIP3    H119289   8.132   4.738   4.947
 6448TIP3    H219290   8.046   4.805   4.842
 6449TIP3   OH219291   5.254   5.464   1.491
 6449TIP3    H119292   5.159   5.455   1.481
 6449TIP3    H219293   5.284   5.490   1.404
 6450TIP3   OH219294   2.851   1.312   2.429
 6450TIP3    H119295   2.797   1.234   2.438
 6450TIP3    H219296   2.916   1.288   2.361
 6451TIP3   OH219297   0.721   4.359   6.363
 6451TIP3    H119298   0.633   4.398   6.355
 6451TIP3    H219299   0.745   4.374   6.455
 6452TIP3   OH219300   3.172   1.743   1.484
 6452TIP3    H119301   3.199   1.828   1.520
 6452TIP3    H219302   3.242   1.683   1.508
 6453TIP3   OH219303   2.177   1.436   0.891
 6453TIP3    H119304   2.089   1.464   0.916
 6453TIP3    H219305   2.235   1.490   0.945
 6454TIP3   OH219306   6.149   2.585   6.712
 6454TIP3    H119307   6.195   2.572   6.629
 6454TIP3    H219308   6.124   2.496   6.739
 6455TIP3   OH219309   1.921   1.429   5.905
 6455TIP3    H119310   1.997   1.480   5.877
 6455TIP3    H219311   1.927   1.428   6.001
 6456TIP3   OH219312   7.571   2.249   2.340
 6456TIP3    H119313   7.582   2.325   2.284
 6456TIP3    H219314   7.476   2.239   2.349
 6457TIP3   OH219315   2.574   1.094   1.024
 6457TIP3    H119316   2.512   1.094   0.951
 6457TIP3    H219317   2.649   1.144   0.991
 6458TIP3   OH219318   4.283   1.928   3.499
 6458TIP3    H119319   4.258   1.983   3.425
 6458TIP3    H219320   4.201   1.912   3.545
 6459TIP3   OH219321   2.251   7.338   4.844
 6459TIP3    H119322   2.173   7.349   4.790
 6459TIP3    H219323   2.324   7.358   4.785
 6460TIP3   OH219324   4.608   6.514   1.681
 6460TIP3    H119325   4.600   6.421   1.659
 6460TIP3    H219326   4.666   6.550   1.614
 6461TIP3   OH219327   0.663   7.091   5.469
 6461TIP3    H119328   0.650   7.185   5.455
 6461TIP3    H219329   0.690   7.057   5.384
 6462TIP3   OH219330   3.005   1.768   0.528
 6462TIP3    H119331   3.052   1.829   0.471
 6462TIP3    H219332   2.976   1.698   0.470
 6463TIP3   OH219333   2.922   6.599   4.745
 6463TIP3    H119334   2.995   6.576   4.688
 6463TIP3    H219335   2.870   6.662   4.695
 6464TIP3   OH219336   5.658   2.146   0.916
 6464TIP3    H119337   5.728   2.092   0.951
 6464TIP3    H219338   5.679   2.155   0.823
 6465TIP3   OH219339   1.257   7.524   5.743
 6465TIP3    H119340   1.248   7.589   5.674
 6465TIP3    H219341   1.232   7.442   5.703
 6466TIP3   OH219342   7.450   0.099   2.700
 6466TIP3    H119343   7.382   0.031   2.697
 6466TIP3    H219344   7.412   0.174   2.655
 6467TIP3   OH219345   2.151   7.269   6.186
 6467TIP3    H119346   2.074   7.215   6.166
 6467TIP3    H219347   2.133   7.304   6.273
 6468TIP3   OH219348   6.667   1.063   5.933
 6468TIP3    H119349   6.708   1.150   5.928
 6468TIP3    H219350   6.720   1.015   5.997
 6469TIP3   OH219351   6.243   5.493   4.738
 6469TIP3    H119352   6.259   5.510   4.645
 6469TIP3    H219353   6.252   5.398   4.747
 6470TIP3   OH219354   6.693   6.149   3.250
 6470TIP3    H119355   6.774   6.191   3.219
 6470TIP3    H219356   6.721   6.094   3.323
 6471TIP3   OH219357   4.567   1.813   5.143
 6471TIP3    H119358   4.508   1.871   5.095
 6471TIP3    H219359   4.585   1.860   5.225
 6472TIP3   OH219360   3.718   2.217   5.148
 6472TIP3    H119361   3.661   2.269   5.092
 6472TIP3    H219362   3.673   2.134   5.159
 6473TIP3   OH219363   6.454   5.812   2.685
 6473TIP3    H119364   6.371   5.853   2.662
 6473TIP3    H219365   6.454   5.729   2.638
 6474TIP3   OH219366   4.814   5.703   1.808
 6474TIP3    H119367   4.869   5.683   1.884
 6474TIP3    H219368   4.873   5.744   1.746
 6475TIP3   OH219369   3.215   5.717   0.306
 6475TIP3    H119370   3.266   5.708   0.387
 6475TIP3    H219371   3.184   5.808   0.307
 6476TIP3   OH219372   5.185   3.481   1.623
 6476TIP3    H119373   5.132   3.412   1.662
 6476TIP3    H219374   5.141   3.563   1.647
 6477TIP3   OH219375   4.656   0.059   1.163
 6477TIP3    H119376   4.749   0.056   1.143
 6477TIP3    H219377   4.617   0.107   1.089
 6478TIP3   OH219378   5.008   5.376   2.496
 6478TIP3    H119379   5.084   5.360   2.553
 6478TIP3    H219380   4.935   5.388   2.556
 6479TIP3   OH219381   3.636   5.654   5.728
 6479TIP3    H119382   3.596   5.589   5.786
 6479TIP3    H219383   3.679   5.602   5.660
 6480TIP3   OH219384   3.224   2.616   2.190
 6480TIP3    H119385   3.264   2.607   2.277
 6480TIP3    H219386   3.296   2.598   2.130
 6481TIP3   OH219387   4.838   1.641   1.743
 6481TIP3    H119388   4.830   1.556   1.699
 6481TIP3    H219389   4.926   1.671   1.720
 6482TIP3   OH219390   7.402   1.219   4.322
 6482TIP3    H119391   7.365   1.306   4.306
 6482TIP3    H219392   7.488   1.237   4.362
 6483TIP3   OH219393   2.760   6.156   6.173
 6483TIP3    H119394   2.718   6.242   6.179
 6483TIP3    H219395   2.808   6.160   6.090
 6484TIP3   OH219396   7.039   3.209   5.742
 6484TIP3    H119397   6.981   3.266   5.793
 6484TIP3    H219398   6.984   3.134   5.719
 6485TIP3   OH219399   0.722   5.239   4.138
 6485TIP3    H119400   0.781   5.224   4.212
 6485TIP3    H219401   0.651   5.177   4.152
 6486TIP3   OH219402   5.828   7.023   3.901
 6486TIP3    H119403   5.886   6.968   3.953
 6486TIP3    H219404   5.745   7.023   3.949
 6487TIP3   OH219405   1.839   1.005   5.333
 6487TIP3    H119406   1.796   1.081   5.371
 6487TIP3    H219407   1.856   1.030   5.242
 6488TIP3   OH219408   6.060   0.748   6.080
 6488TIP3    H119409   6.076   0.655   6.098
 6488TIP3    H219410   5.983   0.770   6.133
 6489TIP3   OH219411   4.188   3.903   3.964
 6489TIP3    H119412   4.107   3.905   4.015
 6489TIP3    H219413   4.189   3.817   3.923
 6490TIP3   OH219414   1.323   6.525   6.106
 6490TIP3    H119415   1.383   6.494   6.039
 6490TIP3    H219416   1.336   6.620   6.109
 6491TIP3   OH219417   4.086   3.635   5.571
 6491TIP3    H119418   4.103   3.557   5.622
 6491TIP3    H219419   4.172   3.675   5.558
 6492TIP3   OH219420   4.283   3.849   5.640
 6492TIP3    H119421   4.299   3.798   5.719
 6492TIP3    H219422   4.226   3.920   5.669
 6493TIP3   OH219423   1.207   6.838   5.844
 6493TIP3    H119424   1.224   6.834   5.939
 6493TIP3    H219425   1.235   6.752   5.812
 6494TIP3   OH219426   7.799   4.650   5.401
 6494TIP3    H119427   7.770   4.563   5.373
 6494TIP3    H219428   7.850   4.633   5.481
 6495TIP3   OH219429   6.637   7.649   3.620
 6495TIP3    H119430   6.675   7.735   3.602
 6495TIP3    H219431   6.560   7.667   3.674
 6496TIP3   OH219432   7.177   0.904   4.821
 6496TIP3    H119433   7.084   0.912   4.800
 6496TIP3    H219434   7.221   0.897   4.736
 6497TIP3   OH219435   3.762   7.481   4.384
 6497TIP3    H119436   3.833   7.423   4.413
 6497TIP3    H219437   3.801   7.568   4.386
 6498TIP3   OH219438   1.265   3.659   5.789
 6498TIP3    H119439   1.172   3.655   5.766
 6498TIP3    H219440   1.306   3.702   5.714
 6499TIP3   OH219441   7.537   4.167   6.621
 6499TIP3    H119442   7.485   4.108   6.566
 6499TIP3    H219443   7.609   4.194   6.564
 6500TIP3   OH219444   4.929   5.879   4.879
 6500TIP3    H119445   4.872   5.830   4.819
 6500TIP3    H219446   4.901   5.970   4.870
 6501TIP3   OH219447   3.947   2.863   2.419
 6501TIP3    H119448   3.886   2.921   2.465
 6501TIP3    H219449   3.986   2.919   2.351
 6502TIP3   OH219450   2.966   0.777   2.450
 6502TIP3    H119451   2.895   0.751   2.509
 6502TIP3    H219452   3.030   0.706   2.457
 6503TIP3   OH219453   4.712   1.603   1.372
 6503TIP3    H119454   4.661   1.680   1.350
 6503TIP3    H219455   4.661   1.558   1.440
 6504TIP3   OH219456   1.691   4.249   2.820
 6504TIP3    H119457   1.745   4.174   2.796
 6504TIP3    H219458   1.722   4.320   2.763
 6505TIP3   OH219459   4.574   4.248   0.337
 6505TIP3    H119460   4.554   4.160   0.304
 6505TIP3    H219461   4.660   4.269   0.300
 6506TIP3   OH219462   7.262   7.473   2.582
 6506TIP3    H119463   7.219   7.549   2.621
 6506TIP3    H219464   7.296   7.505   2.499
 6507TIP3   OH219465   0.940   0.777   0.066
 6507TIP3    H119466   0.971   0.768   0.156
 6507TIP3    H219467   0.968   0.696   0.024
 6508TIP3   OH219468   2.669   2.970   1.792
 6508TIP3    H119469   2.710   2.933   1.714
 6508TIP3    H219470   2.598   3.024   1.758
 6509TIP3   OH219471   1.781   0.307   5.528
 6509TIP3    H119472   1.795   0.265   5.443
 6509TIP3    H219473   1.709   0.259   5.567
 6510TIP3   OH219474   5.697   1.163   5.598
 6510TIP3    H119475   5.685   1.254   5.622
 6510TIP3    H219476   5.613   1.137   5.559
 6511TIP3   OH219477   4.364   1.512   5.202
 6511TIP3    H119478   4.328   1.569   5.134
 6511TIP3    H219479   4.313   1.432   5.195
 6512TIP3   OH219480   4.643   3.137   5.312
 6512TIP3    H119481   4.625   3.045   5.328
 6512TIP3    H219482   4.561   3.181   5.332
 6513TIP3   OH219483   4.551   5.160   0.992
 6513TIP3    H119484   4.556   5.132   0.901
 6513TIP3    H219485   4.477   5.221   0.994
 6514TIP3   OH219486   0.807   0.186   3.851
 6514TIP3    H119487   0.828   0.259   3.909
 6514TIP3    H219488   0.864   0.199   3.775
 6515TIP3   OH219489   4.406   4.763   2.466
 6515TIP3    H119490   4.462   4.783   2.390
 6515TIP3    H219491   4.367   4.678   2.445
 6516TIP3   OH219492   3.588   1.859   3.414
 6516TIP3    H119493   3.623   1.784   3.365
 6516TIP3    H219494   3.613   1.841   3.505
 6517TIP3   OH219495   2.536   1.831   2.119
 6517TIP3    H119496   2.533   1.763   2.187
 6517TIP3    H219497   2.548   1.912   2.167
 6518TIP3   OH219498   1.268   0.454   3.010
 6518TIP3    H119499   1.229   0.541   3.004
 6518TIP3    H219500   1.218   0.401   2.947
 6519TIP3   OH219501   2.846   0.413   1.832
 6519TIP3    H119502   2.860   0.458   1.749
 6519TIP3    H219503   2.801   0.332   1.808
 6520TIP3   OH219504   1.705   2.622   5.063
 6520TIP3    H119505   1.772   2.610   4.996
 6520TIP3    H219506   1.755   2.645   5.142
 6521TIP3   OH219507   3.630   2.427   0.733
 6521TIP3    H119508   3.724   2.435   0.751
 6521TIP3    H219509   3.625   2.362   0.663
 6522TIP3   OH219510   5.668   7.202   4.130
 6522TIP3    H119511   5.640   7.240   4.047
 6522TIP3    H219512   5.614   7.123   4.139
 6523TIP3   OH219513   2.596   3.457   1.695
 6523TIP3    H119514   2.595   3.531   1.756
 6523TIP3    H219515   2.664   3.399   1.730
 6524TIP3   OH219516   7.139   5.363   1.675
 6524TIP3    H119517   7.226   5.359   1.634
 6524TIP3    H219518   7.157   5.359   1.769
 6525TIP3   OH219519   4.560   5.875   2.555
 6525TIP3    H119520   4.542   5.794   2.602
 6525TIP3    H219521   4.655   5.887   2.564
 6526TIP3   OH219522   5.426   3.459   1.701
 6526TIP3    H119523   5.345   3.494   1.662
 6526TIP3    H219524   5.427   3.367   1.673
 6527TIP3   OH219525   0.628   4.775   3.217
 6527TIP3    H119526   0.589   4.777   3.304
 6527TIP3    H219527   0.648   4.683   3.201
 6528TIP3   OH219528   6.466   7.554   5.600
 6528TIP3    H119529   6.463   7.641   5.560
 6528TIP3    H219530   6.422   7.566   5.685
 6529TIP3   OH219531   5.401   4.026   0.925
 6529TIP3    H119532   5.472   4.068   0.973
 6529TIP3    H219533   5.403   3.934   0.953
 6530TIP3   OH219534   4.009   2.261   0.203
 6530TIP3    H119535   4.059   2.202   0.259
 6530TIP3    H219536   3.943   2.205   0.162
 6531TIP3   OH219537   4.732   4.982   1.994
 6531TIP3    H119538   4.751   5.065   1.948
 6531TIP3    H219539   4.732   5.006   2.086
 6532TIP3   OH219540   7.817   7.214   2.378
 6532TIP3    H119541   7.816   7.294   2.429
 6532TIP3    H219542   7.883   7.159   2.421
 6533TIP3   OH219543   8.136   2.264   6.303
 6533TIP3    H119544   8.056   2.296   6.260
 6533TIP3    H219545   8.188   2.228   6.231
 6534TIP3   OH219546   0.150   0.796   4.009
 6534TIP3    H119547   0.154   0.727   3.943
 6534TIP3    H219548   0.061   0.792   4.043
 6535TIP3   OH219549   3.679   4.918   6.150
 6535TIP3    H119550   3.758   4.865   6.145
 6535TIP3    H219551   3.690   4.984   6.082
 6536TIP3   OH219552   1.985   2.927   6.640
 6536TIP3    H119553   2.079   2.911   6.629
 6536TIP3    H219554   1.944   2.842   6.622
 6537TIP3   OH219555   5.216   4.940   6.587
 6537TIP3    H119556   5.146   4.989   6.543
 6537TIP3    H219557   5.257   4.889   6.518
 6538TIP3   OH219558   2.064   2.119   5.242
 6538TIP3    H119559   2.121   2.187   5.277
 6538TIP3    H219560   1.989   2.117   5.302
 6539TIP3   OH219561   4.363   6.633   6.432
 6539TIP3    H119562   4.333   6.555   6.479
 6539TIP3    H219563   4.356   6.704   6.496
 6540TIP3   OH219564   5.401   3.755   2.318
 6540TIP3    H119565   5.358   3.814   2.379
 6540TIP3    H219566   5.495   3.770   2.332
 6541TIP3   OH219567   1.409   4.731   1.088
 6541TIP3    H119568   1.462   4.748   1.010
 6541TIP3    H219569   1.436   4.645   1.118
 6542TIP3   OH219570   0.136   0.724   2.638
 6542TIP3    H119571   0.065   0.662   2.625
 6542TIP3    H219572   0.098   0.795   2.690
 6543TIP3   OH219573   7.742   6.651   3.426
 6543TIP3    H119574   7.688   6.591   3.478
 6543TIP3    H219575   7.818   6.599   3.400
 6544TIP3   OH219576   0.600   6.214   2.130
 6544TIP3    H119577   0.592   6.230   2.036
 6544TIP3    H219578   0.673   6.153   2.138
 6545TIP3   OH219579   0.628   6.730   6.301
 6545TIP3    H119580   0.587   6.816   6.304
 6545TIP3    H219581   0.660   6.721   6.211
 6546TIP3   OH219582   6.300   1.017   0.380
 6546TIP3    H119583   6.340   1.101   0.356
 6546TIP3    H219584   6.242   0.997   0.307
 6547TIP3   OH219585   5.770   4.028   0.901
 6547TIP3    H119586   5.860   4.000   0.915
 6547TIP3    H219587   5.755   4.095   0.968
 6548TIP3   OH219588   6.107   0.434   3.580
 6548TIP3    H119589   6.032   0.379   3.557
 6548TIP3    H219590   6.115   0.496   3.508
 6549TIP3   OH219591   4.695   5.363   5.869
 6549TIP3    H119592   4.709   5.376   5.776
 6549TIP3    H219593   4.627   5.427   5.892
 6550TIP3   OH219594   3.382   6.766   2.863
 6550TIP3    H119595   3.298   6.797   2.831
 6550TIP3    H219596   3.374   6.670   2.863
 6551TIP3   OH219597   3.290   3.965   5.872
 6551TIP3    H119598   3.231   4.036   5.847
 6551TIP3    H219599   3.314   3.924   5.789
 6552TIP3   OH219600   0.276   6.570   5.768
 6552TIP3    H119601   0.205   6.580   5.705
 6552TIP3    H219602   0.348   6.533   5.717
 6553TIP3   OH219603   0.782   5.562   5.836
 6553TIP3    H119604   0.751   5.611   5.760
 6553TIP3    H219605   0.736   5.478   5.831
 6554TIP3   OH219606   1.907   4.671   6.045
 6554TIP3    H119607   1.974   4.679   6.113
 6554TIP3    H219608   1.853   4.598   6.073
 6555TIP3   OH219609   7.180   6.747   2.722
 6555TIP3    H119610   7.165   6.768   2.814
 6555TIP3    H219611   7.146   6.822   2.674
 6556TIP3   OH219612   6.990   0.109   4.412
 6556TIP3    H119613   6.904   0.109   4.371
 6556TIP3    H219614   7.049   0.138   4.342
 6557TIP3   OH219615   5.271   6.582   0.403
 6557TIP3    H119616   5.273   6.676   0.421
 6557TIP3    H219617   5.206   6.573   0.333
 6558TIP3   OH219618   5.041   0.345   3.973
 6558TIP3    H119619   5.002   0.403   4.038
 6558TIP3    H219620   4.993   0.363   3.893
 6559TIP3   OH219621   3.427   2.696   1.961
 6559TIP3    H119622   3.507   2.744   1.937
 6559TIP3    H219623   3.454   2.605   1.966
 6560TIP3   OH219624   4.966   4.912   2.204
 6560TIP3    H119625   4.897   4.871   2.257
 6560TIP3    H219626   4.967   5.003   2.234
 6561TIP3   OH219627   6.223   2.172   3.393
 6561TIP3    H119628   6.310   2.185   3.430
 6561TIP3    H219629   6.235   2.105   3.326
 6562TIP3   OH219630   3.613   4.330   1.973
 6562TIP3    H119631   3.668   4.298   1.901
 6562TIP3    H219632   3.571   4.251   2.008
 6563TIP3   OH219633   3.456   7.809   4.101
 6563TIP3    H119634   3.398   7.869   4.149
 6563TIP3    H219635   3.454   7.841   4.011
 6564TIP3   OH219636   5.339   1.511   2.332
 6564TIP3    H119637   5.280   1.493   2.404
 6564TIP3    H219638   5.359   1.605   2.340
 6565TIP3   OH219639   4.401   1.212   2.901
 6565TIP3    H119640   4.319   1.252   2.871
 6565TIP3    H219641   4.468   1.245   2.840
 6566TIP3   OH219642   7.275   2.115   5.392
 6566TIP3    H119643   7.209   2.098   5.325
 6566TIP3    H219644   7.324   2.191   5.359
 6567TIP3   OH219645   2.663   3.202   3.587
 6567TIP3    H119646   2.692   3.114   3.564
 6567TIP3    H219647   2.575   3.191   3.622
 6568TIP3   OH219648   7.580   2.160   0.083
 6568TIP3    H119649   7.548   2.247   0.057
 6568TIP3    H219650   7.502   2.107   0.093
 6569TIP3   OH219651   6.018   2.308   0.044
 6569TIP3    H119652   6.058   2.265  -0.031
 6569TIP3    H219653   6.033   2.249   0.117
 6570TIP3   OH219654   3.422   1.330   1.124
 6570TIP3    H119655   3.396   1.417   1.156
 6570TIP3    H219656   3.414   1.274   1.201
 6571TIP3   OH219657   5.535   5.702   4.088
 6571TIP3    H119658   5.503   5.785   4.122
 6571TIP3    H219659   5.528   5.710   3.993
 6572TIP3   OH219660   4.143   0.364   1.422
 6572TIP3    H119661   4.231   0.389   1.447
 6572TIP3    H219662   4.143   0.268   1.424
 6573TIP3   OH219663   5.198   2.374   5.333
 6573TIP3    H119664   5.131   2.317   5.294
 6573TIP3    H219665   5.160   2.462   5.328
 6574TIP3   OH219666   0.719   3.405   4.159
 6574TIP3    H119667   0.811   3.432   4.158
 6574TIP3    H219668   0.712   3.346   4.234
 6575TIP3   OH219669   4.380   7.169   6.661
 6575TIP3    H119670   4.284   7.175   6.659
 6575TIP3    H219671   4.409   7.256   6.689
 6576TIP3   OH219672   2.769   3.325   2.373
 6576TIP3    H119673   2.716   3.404   2.383
 6576TIP3    H219674   2.832   3.329   2.445
 6577TIP3   OH219675   5.213   2.392   1.148
 6577TIP3    H119676   5.239   2.481   1.126
 6577TIP3    H219677   5.275   2.336   1.102
 6578TIP3   OH219678   2.896   0.981   0.825
 6578TIP3    H119679   2.988   0.997   0.804
 6578TIP3    H219680   2.860   1.068   0.842
 6579TIP3   OH219681   4.575   4.026   0.175
 6579TIP3    H119682   4.650   4.038   0.118
 6579TIP3    H219683   4.551   3.934   0.163
 6580TIP3   OH219684   3.535   3.988   1.801
 6580TIP3    H119685   3.586   3.938   1.865
 6580TIP3    H219686   3.510   3.923   1.735
 6581TIP3   OH219687   5.806   6.285   2.456
 6581TIP3    H119688   5.884   6.232   2.474
 6581TIP3    H219689   5.797   6.282   2.361
 6582TIP3   OH219690   6.717   1.234   0.905
 6582TIP3    H119691   6.648   1.167   0.904
 6582TIP3    H219692   6.673   1.314   0.933
 6583TIP3   OH219693   4.592   7.232   0.879
 6583TIP3    H119694   4.557   7.320   0.889
 6583TIP3    H219695   4.687   7.243   0.883
 6584TIP3   OH219696   3.011   0.497   4.974
 6584TIP3    H119697   3.061   0.415   4.967
 6584TIP3    H219698   3.009   0.516   5.068
 6585TIP3   OH219699   4.264   3.145   5.698
 6585TIP3    H119700   4.264   3.156   5.793
 6585TIP3    H219701   4.350   3.108   5.679
 6586TIP3   OH219702   3.601   2.148   1.094
 6586TIP3    H119703   3.626   2.239   1.077
 6586TIP3    H219704   3.669   2.116   1.153
 6587TIP3   OH219705   5.380   4.390   1.170
 6587TIP3    H119706   5.426   4.474   1.167
 6587TIP3    H219707   5.310   4.403   1.234
 6588TIP3   OH219708   2.819   2.651   1.787
 6588TIP3    H119709   2.896   2.597   1.806
 6588TIP3    H219710   2.824   2.723   1.850
 6589TIP3   OH219711   4.140   0.688   4.686
 6589TIP3    H119712   4.226   0.731   4.680
 6589TIP3    H219713   4.086   0.736   4.623
 6590TIP3   OH219714   1.884   3.467   5.832
 6590TIP3    H119715   1.817   3.408   5.798
 6590TIP3    H219716   1.896   3.531   5.761
 6591TIP3   OH219717   2.240   6.131   6.091
 6591TIP3    H119718   2.218   6.181   6.013
 6591TIP3    H219719   2.167   6.147   6.152
 6592TIP3   OH219720   5.488   1.268   1.735
 6592TIP3    H119721   5.485   1.245   1.643
 6592TIP3    H219722   5.581   1.267   1.757
 6593TIP3   OH219723   4.280   3.365   3.007
 6593TIP3    H119724   4.238   3.448   3.028
 6593TIP3    H219725   4.373   3.381   3.019
 6594TIP3   OH219726   1.257   1.913   1.463
 6594TIP3    H119727   1.174   1.959   1.473
 6594TIP3    H219728   1.310   1.940   1.538
 6595TIP3   OH219729   5.228   1.096   0.477
 6595TIP3    H119730   5.296   1.130   0.418
 6595TIP3    H219731   5.236   1.001   0.472
 6596TIP3   OH219732   7.837   1.397   5.733
 6596TIP3    H119733   7.910   1.438   5.687
 6596TIP3    H219734   7.878   1.328   5.786
 6597TIP3   OH219735   5.079   0.260   4.940
 6597TIP3    H119736   5.124   0.344   4.947
 6597TIP3    H219737   5.066   0.247   4.846
 6598TIP3   OH219738   0.195   0.612   3.196
 6598TIP3    H119739   0.251   0.604   3.119
 6598TIP3    H219740   0.115   0.566   3.173
 6599TIP3   OH219741   3.043   2.426   5.641
 6599TIP3    H119742   3.000   2.367   5.702
 6599TIP3    H219743   3.088   2.368   5.579
 6600TIP3   OH219744   2.866   6.439   0.836
 6600TIP3    H119745   2.906   6.419   0.751
 6600TIP3    H219746   2.773   6.420   0.823
 6601TIP3   OH219747   6.980   3.099   3.944
 6601TIP3    H119748   6.910   3.164   3.945
 6601TIP3    H219749   6.982   3.067   3.854
 6602TIP3   OH219750   3.374   1.580   3.953
 6602TIP3    H119751   3.361   1.515   3.884
 6602TIP3    H219752   3.325   1.657   3.924
 6603TIP3   OH219753   1.200   1.020   3.393
 6603TIP3    H119754   1.122   0.972   3.421
 6603TIP3    H219755   1.170   1.075   3.320
 6604TIP3   OH219756   6.210   2.566   5.890
 6604TIP3    H119757   6.299   2.535   5.879
 6604TIP3    H219758   6.172   2.509   5.957
 6605TIP3   OH219759   5.204   3.231   1.845
 6605TIP3    H119760   5.202   3.209   1.752
 6605TIP3    H219761   5.191   3.148   1.890
 6606TIP3   OH219762   0.782   4.045   2.259
 6606TIP3    H119763   0.712   4.006   2.205
 6606TIP3    H219764   0.824   3.970   2.302
 6607TIP3   OH219765   6.226   1.432   6.156
 6607TIP3    H119766   6.310   1.388   6.162
 6607TIP3    H219767   6.227   1.477   6.072
 6608TIP3   OH219768   3.948   0.207   2.106
 6608TIP3    H119769   3.898   0.125   2.107
 6608TIP3    H219770   3.904   0.263   2.170
 6609TIP3   OH219771   6.261   5.177   4.806
 6609TIP3    H119772   6.276   5.209   4.895
 6609TIP3    H219773   6.249   5.083   4.816
 6610TIP3   OH219774   8.142   7.649   1.015
 6610TIP3    H119775   8.167   7.622   1.103
 6610TIP3    H219776   8.226   7.672   0.973
 6611TIP3   OH219777   2.094   4.833   6.641
 6611TIP3    H119778   2.114   4.919   6.605
 6611TIP3    H219779   2.028   4.849   6.707
 6612TIP3   OH219780   7.094   5.927   1.646
 6612TIP3    H119781   7.164   5.890   1.593
 6612TIP3    H219782   7.050   5.990   1.588
 6613TIP3   OH219783   4.384   0.574   5.223
 6613TIP3    H119784   4.294   0.572   5.256
 6613TIP3    H219785   4.438   0.594   5.300
 6614TIP3   OH219786   0.903   1.144   2.699
 6614TIP3    H119787   0.892   1.163   2.792
 6614TIP3    H219788   0.816   1.117   2.670
 6615TIP3   OH219789   6.141   5.719   2.575
 6615TIP3    H119790   6.177   5.801   2.541
 6615TIP3    H219791   6.214   5.657   2.570
 6616TIP3   OH219792   6.094   1.660   6.251
 6616TIP3    H119793   6.023   1.686   6.192
 6616TIP3    H219794   6.104   1.566   6.237
 6617TIP3   OH219795   4.203   5.228   4.703
 6617TIP3    H119796   4.186   5.188   4.617
 6617TIP3    H219797   4.280   5.283   4.688
 6618TIP3   OH219798   6.533   1.727   4.621
 6618TIP3    H119799   6.572   1.646   4.653
 6618TIP3    H219800   6.449   1.700   4.583
 6619TIP3   OH219801   7.770   0.845   0.162
 6619TIP3    H119802   7.741   0.934   0.141
 6619TIP3    H219803   7.839   0.858   0.228
 6620TIP3   OH219804   5.945   4.362   2.233
 6620TIP3    H119805   6.031   4.350   2.193
 6620TIP3    H219806   5.946   4.451   2.266
 6621TIP3   OH219807   6.275   6.225   0.182
 6621TIP3    H119808   6.255   6.132   0.196
 6621TIP3    H219809   6.189   6.267   0.175
 6622TIP3   OH219810   0.272   6.958   5.538
 6622TIP3    H119811   0.362   6.988   5.550
 6622TIP3    H219812   0.243   6.930   5.625
 6623TIP3   OH219813   2.347   0.906   0.309
 6623TIP3    H119814   2.396   0.853   0.372
 6623TIP3    H219815   2.413   0.937   0.247
 6624TIP3   OH219816   3.451   3.954   3.564
 6624TIP3    H119817   3.546   3.958   3.569
 6624TIP3    H219818   3.420   4.029   3.614
 6625TIP3   OH219819   1.716   6.388   6.087
 6625TIP3    H119820   1.740   6.393   6.180
 6625TIP3    H219821   1.793   6.351   6.045
 6626TIP3   OH219822   4.705   3.178   2.961
 6626TIP3    H119823   4.783   3.196   2.908
 6626TIP3    H219824   4.732   3.108   3.020
 6627TIP3   OH219825   4.216   0.024   0.240
 6627TIP3    H119826   4.198   0.075   0.319
 6627TIP3    H219827   4.151  -0.046   0.241
 6628TIP3   OH219828   6.398   2.573   1.986
 6628TIP3    H119829   6.306   2.548   1.996
 6628TIP3    H219830   6.395   2.669   1.979
 6629TIP3   OH219831   3.801   1.487   1.901
 6629TIP3    H119832   3.785   1.396   1.925
 6629TIP3    H219833   3.778   1.538   1.979
 6630TIP3   OH219834   0.004   0.151   0.319
 6630TIP3    H119835   0.080   0.093   0.327
 6630TIP3    H219836  -0.010   0.159   0.225
 6631TIP3   OH219837   3.871   2.455   6.291
 6631TIP3    H119838   3.837   2.531   6.244
 6631TIP3    H219839   3.830   2.460   6.377
 6632TIP3   OH219840   7.197   7.329   1.628
 6632TIP3    H119841   7.225   7.344   1.718
 6632TIP3    H219842   7.261   7.376   1.575
 6633TIP3   OH219843   5.074   0.394   5.976
 6633TIP3    H119844   5.086   0.486   5.998
 6633TIP3    H219845   5.057   0.351   6.060
 6634TIP3   OH219846   5.820   2.911   4.941
 6634TIP3    H119847   5.771   2.901   4.860
 6634TIP3    H219848   5.884   2.840   4.940
 6635TIP3   OH219849   1.980   1.607   1.582
 6635TIP3    H119850   2.075   1.606   1.572
 6635TIP3    H219851   1.947   1.658   1.508
 6636TIP3   OH219852   4.869   1.803   6.366
 6636TIP3    H119853   4.907   1.878   6.412
 6636TIP3    H219854   4.911   1.804   6.280
 6637TIP3   OH219855   2.029   5.372   1.636
 6637TIP3    H119856   1.951   5.421   1.612
 6637TIP3    H219857   2.015   5.346   1.727
 6638TIP3   OH219858   5.012   1.238   0.612
 6638TIP3    H119859   5.061   1.180   0.554
 6638TIP3    H219860   5.061   1.321   0.609
 6639TIP3   OH219861   5.084   5.640   0.680
 6639TIP3    H119862   5.025   5.570   0.709
 6639TIP3    H219863   5.098   5.621   0.587
 6640TIP3   OH219864   4.794   0.391   3.163
 6640TIP3    H119865   4.766   0.463   3.106
 6640TIP3    H219866   4.729   0.389   3.233
 6641TIP3   OH219867   8.103   6.789   6.411
 6641TIP3    H119868   8.140   6.832   6.489
 6641TIP3    H219869   8.163   6.813   6.340
 6642TIP3   OH219870   4.907   0.877   1.665
 6642TIP3    H119871   4.977   0.872   1.731
 6642TIP3    H219872   4.874   0.966   1.673
 6643TIP3   OH219873   8.067   0.127   0.435
 6643TIP3    H119874   8.048   0.144   0.527
 6643TIP3    H219875   8.161   0.145   0.426
 6644TIP3   OH219876   5.788   1.290   3.732
 6644TIP3    H119877   5.871   1.336   3.717
 6644TIP3    H219878   5.811   1.214   3.785
 6645TIP3   OH219879   2.019   0.883   2.628
 6645TIP3    H119880   1.935   0.883   2.674
 6645TIP3    H219881   2.085   0.886   2.698
 6646TIP3   OH219882   4.526   7.737   4.853
 6646TIP3    H119883   4.506   7.647   4.877
 6646TIP3    H219884   4.615   7.752   4.885
 6647TIP3   OH219885   4.248   1.220   3.242
 6647TIP3    H119886   4.255   1.315   3.246
 6647TIP3    H219887   4.169   1.204   3.189
 6648TIP3   OH219888   1.151   2.189   5.750
 6648TIP3    H119889   1.068   2.236   5.747
 6648TIP3    H219890   1.176   2.190   5.842
 6649TIP3   OH219891   5.105   6.605   2.434
 6649TIP3    H119892   5.067   6.520   2.410
 6649TIP3    H219893   5.030   6.657   2.464
 6650TIP3   OH219894   7.678   5.023   6.283
 6650TIP3    H119895   7.592   5.054   6.309
 6650TIP3    H219896   7.661   4.952   6.222
 6651TIP3   OH219897   2.888   7.311   2.218
 6651TIP3    H119898   2.921   7.334   2.305
 6651TIP3    H219899   2.964   7.273   2.174
 6652TIP3   OH219900   6.321   2.382   1.282
 6652TIP3    H119901   6.324   2.364   1.188
 6652TIP3    H219902   6.338   2.476   1.289
 6653TIP3   OH219903   0.233   3.651   3.328
 6653TIP3    H119904   0.152   3.601   3.318
 6653TIP3    H219905   0.204   3.738   3.357
 6654TIP3   OH219906   1.775   4.562   1.229
 6654TIP3    H119907   1.813   4.622   1.292
 6654TIP3    H219908   1.807   4.475   1.255
 6655TIP3   OH219909   4.664   6.419   1.281
 6655TIP3    H119910   4.576   6.404   1.317
 6655TIP3    H219911   4.652   6.412   1.186
 6656TIP3   OH219912   1.987   5.247   6.087
 6656TIP3    H119913   1.913   5.269   6.031
 6656TIP3    H219914   2.064   5.251   6.029
 6657TIP3   OH219915   3.491   1.084   2.110
 6657TIP3    H119916   3.424   1.039   2.163
 6657TIP3    H219917   3.454   1.085   2.021
 6658TIP3   OH219918   5.332   3.250   6.532
 6658TIP3    H119919   5.390   3.175   6.520
 6658TIP3    H219920   5.256   3.230   6.477
 6659TIP3   OH219921   1.915   1.069   6.624
 6659TIP3    H119922   1.998   1.046   6.665
 6659TIP3    H219923   1.866   0.987   6.621
 6660TIP3   OH219924   3.272   7.160   0.418
 6660TIP3    H119925   3.201   7.213   0.455
 6660TIP3    H219926   3.312   7.118   0.494
 6661TIP3   OH219927   2.803   3.784   0.288
 6661TIP3    H119928   2.823   3.868   0.329
 6661TIP3    H219929   2.887   3.754   0.252
 6662TIP3   OH219930   3.282   4.702   0.723
 6662TIP3    H119931   3.257   4.765   0.790
 6662TIP3    H219932   3.208   4.702   0.661
 6663TIP3   OH219933   2.953   1.977  -0.034
 6663TIP3    H119934   2.935   2.032   0.042
 6663TIP3    H219935   3.025   1.921  -0.007
 6664TIP3   OH219936   1.232   1.079   6.022
 6664TIP3    H119937   1.164   1.135   5.985
 6664TIP3    H219938   1.293   1.064   5.950
 6665TIP3   OH219939   7.187   5.051   4.906
 6665TIP3    H119940   7.251   5.120   4.921
 6665TIP3    H219941   7.162   5.023   4.994
 6666TIP3   OH219942   2.825   4.719   0.278
 6666TIP3    H119943   2.734   4.696   0.260
 6666TIP3    H219944   2.870   4.710   0.194
 6667TIP3   OH219945   0.172   6.136   2.646
 6667TIP3    H119946   0.192   6.166   2.557
 6667TIP3    H219947   0.256   6.108   2.681
 6668TIP3   OH219948   4.872   7.478   1.632
 6668TIP3    H119949   4.937   7.545   1.611
 6668TIP3    H219950   4.828   7.460   1.549
 6669TIP3   OH219951   0.926   1.386   5.617
 6669TIP3    H119952   1.017   1.410   5.637
 6669TIP3    H219953   0.881   1.390   5.701
 6670TIP3   OH219954   3.265   0.642   5.034
 6670TIP3    H119955   3.191   0.638   4.973
 6670TIP3    H219956   3.263   0.557   5.079
 6671TIP3   OH219957   7.114   2.308   1.172
 6671TIP3    H119958   7.154   2.329   1.088
 6671TIP3    H219959   7.184   2.265   1.222
 6672TIP3   OH219960   0.217   4.488   1.593
 6672TIP3    H119961   0.171   4.572   1.592
 6672TIP3    H219962   0.148   4.422   1.585
 6673TIP3   OH219963   4.613   4.185   6.179
 6673TIP3    H119964   4.622   4.247   6.251
 6673TIP3    H219965   4.699   4.183   6.139
 6674TIP3   OH219966   2.509   5.829   1.083
 6674TIP3    H119967   2.597   5.845   1.050
 6674TIP3    H219968   2.514   5.846   1.177
 6675TIP3   OH219969   4.193   6.019   3.115
 6675TIP3    H119970   4.280   6.003   3.078
 6675TIP3    H219971   4.137   5.955   3.071
 6676TIP3   OH219972   1.063   6.630   1.145
 6676TIP3    H119973   1.110   6.620   1.228
 6676TIP3    H219974   1.127   6.606   1.078
 6677TIP3   OH219975   3.839   1.679   0.555
 6677TIP3    H119976   3.920   1.703   0.510
 6677TIP3    H219977   3.796   1.763   0.571
 6678TIP3   OH219978   6.213   6.831   4.950
 6678TIP3    H119979   6.193   6.867   5.036
 6678TIP3    H219980   6.302   6.860   4.931
 6679TIP3   OH219981   6.686   3.144   3.700
 6679TIP3    H119982   6.722   3.192   3.775
 6679TIP3    H219983   6.679   3.054   3.731
 6680TIP3   OH219984   6.299   2.228   6.134
 6680TIP3    H119985   6.296   2.204   6.041
 6680TIP3    H219986   6.379   2.281   6.142
 6681TIP3   OH219987   6.061   2.540   3.505
 6681TIP3    H119988   6.111   2.601   3.559
 6681TIP3    H219989   6.013   2.596   3.444
 6682TIP3   OH219990   7.838   2.300   4.623
 6682TIP3    H119991   7.757   2.304   4.571
 6682TIP3    H219992   7.850   2.390   4.653
 6683TIP3   OH219993   8.358   3.566   3.872
 6683TIP3    H119994   8.292   3.629   3.901
 6683TIP3    H219995   8.340   3.488   3.924
 6684TIP3   OH219996   1.426   2.261   0.333
 6684TIP3    H119997   1.446   2.170   0.313
 6684TIP3    H219998   1.436   2.307   0.249
 6685TIP3   OH219999   2.804   3.581   0.677
 6685TIP3    H120000   2.775   3.580   0.768
 6685TIP3    H220001   2.895   3.608   0.681
 6686TIP3   OH220002   7.321   6.605   1.559
 6686TIP3    H120003   7.243   6.575   1.606
 6686TIP3    H220004   7.286   6.665   1.492
 6687TIP3   OH220005   6.407   4.975   2.130
 6687TIP3    H120006   6.343   4.904   2.133
 6687TIP3    H220007   6.428   4.992   2.222
 6688TIP3   OH220008   2.696   2.331   0.715
 6688TIP3    H120009   2.666   2.412   0.756
 6688TIP3    H220010   2.766   2.359   0.656
 6689TIP3   OH220011   1.791   5.708   0.121
 6689TIP3    H120012   1.746   5.627   0.096
 6689TIP3    H220013   1.884   5.688   0.111
 6690TIP3   OH220014   5.546   6.662   0.703
 6690TIP3    H120015   5.556   6.634   0.612
 6690TIP3    H220016   5.630   6.703   0.725
 6691TIP3   OH220017   1.004   3.944   2.856
 6691TIP3    H120018   1.024   3.967   2.765
 6691TIP3    H220019   1.079   3.893   2.885
 6692TIP3   OH220020   1.918   6.759   2.976
 6692TIP3    H120021   1.974   6.699   3.024
 6692TIP3    H220022   1.937   6.845   3.013
 6693TIP3   OH220023   5.210   3.779   4.852
 6693TIP3    H120024   5.227   3.863   4.894
 6693TIP3    H220025   5.150   3.734   4.911
 6694TIP3   OH220026   1.397   2.913   0.144
 6694TIP3    H120027   1.477   2.866   0.121
 6694TIP3    H220028   1.426   3.002   0.162
 6695TIP3   OH220029   2.868   2.345   4.136
 6695TIP3    H120030   2.906   2.363   4.222
 6695TIP3    H220031   2.926   2.390   4.074
 6696TIP3   OH220032   2.808   6.503   5.762
 6696TIP3    H120033   2.788   6.454   5.682
 6696TIP3    H220034   2.840   6.587   5.731
 6697TIP3   OH220035   1.861   0.691   3.211
 6697TIP3    H120036   1.790   0.753   3.198
 6697TIP3    H220037   1.824   0.607   3.184
 6698TIP3   OH220038   7.878   2.133   0.068
 6698TIP3    H120039   7.787   2.108   0.084
 6698TIP3    H220040   7.873   2.194  -0.006
 6699TIP3   OH220041   1.836   5.506   5.581
 6699TIP3    H120042   1.922   5.534   5.612
 6699TIP3    H220043   1.832   5.537   5.491
 6700TIP3   OH220044   2.959   7.239   5.649
 6700TIP3    H120045   2.922   7.290   5.577
 6700TIP3    H220046   2.928   7.282   5.728
 6701TIP3   OH220047   1.593   3.090   4.998
 6701TIP3    H120048   1.571   3.021   5.061
 6701TIP3    H220049   1.650   3.047   4.934
 6702TIP3   OH220050   6.309   4.615   5.064
 6702TIP3    H120051   6.390   4.570   5.040
 6702TIP3    H220052   6.239   4.552   5.044
 6703TIP3   OH220053   8.081   0.412   0.968
 6703TIP3    H120054   8.010   0.452   1.019
 6703TIP3    H220055   8.113   0.483   0.913
 6704TIP3   OH220056   3.643   2.557   2.163
 6704TIP3    H120057   3.683   2.594   2.241
 6704TIP3    H220058   3.715   2.550   2.100
 6705TIP3   OH220059   5.947   6.529   4.677
 6705TIP3    H120060   5.867   6.507   4.725
 6705TIP3    H220061   5.944   6.624   4.668
 6706TIP3   OH220062   1.544   2.762   2.199
 6706TIP3    H120063   1.567   2.699   2.267
 6706TIP3    H220064   1.491   2.828   2.243
 6707TIP3   OH220065   4.718   5.071   6.218
 6707TIP3    H120066   4.810   5.070   6.244
 6707TIP3    H220067   4.696   4.980   6.201
 6708TIP3   OH220068   7.053   7.812   6.731
 6708TIP3    H120069   7.015   7.737   6.777
 6708TIP3    H220070   7.000   7.887   6.759
 6709TIP3   OH220071   1.675   0.870   5.678
 6709TIP3    H120072   1.622   0.901   5.605
 6709TIP3    H220073   1.719   0.792   5.645
 6710TIP3   OH220074   6.882   0.619   2.408
 6710TIP3    H120075   6.830   0.564   2.350
 6710TIP3    H220076   6.860   0.709   2.382
 6711TIP3   OH220077   5.594   0.207   3.719
 6711TIP3    H120078   5.522   0.230   3.778
 6711TIP3    H220079   5.622   0.291   3.683
 6712TIP3   OH220080   3.116   2.540   2.768
 6712TIP3    H120081   3.162   2.495   2.839
 6712TIP3    H220082   3.099   2.472   2.704
 6713TIP3   OH220083   4.521   3.652   0.998
 6713TIP3    H120084   4.537   3.579   0.938
 6713TIP3    H220085   4.607   3.691   1.011
 6714TIP3   OH220086   3.511   6.826   6.212
 6714TIP3    H120087   3.550   6.802   6.296
 6714TIP3    H220088   3.441   6.887   6.234
 6715TIP3   OH220089   6.683   5.593   0.407
 6715TIP3    H120090   6.650   5.519   0.459
 6715TIP3    H220091   6.737   5.552   0.339
 6716TIP3   OH220092   6.470   3.143   4.121
 6716TIP3    H120093   6.519   3.161   4.040
 6716TIP3    H220094   6.410   3.217   4.129
 6717TIP3   OH220095   7.827   0.601   4.737
 6717TIP3    H120096   7.918   0.615   4.765
 6717TIP3    H220097   7.823   0.641   4.650
 6718TIP3   OH220098   1.393   3.231   5.369
 6718TIP3    H120099   1.377   3.188   5.285
 6718TIP3    H220100   1.322   3.200   5.425
 6719TIP3   OH220101   0.502   1.451   1.786
 6719TIP3    H120102   0.528   1.360   1.795
 6719TIP3    H220103   0.449   1.453   1.706
 6720TIP3   OH220104   6.800   2.395   6.454
 6720TIP3    H120105   6.859   2.357   6.388
 6720TIP3    H220106   6.794   2.327   6.522
 6721TIP3   OH220107   1.726   0.479   5.188
 6721TIP3    H120108   1.717   0.398   5.239
 6721TIP3    H220109   1.665   0.470   5.116
 6722TIP3   OH220110   4.857   3.111   5.489
 6722TIP3    H120111   4.789   3.141   5.429
 6722TIP3    H220112   4.884   3.026   5.454
 6723TIP3   OH220113   3.983   4.841   3.121
 6723TIP3    H120114   3.919   4.777   3.089
 6723TIP3    H220115   3.943   4.881   3.197
 6724TIP3   OH220116   2.098   6.558   6.612
 6724TIP3    H120117   2.181   6.570   6.567
 6724TIP3    H220118   2.121   6.556   6.705
 6725TIP3   OH220119   2.503   5.418   1.382
 6725TIP3    H120120   2.548   5.476   1.442
 6725TIP3    H220121   2.492   5.470   1.302
 6726TIP3   OH220122   7.892   6.780   6.633
 6726TIP3    H120123   7.935   6.700   6.602
 6726TIP3    H220124   7.963   6.831   6.673
 6727TIP3   OH220125   2.988   0.990   5.128
 6727TIP3    H120126   2.964   1.074   5.089
 6727TIP3    H220127   2.906   0.940   5.128
 6728TIP3   OH220128   6.529   0.705   5.587
 6728TIP3    H120129   6.475   0.634   5.622
 6728TIP3    H220130   6.523   0.694   5.492
 6729TIP3   OH220131   7.237   4.389   3.225
 6729TIP3    H120132   7.298   4.464   3.226
 6729TIP3    H220133   7.259   4.340   3.304
 6730TIP3   OH220134   4.111   4.935   5.961
 6730TIP3    H120135   4.126   4.968   5.872
 6730TIP3    H220136   4.176   4.866   5.972
 6731TIP3   OH220137   0.545   4.662   0.424
 6731TIP3    H120138   0.611   4.648   0.492
 6731TIP3    H220139   0.480   4.593   0.441
 6732TIP3   OH220140   4.967   2.207   6.386
 6732TIP3    H120141   4.884   2.206   6.434
 6732TIP3    H220142   5.012   2.286   6.417
 6733TIP3   OH220143   3.859   6.740   3.125
 6733TIP3    H120144   3.783   6.780   3.083
 6733TIP3    H220145   3.826   6.707   3.209
 6734TIP3   OH220146   2.791   2.127   2.037
 6734TIP3    H120147   2.877   2.164   2.019
 6734TIP3    H220148   2.799   2.035   2.014
 6735TIP3   OH220149   6.101   4.751   2.237
 6735TIP3    H120150   6.053   4.751   2.154
 6735TIP3    H220151   6.082   4.836   2.276
 6736TIP3   OH220152   6.127   1.080   0.186
 6736TIP3    H120153   6.106   1.003   0.135
 6736TIP3    H220154   6.170   1.139   0.124
 6737TIP3   OH220155   0.893   3.763   3.539
 6737TIP3    H120156   0.919   3.854   3.523
 6737TIP3    H220157   0.968   3.711   3.509
 6738TIP3   OH220158   6.626   5.684   5.171
 6738TIP3    H120159   6.666   5.616   5.225
 6738TIP3    H220160   6.604   5.639   5.089
 6739TIP3   OH220161   2.435   3.489   2.999
 6739TIP3    H120162   2.387   3.541   3.063
 6739TIP3    H220163   2.447   3.548   2.925
 6740TIP3   OH220164   4.417   2.493   4.936
 6740TIP3    H120165   4.438   2.400   4.942
 6740TIP3    H220166   4.497   2.538   4.965
 6741TIP3   OH220167   0.366   2.765   3.066
 6741TIP3    H120168   0.338   2.854   3.043
 6741TIP3    H220169   0.458   2.762   3.040
 6742TIP3   OH220170   3.288   1.168   3.574
 6742TIP3    H120171   3.211   1.210   3.537
 6742TIP3    H220172   3.269   1.162   3.668
 6743TIP3   OH220173   1.511   1.141   6.094
 6743TIP3    H120174   1.566   1.132   6.171
 6743TIP3    H220175   1.444   1.204   6.120
 6744TIP3   OH220176   1.432   1.984   1.690
 6744TIP3    H120177   1.513   2.025   1.658
 6744TIP3    H220178   1.419   2.023   1.777
 6745TIP3   OH220179   3.651   6.534   0.771
 6745TIP3    H120180   3.612   6.562   0.688
 6745TIP3    H220181   3.636   6.608   0.831
 6746TIP3   OH220182   3.688   1.916   2.454
 6746TIP3    H120183   3.744   1.845   2.423
 6746TIP3    H220184   3.654   1.956   2.374
 6747TIP3   OH220185   3.958   5.386   4.735
 6747TIP3    H120186   3.999   5.472   4.725
 6747TIP3    H220187   4.030   5.324   4.729
 6748TIP3   OH220188   6.152   2.080   6.300
 6748TIP3    H120189   6.210   2.141   6.254
 6748TIP3    H220190   6.100   2.039   6.231
 6749TIP3   OH220191   5.471   3.006   3.948
 6749TIP3    H120192   5.467   2.996   4.043
 6749TIP3    H220193   5.521   3.087   3.935
 6750TIP3   OH220194   6.760   2.440   3.512
 6750TIP3    H120195   6.790   2.408   3.596
 6750TIP3    H220196   6.681   2.389   3.493
 6751TIP3   OH220197   4.861   7.669   2.411
 6751TIP3    H120198   4.811   7.639   2.488
 6751TIP3    H220199   4.816   7.630   2.337
 6752TIP3   OH220200   4.541   1.696   0.299
 6752TIP3    H120201   4.561   1.786   0.323
 6752TIP3    H220202   4.456   1.701   0.254
 6753TIP3   OH220203   2.027   3.792   0.203
 6753TIP3    H120204   2.077   3.862   0.159
 6753TIP3    H220205   2.089   3.753   0.264
 6754TIP3   OH220206   4.227   4.643   5.216
 6754TIP3    H120207   4.167   4.569   5.227
 6754TIP3    H220208   4.288   4.614   5.149
 6755TIP3   OH220209   2.877   4.810   6.126
 6755TIP3    H120210   2.790   4.830   6.161
 6755TIP3    H220211   2.930   4.792   6.204
 6756TIP3   OH220212   7.252   2.781   2.399
 6756TIP3    H120213   7.203   2.751   2.476
 6756TIP3    H220214   7.246   2.876   2.403
 6757TIP3   OH220215   6.644   6.896   1.427
 6757TIP3    H120216   6.636   6.935   1.340
 6757TIP3    H220217   6.558   6.855   1.443
 6758TIP3   OH220218   4.192   0.059   3.817
 6758TIP3    H120219   4.116   0.079   3.762
 6758TIP3    H220220   4.241   0.141   3.821
 6759TIP3   OH220221   1.724   5.524   6.229
 6759TIP3    H120222   1.672   5.533   6.309
 6759TIP3    H220223   1.730   5.430   6.215
 6760TIP3   OH220224   3.507   3.632   3.258
 6760TIP3    H120225   3.477   3.584   3.334
 6760TIP3    H220226   3.550   3.710   3.293
 6761TIP3   OH220227   2.797   3.879   3.652
 6761TIP3    H120228   2.823   3.796   3.692
 6761TIP3    H220229   2.735   3.918   3.714
 6762TIP3   OH220230   6.608   0.014   6.272
 6762TIP3    H120231   6.673  -0.051   6.297
 6762TIP3    H220232   6.554   0.026   6.351
 6763TIP3   OH220233   1.839   7.720   6.140
 6763TIP3    H120234   1.837   7.677   6.225
 6763TIP3    H220235   1.747   7.721   6.112
 6764TIP3   OH220236   1.942   0.835   3.823
 6764TIP3    H120237   1.899   0.803   3.902
 6764TIP3    H220238   1.890   0.911   3.796
 6765TIP3   OH220239   0.583   2.521   2.226
 6765TIP3    H120240   0.549   2.583   2.162
 6765TIP3    H220241   0.533   2.540   2.306
 6766TIP3   OH220242   0.847   0.731   1.272
 6766TIP3    H120243   0.879   0.789   1.203
 6766TIP3    H220244   0.784   0.784   1.320
 6767TIP3   OH220245   7.292   4.939   1.228
 6767TIP3    H120246   7.367   4.998   1.221
 6767TIP3    H220247   7.326   4.854   1.200
 6768TIP3   OH220248   4.162   7.033   6.399
 6768TIP3    H120249   4.207   7.014   6.481
 6768TIP3    H220250   4.086   6.975   6.400
 6769TIP3   OH220251   7.045   5.556   0.383
 6769TIP3    H120252   7.114   5.620   0.399
 6769TIP3    H220253   7.001   5.545   0.468
 6770TIP3   OH220254   1.591   3.992   2.229
 6770TIP3    H120255   1.551   4.043   2.158
 6770TIP3    H220256   1.637   4.058   2.282
 6771TIP3   OH220257   3.552   0.419   6.573
 6771TIP3    H120258   3.507   0.460   6.499
 6771TIP3    H220259   3.604   0.349   6.534
 6772TIP3   OH220260   0.507   7.351   0.399
 6772TIP3    H120261   0.474   7.329   0.486
 6772TIP3    H220262   0.584   7.295   0.388
 6773TIP3   OH220263   4.465   2.734   3.993
 6773TIP3    H120264   4.405   2.789   3.942
 6773TIP3    H220265   4.414   2.705   4.068
 6774TIP3   OH220266   2.188   3.070   2.421
 6774TIP3    H120267   2.096   3.050   2.440
 6774TIP3    H220268   2.218   2.994   2.371
 6775TIP3   OH220269   3.092   5.000   3.763
 6775TIP3    H120270   3.120   4.976   3.674
 6775TIP3    H220271   3.077   4.916   3.806
 6776TIP3   OH220272   2.748   2.952   0.695
 6776TIP3    H120273   2.772   2.976   0.785
 6776TIP3    H220274   2.828   2.913   0.659
 6777TIP3   OH220275   6.983   5.346   4.550
 6777TIP3    H120276   6.972   5.307   4.463
 6777TIP3    H220277   6.946   5.281   4.610
 6778TIP3   OH220278   6.663   6.810   4.517
 6778TIP3    H120279   6.712   6.800   4.599
 6778TIP3    H220280   6.597   6.742   4.519
 6779TIP3   OH220281   1.012   0.414   0.552
 6779TIP3    H120282   1.098   0.448   0.528
 6779TIP3    H220283   1.030   0.331   0.596
 6780TIP3   OH220284   0.797   0.830   2.859
 6780TIP3    H120285   0.765   0.920   2.852
 6780TIP3    H220286   0.717   0.776   2.860
 6781TIP3   OH220287   3.895   6.516   2.179
 6781TIP3    H120288   3.827   6.489   2.241
 6781TIP3    H220289   3.850   6.517   2.094
 6782TIP3   OH220290   4.517   7.474   2.304
 6782TIP3    H120291   4.560   7.511   2.227
 6782TIP3    H220292   4.562   7.391   2.319
 6783TIP3   OH220293   3.821   2.618   3.035
 6783TIP3    H120294   3.817   2.649   3.125
 6783TIP3    H220295   3.871   2.685   2.989
 6784TIP3   OH220296   7.576   7.383   4.172
 6784TIP3    H120297   7.495   7.336   4.189
 6784TIP3    H220298   7.581   7.450   4.240
 6785TIP3   OH220299   5.582   1.703   1.782
 6785TIP3    H120300   5.612   1.756   1.857
 6785TIP3    H220301   5.625   1.619   1.794
 6786TIP3   OH220302   3.262   4.082   5.394
 6786TIP3    H120303   3.235   4.042   5.311
 6786TIP3    H220304   3.309   4.162   5.368
 6787TIP3   OH220305   0.141   4.541   4.509
 6787TIP3    H120306   0.080   4.547   4.582
 6787TIP3    H220307   0.228   4.542   4.550
 6788TIP3   OH220308   7.080   5.455   3.858
 6788TIP3    H120309   7.058   5.408   3.778
 6788TIP3    H220310   7.068   5.548   3.835
 6789TIP3   OH220311   3.692   4.655   1.665
 6789TIP3    H120312   3.764   4.634   1.724
 6789TIP3    H220313   3.636   4.577   1.665
 6790TIP3   OH220314   0.577   4.101   4.389
 6790TIP3    H120315   0.496   4.148   4.370
 6790TIP3    H220316   0.549   4.026   4.441
 6791TIP3   OH220317   5.682   5.958   5.601
 6791TIP3    H120318   5.638   6.037   5.570
 6791TIP3    H220319   5.761   5.953   5.547
 6792TIP3   OH220320   1.156   1.615   5.965
 6792TIP3    H120321   1.176   1.611   6.059
 6792TIP3    H220322   1.148   1.709   5.947
 6793TIP3   OH220323   3.233   4.272   3.092
 6793TIP3    H120324   3.307   4.302   3.144
 6793TIP3    H220325   3.157   4.316   3.129
 6794TIP3   OH220326   6.083   0.745   0.768
 6794TIP3    H120327   6.084   0.805   0.843
 6794TIP3    H220328   6.153   0.683   0.787
 6795TIP3   OH220329   0.554   3.536   0.216
 6795TIP3    H120330   0.543   3.478   0.291
 6795TIP3    H220331   0.542   3.480   0.139
 6796TIP3   OH220332   7.989   4.160   1.428
 6796TIP3    H120333   7.946   4.083   1.391
 6796TIP3    H220334   7.992   4.142   1.522
 6797TIP3   OH220335   3.371   3.278   5.569
 6797TIP3    H120336   3.426   3.238   5.636
 6797TIP3    H220337   3.310   3.210   5.544
 6798TIP3   OH220338   2.616   1.706   1.597
 6798TIP3    H120339   2.546   1.666   1.649
 6798TIP3    H220340   2.574   1.778   1.551
 6799TIP3   OH220341   4.435   6.142   5.154
 6799TIP3    H120342   4.445   6.160   5.247
 6799TIP3    H220343   4.346   6.170   5.133
 6800TIP3   OH220344   0.882   1.820   5.380
 6800TIP3    H120345   0.799   1.816   5.427
 6800TIP3    H220346   0.942   1.766   5.432
 6801TIP3   OH220347   3.634   6.695   2.235
 6801TIP3    H120348   3.632   6.666   2.144
 6801TIP3    H220349   3.645   6.790   2.229
 6802TIP3   OH220350   2.224   4.937   5.239
 6802TIP3    H120351   2.201   4.888   5.318
 6802TIP3    H220352   2.295   4.995   5.267
 6803TIP3   OH220353   0.950   6.381   0.310
 6803TIP3    H120354   1.008   6.328   0.254
 6803TIP3    H220355   0.984   6.470   0.302
 6804TIP3   OH220356   7.106   6.433   6.122
 6804TIP3    H120357   7.094   6.525   6.148
 6804TIP3    H220358   7.033   6.416   6.063
 6805TIP3   OH220359   6.351   7.282   5.194
 6805TIP3    H120360   6.301   7.239   5.263
 6805TIP3    H220361   6.409   7.343   5.240
 6806TIP3   OH220362   6.175   3.725   0.427
 6806TIP3    H120363   6.151   3.643   0.383
 6806TIP3    H220364   6.201   3.783   0.356
 6807TIP3   OH220365   0.951   4.905   4.109
 6807TIP3    H120366   0.889   4.967   4.148
 6807TIP3    H220367   0.906   4.821   4.115
 6808TIP3   OH220368   2.680   6.524   4.361
 6808TIP3    H120369   2.727   6.450   4.325
 6808TIP3    H220370   2.720   6.601   4.321
 6809TIP3   OH220371   8.107   1.532   0.114
 6809TIP3    H120372   8.157   1.451   0.120
 6809TIP3    H220373   8.079   1.549   0.204
 6810TIP3   OH220374   0.782   2.225   3.627
 6810TIP3    H120375   0.787   2.209   3.721
 6810TIP3    H220376   0.699   2.185   3.600
 6811TIP3   OH220377   0.732   5.563   0.119
 6811TIP3    H120378   0.732   5.541   0.025
 6811TIP3    H220379   0.644   5.542   0.148
 6812TIP3   OH220380   7.471   0.533   3.240
 6812TIP3    H120381   7.408   0.535   3.312
 6812TIP3    H220382   7.461   0.618   3.197
 6813TIP3   OH220383   2.869   1.367   0.192
 6813TIP3    H120384   2.873   1.345   0.099
 6813TIP3    H220385   2.859   1.283   0.236
 6814TIP3   OH220386   0.994   0.834   1.050
 6814TIP3    H120387   0.940   0.854   0.974
 6814TIP3    H220388   1.083   0.860   1.024
 6815TIP3   OH220389   0.433   2.172   1.674
 6815TIP3    H120390   0.352   2.155   1.626
 6815TIP3    H220391   0.483   2.090   1.667
 6816TIP3   OH220392   1.567   3.166   2.730
 6816TIP3    H120393   1.526   3.170   2.816
 6816TIP3    H220394   1.591   3.074   2.720
 6817TIP3   OH220395   0.357   4.440   3.999
 6817TIP3    H120396   0.284   4.381   3.982
 6817TIP3    H220397   0.320   4.528   3.984
 6818TIP3   OH220398   7.182   4.545   1.638
 6818TIP3    H120399   7.102   4.591   1.663
 6818TIP3    H220400   7.253   4.602   1.667
 6819TIP3   OH220401   5.656   4.178   0.693
 6819TIP3    H120402   5.741   4.205   0.659
 6819TIP3    H220403   5.676   4.106   0.753
 6820TIP3   OH220404   7.990   5.009   1.263
 6820TIP3    H120405   7.929   5.029   1.334
 6820TIP3    H220406   7.946   5.042   1.184
 6821TIP3   OH220407   1.520   5.096   6.000
 6821TIP3    H120408   1.511   5.039   6.076
 6821TIP3    H220409   1.450   5.160   6.010
 6822TIP3   OH220410   4.174   6.065   1.668
 6822TIP3    H120411   4.225   6.094   1.744
 6822TIP3    H220412   4.223   6.098   1.592
 6823TIP3   OH220413   3.988   5.728   3.694
 6823TIP3    H120414   4.074   5.765   3.716
 6823TIP3    H220415   3.928   5.769   3.756
 6824TIP3   OH220416   4.425   7.095   5.886
 6824TIP3    H120417   4.509   7.051   5.902
 6824TIP3    H220418   4.398   7.064   5.799
 6825TIP3   OH220419   6.126   0.071   5.932
 6825TIP3    H120420   6.185   0.024   5.872
 6825TIP3    H220421   6.090   0.142   5.879
 6826TIP3   OH220422   0.869   1.934   0.469
 6826TIP3    H120423   0.930   2.006   0.448
 6826TIP3    H220424   0.916   1.855   0.442
 6827TIP3   OH220425   8.013   4.968   2.061
 6827TIP3    H120426   8.021   5.039   1.997
 6827TIP3    H220427   8.080   4.989   2.127
 6828TIP3   OH220428   7.305   3.387   6.571
 6828TIP3    H120429   7.372   3.319   6.571
 6828TIP3    H220430   7.317   3.433   6.487
 6829TIP3   OH220431   0.129   3.364   1.492
 6829TIP3    H120432   0.148   3.442   1.440
 6829TIP3    H220433   0.197   3.301   1.467
 6830TIP3   OH220434   0.766   0.057   2.866
 6830TIP3    H120435   0.724   0.124   2.920
 6830TIP3    H220436   0.795   0.104   2.788
 6831TIP3   OH220437   3.280   5.297   3.507
 6831TIP3    H120438   3.225   5.220   3.498
 6831TIP3    H220439   3.247   5.341   3.586
 6832TIP3   OH220440   4.595   6.617   2.812
 6832TIP3    H120441   4.689   6.597   2.810
 6832TIP3    H220442   4.554   6.544   2.767
 6833TIP3   OH220443   5.952   4.085   1.408
 6833TIP3    H120444   5.901   4.036   1.344
 6833TIP3    H220445   5.890   4.148   1.445
 6834TIP3   OH220446   7.166   5.350   6.767
 6834TIP3    H120447   7.173   5.299   6.686
 6834TIP3    H220448   7.191   5.289   6.836
 6835TIP3   OH220449   5.570   0.950   4.660
 6835TIP3    H120450   5.592   0.904   4.742
 6835TIP3    H220451   5.601   0.892   4.591
 6836TIP3   OH220452   2.915   4.968   2.172
 6836TIP3    H120453   2.974   4.902   2.136
 6836TIP3    H220454   2.960   5.051   2.157
 6837TIP3   OH220455   1.257   7.466   2.467
 6837TIP3    H120456   1.229   7.554   2.441
 6837TIP3    H220457   1.351   7.476   2.485
 6838TIP3   OH220458   0.009   3.910   3.135
 6838TIP3    H120459   0.092   3.945   3.101
 6838TIP3    H220460   0.029   3.881   3.223
 6839TIP3   OH220461   1.654   1.854   4.015
 6839TIP3    H120462   1.569   1.833   3.975
 6839TIP3    H220463   1.654   1.950   4.021
 6840TIP3   OH220464   5.379   1.130   0.827
 6840TIP3    H120465   5.308   1.069   0.808
 6840TIP3    H220466   5.425   1.140   0.743
 6841TIP3   OH220467   0.662   4.377   5.208
 6841TIP3    H120468   0.716   4.394   5.131
 6841TIP3    H220469   0.702   4.299   5.248
 6842TIP3   OH220470   0.492   0.077   2.668
 6842TIP3    H120471   0.578   0.034   2.662
 6842TIP3    H220472   0.431   0.013   2.632
 6843TIP3   OH220473   2.273   5.026   3.005
 6843TIP3    H120474   2.338   4.983   3.061
 6843TIP3    H220475   2.202   5.049   3.065
 6844TIP3   OH220476   7.481   6.288   6.445
 6844TIP3    H120477   7.574   6.294   6.426
 6844TIP3    H220478   7.454   6.203   6.410
 6845TIP3   OH220479   1.678   3.512   6.083
 6845TIP3    H120480   1.705   3.561   6.005
 6845TIP3    H220481   1.582   3.513   6.080
 6846TIP3   OH220482   5.998   0.358   6.044
 6846TIP3    H120483   5.921   0.400   6.006
 6846TIP3    H220484   6.026   0.295   5.977
 6847TIP3   OH220485   2.510   6.811   2.906
 6847TIP3    H120486   2.580   6.795   2.970
 6847TIP3    H220487   2.545   6.775   2.824
 6848TIP3   OH220488   2.919   2.535   1.020
 6848TIP3    H120489   2.900   2.529   0.926
 6848TIP3    H220490   2.940   2.628   1.035
 6849TIP3   OH220491   2.019   5.728   6.634
 6849TIP3    H120492   2.011   5.701   6.543
 6849TIP3    H220493   2.113   5.739   6.649
 6850TIP3   OH220494   7.874   7.126   5.500
 6850TIP3    H120495   7.793   7.075   5.499
 6850TIP3    H220496   7.852   7.205   5.450
 6851TIP3   OH220497   5.456   6.387   2.297
 6851TIP3    H120498   5.509   6.314   2.327
 6851TIP3    H220499   5.472   6.391   2.202
 6852TIP3   OH220500   6.859   7.430   0.564
 6852TIP3    H120501   6.828   7.519   0.550
 6852TIP3    H220502   6.845   7.387   0.480
 6853TIP3   OH220503   3.685   0.960   1.613
 6853TIP3    H120504   3.690   0.989   1.703
 6853TIP3    H220505   3.709   1.036   1.561
 6854TIP3   OH220506   7.223   7.843   4.161
 6854TIP3    H120507   7.286   7.811   4.095
 6854TIP3    H220508   7.169   7.905   4.113
 6855TIP3   OH220509   0.780   3.927   1.014
 6855TIP3    H120510   0.792   3.982   1.091
 6855TIP3    H220511   0.814   3.841   1.041
 6856TIP3   OH220512   0.469   6.703   5.496
 6856TIP3    H120513   0.482   6.627   5.553
 6856TIP3    H220514   0.471   6.777   5.556
 6857TIP3   OH220515   2.059   2.916   3.172
 6857TIP3    H120516   2.149   2.895   3.198
 6857TIP3    H220517   2.054   3.012   3.180
 6858TIP3   OH220518   6.565   6.805   5.743
 6858TIP3    H120519   6.606   6.805   5.656
 6858TIP3    H220520   6.487   6.859   5.733
 6859TIP3   OH220521   0.938   1.463   4.016
 6859TIP3    H120522   0.998   1.415   3.959
 6859TIP3    H220523   0.922   1.545   3.969
 6860TIP3   OH220524   1.863   1.508   2.789
 6860TIP3    H120525   1.952   1.480   2.771
 6860TIP3    H220526   1.809   1.455   2.730
 6861TIP3   OH220527   3.858   7.444   6.790
 6861TIP3    H120528   3.929   7.505   6.774
 6861TIP3    H220529   3.782   7.499   6.810
 6862TIP3   OH220530   5.556   0.281   1.387
 6862TIP3    H120531   5.531   0.261   1.478
 6862TIP3    H220532   5.474   0.273   1.338
 6863TIP3   OH220533   6.153   3.527   6.270
 6863TIP3    H120534   6.183   3.606   6.315
 6863TIP3    H220535   6.152   3.551   6.177
 6864TIP3   OH220536   7.801   5.051   4.646
 6864TIP3    H120537   7.794   4.955   4.647
 6864TIP3    H220538   7.777   5.077   4.734
 6865TIP3   OH220539   6.141   2.118   2.105
 6865TIP3    H120540   6.230   2.140   2.078
 6865TIP3    H220541   6.118   2.042   2.052
 6866TIP3   OH220542   7.194   4.622   5.903
 6866TIP3    H120543   7.284   4.647   5.922
 6866TIP3    H220544   7.202   4.543   5.849
 6867TIP3   OH220545   3.562   5.531   1.112
 6867TIP3    H120546   3.633   5.594   1.103
 6867TIP3    H220547   3.525   5.549   1.199
 6868TIP3   OH220548   8.125   2.331   4.334
 6868TIP3    H120549   8.099   2.352   4.424
 6868TIP3    H220550   8.161   2.413   4.300
 6869TIP3   OH220551   5.365   0.081   2.331
 6869TIP3    H120552   5.441   0.084   2.389
 6869TIP3    H220553   5.294   0.120   2.381
 6870TIP3   OH220554   7.525   3.041   4.147
 6870TIP3    H120555   7.581   2.968   4.119
 6870TIP3    H220556   7.540   3.049   4.241
 6871TIP3   OH220557   4.553   2.277   2.206
 6871TIP3    H120558   4.570   2.327   2.126
 6871TIP3    H220559   4.606   2.198   2.197
 6872TIP3   OH220560   2.413   7.577   0.206
 6872TIP3    H120561   2.467   7.643   0.163
 6872TIP3    H220562   2.457   7.562   0.290
 6873TIP3   OH220563   4.613   3.852   2.708
 6873TIP3    H120564   4.601   3.813   2.795
 6873TIP3    H220565   4.707   3.868   2.702
 6874TIP3   OH220566   2.607   3.646   6.482
 6874TIP3    H120567   2.597   3.600   6.399
 6874TIP3    H220568   2.549   3.722   6.475
 6875TIP3   OH220569   8.261   7.694   6.183
 6875TIP3    H120570   8.303   7.773   6.150
 6875TIP3    H220571   8.296   7.624   6.127
 6876TIP3   OH220572   7.068   5.590   4.658
 6876TIP3    H120573   7.140   5.621   4.603
 6876TIP3    H220574   7.035   5.512   4.612
 6877TIP3   OH220575   5.666   5.679   1.223
 6877TIP3    H120576   5.587   5.636   1.190
 6877TIP3    H220577   5.715   5.703   1.144
 6878TIP3   OH220578   4.344   0.227   2.561
 6878TIP3    H120579   4.263   0.218   2.611
 6878TIP3    H220580   4.316   0.260   2.475
 6879TIP3   OH220581   3.940   7.193   0.845
 6879TIP3    H120582   3.907   7.106   0.868
 6879TIP3    H220583   4.015   7.206   0.904
 6880TIP3   OH220584   1.125   6.643   0.596
 6880TIP3    H120585   1.131   6.735   0.569
 6880TIP3    H220586   1.048   6.609   0.550
 6881TIP3   OH220587   7.833   0.398   5.117
 6881TIP3    H120588   7.894   0.472   5.119
 6881TIP3    H220589   7.867   0.338   5.184
 6882TIP3   OH220590   5.227   1.090   6.498
 6882TIP3    H120591   5.253   1.029   6.429
 6882TIP3    H220592   5.132   1.083   6.501
 6883TIP3   OH220593   5.753   4.930   1.865
 6883TIP3    H120594   5.678   4.973   1.906
 6883TIP3    H220595   5.720   4.845   1.837
 6884TIP3   OH220596   1.962   1.936   3.254
 6884TIP3    H120597   1.945   1.844   3.235
 6884TIP3    H220598   1.901   1.984   3.198
 6885TIP3   OH220599   6.407   5.883   1.414
 6885TIP3    H120600   6.355   5.819   1.365
 6885TIP3    H220601   6.445   5.833   1.486
 6886TIP3   OH220602   1.631   2.361   2.539
 6886TIP3    H120603   1.651   2.267   2.543
 6886TIP3    H220604   1.603   2.383   2.628
 6887TIP3   OH220605   4.255   4.241   2.756
 6887TIP3    H120606   4.167   4.209   2.737
 6887TIP3    H220607   4.310   4.162   2.751
 6888TIP3   OH220608   3.336   5.252   5.261
 6888TIP3    H120609   3.426   5.228   5.286
 6888TIP3    H220610   3.281   5.212   5.328
 6889TIP3   OH220611   0.040   6.597   1.784
 6889TIP3    H120612   0.062   6.555   1.867
 6889TIP3    H220613   0.116   6.582   1.728
 6890TIP3   OH220614   6.246   1.046   2.620
 6890TIP3    H120615   6.229   1.139   2.606
 6890TIP3    H220616   6.184   1.001   2.563
 6891TIP3   OH220617   6.123   7.058   5.097
 6891TIP3    H120618   6.043   7.106   5.118
 6891TIP3    H220619   6.156   7.100   5.018
 6892TIP3   OH220620   2.556   0.054   0.121
 6892TIP3    H120621   2.635   0.082   0.075
 6892TIP3    H220622   2.585  -0.015   0.180
 6893TIP3   OH220623   6.999   0.163   2.647
 6893TIP3    H120624   7.025   0.239   2.594
 6893TIP3    H220625   6.959   0.103   2.584
 6894TIP3   OH220626   5.764   1.874   3.264
 6894TIP3    H120627   5.826   1.811   3.301
 6894TIP3    H220628   5.706   1.822   3.208
 6895TIP3   OH220629   7.430   4.883   5.633
 6895TIP3    H120630   7.487   4.879   5.556
 6895TIP3    H220631   7.347   4.844   5.603
 6896TIP3   OH220632   4.263   6.427   5.962
 6896TIP3    H120633   4.167   6.427   5.953
 6896TIP3    H220634   4.285   6.338   5.988
 6897TIP3   OH220635   0.651   3.170   1.070
 6897TIP3    H120636   0.679   3.157   1.160
 6897TIP3    H220637   0.729   3.151   1.017
 6898TIP3   OH220638   5.597   1.263   5.269
 6898TIP3    H120639   5.686   1.231   5.282
 6898TIP3    H220640   5.555   1.197   5.214
 6899TIP3   OH220641   8.163   0.474   6.721
 6899TIP3    H120642   8.246   0.442   6.686
 6899TIP3    H220643   8.165   0.568   6.706
 6900TIP3   OH220644   7.713   2.810   3.838
 6900TIP3    H120645   7.733   2.752   3.765
 6900TIP3    H220646   7.757   2.892   3.816
 6901TIP3   OH220647   2.030   1.328   5.429
 6901TIP3    H120648   2.031   1.422   5.412
 6901TIP3    H220649   1.966   1.317   5.500
 6902TIP3   OH220650   8.058   6.942   4.327
 6902TIP3    H120651   8.060   6.875   4.395
 6902TIP3    H220652   7.985   6.916   4.270
 6903TIP3   OH220653   3.443   2.811   5.461
 6903TIP3    H120654   3.513   2.825   5.524
 6903TIP3    H220655   3.402   2.897   5.451
 6904TIP3   OH220656   4.185   6.537   2.378
 6904TIP3    H120657   4.176   6.447   2.410
 6904TIP3    H220658   4.269   6.566   2.413
 6905TIP3   OH220659   0.153   1.556   5.737
 6905TIP3    H120660   0.156   1.544   5.832
 6905TIP3    H220661   0.101   1.483   5.705
 6906TIP3   OH220662   4.100   7.249   6.661
 6906TIP3    H120663   4.058   7.309   6.723
 6906TIP3    H220664   4.035   7.180   6.647
 6907TIP3   OH220665   7.793   5.940   3.418
 6907TIP3    H120666   7.837   5.888   3.486
 6907TIP3    H220667   7.852   6.014   3.403
 6908TIP3   OH220668   0.705   4.077   5.895
 6908TIP3    H120669   0.795   4.044   5.884
 6908TIP3    H220670   0.664   4.062   5.810
 6909TIP3   OH220671   5.310   0.680   4.282
 6909TIP3    H120672   5.387   0.703   4.231
 6909TIP3    H220673   5.238   0.724   4.238
 6910TIP3   OH220674   7.435   4.426   0.346
 6910TIP3    H120675   7.470   4.359   0.404
 6910TIP3    H220676   7.504   4.492   0.340
 6911TIP3   OH220677   0.898   4.550   0.817
 6911TIP3    H120678   0.991   4.535   0.801
 6911TIP3    H220679   0.869   4.473   0.866
 6912TIP3   OH220680   5.488   2.278   2.256
 6912TIP3    H120681   5.556   2.345   2.253
 6912TIP3    H220682   5.421   2.314   2.314
 6913TIP3   OH220683   0.665   2.898   6.291
 6913TIP3    H120684   0.615   2.821   6.265
 6913TIP3    H220685   0.680   2.946   6.210
 6914TIP3   OH220686   7.759   3.578   4.866
 6914TIP3    H120687   7.793   3.665   4.885
 6914TIP3    H220688   7.758   3.573   4.770
 6915TIP3   OH220689   5.169   0.517   0.119
 6915TIP3    H120690   5.229   0.543   0.189
 6915TIP3    H220691   5.133   0.599   0.086
 6916TIP3   OH220692   2.184   3.763   2.885
 6916TIP3    H120693   2.114   3.701   2.908
 6916TIP3    H220694   2.138   3.835   2.843
 6917TIP3   OH220695   2.787   1.640   4.390
 6917TIP3    H120696   2.866   1.653   4.337
 6917TIP3    H220697   2.796   1.551   4.425
 6918TIP3   OH220698   5.615   1.440   2.538
 6918TIP3    H120699   5.644   1.387   2.612
 6918TIP3    H220700   5.521   1.425   2.533
 6919TIP3   OH220701   7.039   0.922   6.523
 6919TIP3    H120702   7.060   1.010   6.492
 6919TIP3    H220703   7.121   0.890   6.561
 6920TIP3   OH220704   7.641   6.744   1.587
 6920TIP3    H120705   7.730   6.717   1.605
 6920TIP3    H220706   7.586   6.678   1.629
 6921TIP3   OH220707   2.169   6.422   5.253
 6921TIP3    H120708   2.215   6.398   5.172
 6921TIP3    H220709   2.143   6.513   5.239
 6922TIP3   OH220710   8.036   6.408   4.668
 6922TIP3    H120711   8.059   6.318   4.692
 6922TIP3    H220712   7.974   6.399   4.595
 6923TIP3   OH220713   4.199   3.153   1.166
 6923TIP3    H120714   4.249   3.085   1.212
 6923TIP3    H220715   4.238   3.235   1.195
 6924TIP3   OH220716   0.100   1.352   4.200
 6924TIP3    H120717   0.188   1.389   4.210
 6924TIP3    H220718   0.069   1.387   4.116
 6925TIP3   OH220719   6.029   5.859   6.509
 6925TIP3    H120720   6.042   5.916   6.433
 6925TIP3    H220721   5.937   5.835   6.506
 6926TIP3   OH220722   6.345   3.659   2.323
 6926TIP3    H120723   6.374   3.634   2.411
 6926TIP3    H220724   6.410   3.621   2.264
 6927TIP3   OH220725   3.632   2.403   1.016
 6927TIP3    H120726   3.627   2.454   0.935
 6927TIP3    H220727   3.577   2.451   1.078
 6928TIP3   OH220728   0.675   2.510   4.031
 6928TIP3    H120729   0.721   2.527   3.949
 6928TIP3    H220730   0.610   2.444   4.009
 6929TIP3   OH220731   5.981   0.220   1.115
 6929TIP3    H120732   6.025   0.306   1.109
 6929TIP3    H220733   5.941   0.220   1.201
 6930TIP3   OH220734   6.923   7.325   2.530
 6930TIP3    H120735   6.972   7.243   2.519
 6930TIP3    H220736   6.937   7.371   2.447
 6931TIP3   OH220737   5.163   1.233   0.163
 6931TIP3    H120738   5.162   1.155   0.107
 6931TIP3    H220739   5.253   1.238   0.195
 6932TIP3   OH220740   7.813   4.281   1.845
 6932TIP3    H120741   7.754   4.356   1.847
 6932TIP3    H220742   7.839   4.269   1.937
 6933TIP3   OH220743   0.037   3.027   5.010
 6933TIP3    H120744   0.123   3.007   4.973
 6933TIP3    H220745   0.026   2.963   5.081
 6934TIP3   OH220746   0.764   6.994   4.639
 6934TIP3    H120747   0.793   6.903   4.637
 6934TIP3    H220748   0.746   7.012   4.731
 6935TIP3   OH220749   2.828   5.526   0.977
 6935TIP3    H120750   2.859   5.441   0.947
 6935TIP3    H220751   2.853   5.529   1.070
 6936TIP3   OH220752   1.938   3.124   3.919
 6936TIP3    H120753   2.029   3.121   3.890
 6936TIP3    H220754   1.888   3.093   3.844
 6937TIP3   OH220755   3.831   7.407   2.532
 6937TIP3    H120756   3.852   7.314   2.539
 6937TIP3    H220757   3.774   7.414   2.455
 6938TIP3   OH220758   5.616   0.754   4.250
 6938TIP3    H120759   5.686   0.732   4.188
 6938TIP3    H220760   5.661   0.775   4.332
 6939TIP3   OH220761   3.732   6.151   0.652
 6939TIP3    H120762   3.745   6.187   0.740
 6939TIP3    H220763   3.640   6.167   0.633
 6940TIP3   OH220764   0.274   6.422   5.411
 6940TIP3    H120765   0.302   6.403   5.321
 6940TIP3    H220766   0.245   6.337   5.445
 6941TIP3   OH220767   4.043   4.528   3.246
 6941TIP3    H120768   4.123   4.525   3.193
 6941TIP3    H220769   4.072   4.562   3.331
 6942TIP3   OH220770   6.504   2.971   2.142
 6942TIP3    H120771   6.496   3.003   2.232
 6942TIP3    H220772   6.597   2.979   2.121
 6943TIP3   OH220773   1.034   5.970   4.254
 6943TIP3    H120774   0.940   5.967   4.269
 6943TIP3    H220775   1.046   5.940   4.164
 6944TIP3   OH220776   1.178   7.221   3.477
 6944TIP3    H120777   1.202   7.314   3.481
 6944TIP3    H220778   1.237   7.178   3.538
 6945TIP3   OH220779   0.559   5.346   5.126
 6945TIP3    H120780   0.652   5.325   5.121
 6945TIP3    H220781   0.556   5.434   5.163
 6946TIP3   OH220782  -0.019   0.349   5.266
 6946TIP3    H120783   0.050   0.301   5.312
 6946TIP3    H220784  -0.029   0.302   5.183
 6947TIP3   OH220785   4.492   5.819   0.030
 6947TIP3    H120786   4.489   5.817   0.126
 6947TIP3    H220787   4.445   5.898   0.005
 6948TIP3   OH220788   0.060   2.420   5.153
 6948TIP3    H120789   0.099   2.333   5.144
 6948TIP3    H220790   0.067   2.439   5.246
 6949TIP3   OH220791   1.055   7.796   2.122
 6949TIP3    H120792   0.991   7.794   2.193
 6949TIP3    H220793   1.109   7.718   2.137
 6950TIP3   OH220794   3.503   3.398   1.062
 6950TIP3    H120795   3.427   3.417   1.117
 6950TIP3    H220796   3.516   3.478   1.012
 6951TIP3   OH220797   6.630   5.961   2.166
 6951TIP3    H120798   6.701   5.950   2.229
 6951TIP3    H220799   6.592   5.874   2.158
 6952TIP3   OH220800   5.778   4.675   2.262
 6952TIP3    H120801   5.872   4.661   2.252
 6952TIP3    H220802   5.771   4.752   2.318
 6953TIP3   OH220803   1.500   4.893   3.382
 6953TIP3    H120804   1.557   4.900   3.458
 6953TIP3    H220805   1.438   4.824   3.405
 6954TIP3   OH220806   2.283   0.701   4.946
 6954TIP3    H120807   2.235   0.755   4.883
 6954TIP3    H220808   2.360   0.671   4.898
 6955TIP3   OH220809   6.250   5.737   6.042
 6955TIP3    H120810   6.265   5.659   5.988
 6955TIP3    H220811   6.172   5.777   6.004
 6956TIP3   OH220812   6.938   3.978   5.372
 6956TIP3    H120813   6.871   3.911   5.355
 6956TIP3    H220814   6.993   3.977   5.293
 6957TIP3   OH220815   6.944   5.515   0.645
 6957TIP3    H120816   6.881   5.443   0.649
 6957TIP3    H220817   6.913   5.577   0.710
 6958TIP3   OH220818   6.821   0.939   6.189
 6958TIP3    H120819   6.750   0.880   6.213
 6958TIP3    H220820   6.896   0.882   6.172
 6959TIP3   OH220821   5.404   4.336   0.733
 6959TIP3    H120822   5.341   4.288   0.787
 6959TIP3    H220823   5.486   4.288   0.745
 6960TIP3   OH220824   6.421   3.595   2.798
 6960TIP3    H120825   6.392   3.671   2.747
 6960TIP3    H220826   6.346   3.575   2.855
 6961TIP3   OH220827   2.291   6.065   5.461
 6961TIP3    H120828   2.224   5.997   5.467
 6961TIP3    H220829   2.338   6.044   5.380
 6962TIP3   OH220830   1.642   6.954   5.754
 6962TIP3    H120831   1.686   7.036   5.779
 6962TIP3    H220832   1.686   6.926   5.674
 6963TIP3   OH220833   5.574   1.218   1.170
 6963TIP3    H120834   5.620   1.281   1.226
 6963TIP3    H220835   5.522   1.272   1.110
 6964TIP3   OH220836   0.715   5.314   1.834
 6964TIP3    H120837   0.629   5.355   1.822
 6964TIP3    H220838   0.699   5.244   1.897
 6965TIP3   OH220839   3.034   5.409   5.153
 6965TIP3    H120840   3.026   5.341   5.220
 6965TIP3    H220841   2.958   5.395   5.096
 6966TIP3   OH220842   7.465   0.946   4.496
 6966TIP3    H120843   7.517   1.025   4.510
 6966TIP3    H220844   7.490   0.916   4.408
 6967TIP3   OH220845   8.013   5.281   5.136
 6967TIP3    H120846   7.983   5.192   5.117
 6967TIP3    H220847   8.102   5.270   5.169
 6968TIP3   OH220848   2.156   2.460   0.304
 6968TIP3    H120849   2.157   2.513   0.224
 6968TIP3    H220850   2.176   2.371   0.274
 6969TIP3   OH220851   4.515   1.017   0.075
 6969TIP3    H120852   4.486   1.105   0.100
 6969TIP3    H220853   4.611   1.023   0.073
 6970TIP3   OH220854   6.683   4.722   3.001
 6970TIP3    H120855   6.722   4.789   2.946
 6970TIP3    H220856   6.748   4.653   3.006
 6971TIP3   OH220857   5.075   7.451   3.490
 6971TIP3    H120858   5.038   7.482   3.572
 6971TIP3    H220859   5.155   7.503   3.479
 6972TIP3   OH220860   1.486   3.895   3.300
 6972TIP3    H120861   1.515   3.968   3.245
 6972TIP3    H220862   1.554   3.828   3.289
 6973TIP3   OH220863   2.853   2.591   2.443
 6973TIP3    H120864   2.897   2.510   2.418
 6973TIP3    H220865   2.762   2.577   2.420
 6974TIP3   OH220866   6.435   3.990   2.354
 6974TIP3    H120867   6.478   4.073   2.377
 6974TIP3    H220868   6.390   4.008   2.272
 6975TIP3   OH220869   0.173   4.022   3.657
 6975TIP3    H120870   0.236   4.077   3.611
 6975TIP3    H220871   0.128   3.974   3.587
 6976TIP3   OH220872   1.619   0.599   1.409
 6976TIP3    H120873   1.534   0.629   1.440
 6976TIP3    H220874   1.599   0.520   1.358
 6977TIP3   OH220875   5.194   6.402   6.714
 6977TIP3    H120876   5.196   6.315   6.675
 6977TIP3    H220877   5.283   6.435   6.707
 6978TIP3   OH220878   4.709   7.288   2.271
 6978TIP3    H120879   4.706   7.315   2.179
 6978TIP3    H220880   4.655   7.209   2.275
 6979TIP3   OH220881   0.942   1.111   0.469
 6979TIP3    H120882   1.003   1.041   0.490
 6979TIP3    H220883   0.942   1.115   0.373
 6980TIP3   OH220884   4.151   5.470   4.089
 6980TIP3    H120885   4.070   5.419   4.093
 6980TIP3    H220886   4.138   5.541   4.151
 6981TIP3   OH220887   5.038   1.958   4.225
 6981TIP3    H120888   5.084   1.900   4.164
 6981TIP3    H220889   4.949   1.922   4.229
 6982TIP3   OH220890   5.431   2.498   3.330
 6982TIP3    H120891   5.448   2.573   3.387
 6982TIP3    H220892   5.458   2.422   3.382
 6983TIP3   OH220893   5.042   5.434   2.237
 6983TIP3    H120894   5.003   5.362   2.188
 6983TIP3    H220895   5.023   5.414   2.329
 6984TIP3   OH220896   0.078   0.295   6.060
 6984TIP3    H120897   0.060   0.202   6.044
 6984TIP3    H220898   0.171   0.304   6.040
 6985TIP3   OH220899   4.084   0.860   3.573
 6985TIP3    H120900   4.178   0.874   3.588
 6985TIP3    H220901   4.080   0.796   3.502
 6986TIP3   OH220902   0.018   6.725   1.400
 6986TIP3    H120903   0.096   6.772   1.371
 6986TIP3    H220904  -0.054   6.767   1.353
 6987TIP3   OH220905   4.009   7.492   0.652
 6987TIP3    H120906   4.062   7.524   0.724
 6987TIP3    H220907   4.045   7.406   0.631
 6988TIP3   OH220908   0.934   6.981   2.610
 6988TIP3    H120909   0.888   7.017   2.686
 6988TIP3    H220910   0.951   6.890   2.632
 6989TIP3   OH220911   1.282   7.384   1.070
 6989TIP3    H120912   1.341   7.326   1.119
 6989TIP3    H220913   1.293   7.359   0.979
 6990TIP3   OH220914   6.830   3.002   2.582
 6990TIP3    H120915   6.829   2.907   2.577
 6990TIP3    H220916   6.848   3.031   2.492
 6991TIP3   OH220917   3.640   6.257   2.049
 6991TIP3    H120918   3.658   6.333   1.993
 6991TIP3    H220919   3.548   6.236   2.032
 6992TIP3   OH220920   2.932   5.606   3.879
 6992TIP3    H120921   2.909   5.513   3.880
 6992TIP3    H220922   2.950   5.625   3.787
 6993TIP3   OH220923   3.205   0.862   3.640
 6993TIP3    H120924   3.156   0.919   3.699
 6993TIP3    H220925   3.178   0.773   3.665
 6994TIP3   OH220926   1.365   7.098   5.522
 6994TIP3    H120927   1.408   7.057   5.447
 6994TIP3    H220928   1.368   7.192   5.503
 6995TIP3   OH220929   0.225   4.048   4.529
 6995TIP3    H120930   0.266   4.122   4.484
 6995TIP3    H220931   0.272   4.041   4.611
 6996TIP3   OH220932   0.398   0.089   4.099
 6996TIP3    H120933   0.466   0.131   4.150
 6996TIP3    H220934   0.426  -0.002   4.091
 6997TIP3   OH220935   7.833   3.921   4.343
 6997TIP3    H120936   7.790   3.967   4.270
 6997TIP3    H220937   7.829   3.829   4.319
 6998TIP3   OH220938   2.712   4.998   5.481
 6998TIP3    H120939   2.790   4.986   5.426
 6998TIP3    H220940   2.724   4.937   5.553
 6999TIP3   OH220941   2.471   5.016   5.324
 6999TIP3    H120942   2.519   5.016   5.407
 6999TIP3    H220943   2.527   5.067   5.265
 7000TIP3   OH220944   2.109   6.045   1.883
 7000TIP3    H120945   2.027   6.005   1.914
 7000TIP3    H220946   2.080   6.121   1.831
 7001TIP3   OH220947   3.844   4.791   4.605
 7001TIP3    H120948   3.880   4.777   4.692
 7001TIP3    H220949   3.808   4.880   4.608
 7002TIP3   OH220950   1.122   1.186   6.591
 7002TIP3    H120951   1.044   1.132   6.579
 7002TIP3    H220952   1.194   1.124   6.594
 7003TIP3   OH220953   2.595   5.575   3.512
 7003TIP3    H120954   2.516   5.609   3.555
 7003TIP3    H220955   2.562   5.513   3.448
 7004TIP3   OH220956   2.011   5.697   6.350
 7004TIP3    H120957   2.071   5.673   6.280
 7004TIP3    H220958   1.937   5.638   6.340
 7005TIP3   OH220959   7.417   5.353   2.377
 7005TIP3    H120960   7.442   5.366   2.285
 7005TIP3    H220961   7.321   5.348   2.375
 7006TIP3   OH220962   0.077   5.988   2.113
 7006TIP3    H120963   0.156   6.035   2.086
 7006TIP3    H220964   0.105   5.935   2.187
 7007TIP3   OH220965   8.319   1.341   5.521
 7007TIP3    H120966   8.273   1.275   5.573
 7007TIP3    H220967   8.251   1.384   5.469
 7008TIP3   OH220968   1.988   6.182   0.515
 7008TIP3    H120969   2.009   6.119   0.446
 7008TIP3    H220970   1.907   6.224   0.485
 7009TIP3   OH220971   8.051   6.859   3.493
 7009TIP3    H120972   7.983   6.886   3.431
 7009TIP3    H220973   8.023   6.897   3.576
 7010TIP3   OH220974   2.630   3.790   1.211
 7010TIP3    H120975   2.725   3.798   1.215
 7010TIP3    H220976   2.610   3.713   1.264
 7011TIP3   OH220977   1.776   7.363   4.639
 7011TIP3    H120978   1.787   7.381   4.733
 7011TIP3    H220979   1.691   7.319   4.634
 7012TIP3   OH220980   1.866   2.498   2.343
 7012TIP3    H120981   1.784   2.465   2.381
 7012TIP3    H220982   1.917   2.419   2.326
 7013TIP3   OH220983   4.885   3.348   0.499
 7013TIP3    H120984   4.883   3.309   0.586
 7013TIP3    H220985   4.951   3.416   0.504
 7014TIP3   OH220986   1.300   1.953   6.209
 7014TIP3    H120987   1.382   1.907   6.194
 7014TIP3    H220988   1.240   1.918   6.143
 7015TIP3   OH220989   4.440   3.748   0.207
 7015TIP3    H120990   4.397   3.740   0.292
 7015TIP3    H220991   4.508   3.681   0.207
 7016TIP3   OH220992   7.942   1.254   5.981
 7016TIP3    H120993   8.026   1.299   5.993
 7016TIP3    H220994   7.956   1.166   6.015
 7017TIP3   OH220995   5.162   3.725   3.869
 7017TIP3    H120996   5.091   3.662   3.876
 7017TIP3    H220997   5.188   3.722   3.777
 7018TIP3   OH220998   1.336   0.832   3.104
 7018TIP3    H120999   1.252   0.825   3.149
 7018TIP3    H221000   1.345   0.924   3.082
 7019TIP3   OH221001   0.262   4.016   3.058
 7019TIP3    H121002   0.273   4.111   3.046
 7019TIP3    H221003   0.336   3.990   3.113
 7020TIP3   OH221004   1.092   1.268   2.540
 7020TIP3    H121005   1.129   1.195   2.491
 7020TIP3    H221006   1.003   1.239   2.563
 7021TIP3   OH221007   6.241   0.990   5.389
 7021TIP3    H121008   6.315   1.013   5.331
 7021TIP3    H221009   6.251   1.049   5.464
 7022TIP3   OH221010   1.984   6.265   1.780
 7022TIP3    H121011   1.987   6.356   1.753
 7022TIP3    H221012   1.892   6.249   1.801
 7023TIP3   OH221013   5.155   2.027   4.452
 7023TIP3    H121014   5.113   2.022   4.366
 7023TIP3    H221015   5.160   1.936   4.481
 7024TIP3   OH221016   5.855   4.012   0.020
 7024TIP3    H121017   5.763   3.995   0.043
 7024TIP3    H221018   5.894   3.925   0.015
 7025TIP3   OH221019   0.994   2.531   3.924
 7025TIP3    H121020   1.084   2.564   3.917
 7025TIP3    H221021   0.978   2.487   3.841
 7026TIP3   OH221022   4.353   2.947   1.290
 7026TIP3    H121023   4.347   2.853   1.277
 7026TIP3    H221024   4.349   2.959   1.384
 7027TIP3   OH221025   1.338   6.933   1.376
 7027TIP3    H121026   1.376   6.848   1.400
 7027TIP3    H221027   1.354   6.941   1.282
 7028TIP3   OH221028   4.996   2.905   2.869
 7028TIP3    H121029   4.931   2.898   2.799
 7028TIP3    H221030   5.047   2.825   2.863
 7029TIP3   OH221031   2.277   5.637   2.560
 7029TIP3    H121032   2.198   5.609   2.514
 7029TIP3    H221033   2.283   5.731   2.543
 7030TIP3   OH221034   4.957   6.649   1.605
 7030TIP3    H121035   4.940   6.614   1.517
 7030TIP3    H221036   4.953   6.572   1.662
 7031TIP3   OH221037   4.829   2.153   2.104
 7031TIP3    H121038   4.795   2.115   2.023
 7031TIP3    H221039   4.923   2.131   2.103
 7032TIP3   OH221040   2.497   1.383   6.065
 7032TIP3    H121041   2.457   1.299   6.088
 7032TIP3    H221042   2.456   1.446   6.125
 7033TIP3   OH221043   2.361   7.174   1.878
 7033TIP3    H121044   2.451   7.173   1.911
 7033TIP3    H221045   2.358   7.248   1.818
 7034TIP3   OH221046   3.836   3.612   6.073
 7034TIP3    H121047   3.862   3.558   5.998
 7034TIP3    H221048   3.756   3.656   6.044
 7035TIP3   OH221049   3.648   4.131   3.982
 7035TIP3    H121050   3.728   4.136   4.034
 7035TIP3    H221051   3.577   4.145   4.045
 7036TIP3   OH221052   0.278   7.664   3.671
 7036TIP3    H121053   0.254   7.578   3.708
 7036TIP3    H221054   0.201   7.690   3.620
 7037TIP3   OH221055   4.277   0.941   1.857
 7037TIP3    H121056   4.206   0.916   1.798
 7037TIP3    H221057   4.312   0.858   1.889
 7038TIP3   OH221058   5.920   5.718   3.342
 7038TIP3    H121059   5.996   5.720   3.284
 7038TIP3    H221060   5.878   5.803   3.330
 7039TIP3   OH221061   1.474   6.824   4.742
 7039TIP3    H121062   1.417   6.898   4.721
 7039TIP3    H221063   1.452   6.802   4.833
 7040TIP3   OH221064   3.242   3.601   1.734
 7040TIP3    H121065   3.286   3.520   1.709
 7040TIP3    H221066   3.229   3.648   1.651
 7041TIP3   OH221067   4.926   2.322   4.568
 7041TIP3    H121068   4.886   2.245   4.528
 7041TIP3    H221069   4.993   2.287   4.627
 7042TIP3   OH221070   4.902   1.683   2.586
 7042TIP3    H121071   4.877   1.699   2.495
 7042TIP3    H221072   4.964   1.752   2.606
 7043TIP3   OH221073   0.808   6.528   1.724
 7043TIP3    H121074   0.772   6.604   1.677
 7043TIP3    H221075   0.903   6.538   1.716
 7044TIP3   OH221076   3.835   3.206   6.709
 7044TIP3    H121077   3.866   3.234   6.795
 7044TIP3    H221078   3.777   3.132   6.727
 7045TIP3   OH221079   3.417   6.215   2.762
 7045TIP3    H121080   3.421   6.288   2.701
 7045TIP3    H221081   3.426   6.137   2.706
 7046TIP3   OH221082   8.299   5.259   3.620
 7046TIP3    H121083   8.321   5.171   3.587
 7046TIP3    H221084   8.237   5.243   3.690
 7047TIP3   OH221085   0.800   2.485   1.069
 7047TIP3    H121086   0.828   2.471   0.978
 7047TIP3    H221087   0.708   2.509   1.062
 7048TIP3   OH221088   4.002   3.188   5.917
 7048TIP3    H121089   3.944   3.190   5.993
 7048TIP3    H221090   4.090   3.176   5.953
 7049TIP3   OH221091   0.017   4.235   6.796
 7049TIP3    H121092  -0.016   4.312   6.749
 7049TIP3    H221093   0.062   4.184   6.728
 7050TIP3   OH221094   0.043   6.901   3.846
 7050TIP3    H121095   0.007   6.960   3.779
 7050TIP3    H221096   0.128   6.875   3.810
 7051TIP3   OH221097   4.845   4.680   6.036
 7051TIP3    H121098   4.867   4.629   6.113
 7051TIP3    H221099   4.856   4.620   5.963
 7052TIP3   OH221100   6.628   3.301   2.351
 7052TIP3    H121101   6.605   3.216   2.388
 7052TIP3    H221102   6.663   3.281   2.264
 7053TIP3   OH221103   0.183   1.933   6.724
 7053TIP3    H121104   0.255   1.871   6.736
 7053TIP3    H221105   0.104   1.881   6.737
 7054TIP3   OH221106   0.586   2.468   3.572
 7054TIP3    H121107   0.565   2.559   3.550
 7054TIP3    H221108   0.628   2.473   3.657
 7055TIP3   OH221109   8.253   1.757   1.002
 7055TIP3    H121110   8.255   1.669   0.963
 7055TIP3    H221111   8.306   1.749   1.082
 7056TIP3   OH221112   4.095   5.944   6.525
 7056TIP3    H121113   4.086   5.946   6.430
 7056TIP3    H221114   4.152   6.018   6.547
 7057TIP3   OH221115   5.456   2.573   2.459
 7057TIP3    H121116   5.508   2.608   2.531
 7057TIP3    H221117   5.387   2.638   2.445
 7058TIP3   OH221118   1.126   6.188   2.989
 7058TIP3    H121119   1.127   6.103   3.033
 7058TIP3    H221120   1.143   6.166   2.897
 7059TIP3   OH221121   0.932   4.443   2.534
 7059TIP3    H121122   0.999   4.460   2.468
 7059TIP3    H221123   0.851   4.433   2.484
 7060TIP3   OH221124   2.205   2.627   0.102
 7060TIP3    H121125   2.284   2.600   0.056
 7060TIP3    H221126   2.205   2.723   0.095
 7061TIP3   OH221127   0.290   5.982   5.903
 7061TIP3    H121128   0.340   6.015   5.978
 7061TIP3    H221129   0.224   5.924   5.942
 7062TIP3   OH221130   1.342   7.241   3.701
 7062TIP3    H121131   1.274   7.275   3.760
 7062TIP3    H221132   1.419   7.230   3.756
 7063TIP3   OH221133   8.205   0.123   5.683
 7063TIP3    H121134   8.291   0.084   5.670
 7063TIP3    H221135   8.223   0.214   5.705
 7064TIP3   OH221136   2.304   4.120   6.337
 7064TIP3    H121137   2.355   4.083   6.409
 7064TIP3    H221138   2.296   4.213   6.358
 7065TIP3   OH221139   3.097   3.845   0.399
 7065TIP3    H121140   3.106   3.791   0.320
 7065TIP3    H221141   3.107   3.784   0.472
 7066TIP3   OH221142   3.801   3.066   0.806
 7066TIP3    H121143   3.857   3.035   0.877
 7066TIP3    H221144   3.796   2.992   0.745
 7067TIP3   OH221145   6.961   3.302   5.111
 7067TIP3    H121146   7.016   3.319   5.035
 7067TIP3    H221147   7.016   3.324   5.186
 7068TIP3   OH221148   2.826   4.737   5.518
 7068TIP3    H121149   2.912   4.703   5.544
 7068TIP3    H221150   2.771   4.659   5.515
 7069TIP3   OH221151   2.802   2.098   2.812
 7069TIP3    H121152   2.774   2.025   2.866
 7069TIP3    H221153   2.807   2.063   2.723
 7070TIP3   OH221154   7.010   4.828   5.956
 7070TIP3    H121155   7.051   4.852   6.038
 7070TIP3    H221156   7.066   4.760   5.919
 7071TIP3   OH221157   7.283   2.966   0.568
 7071TIP3    H121158   7.367   2.980   0.612
 7071TIP3    H221159   7.300   2.896   0.505
 7072TIP3   OH221160   3.577   1.391   6.360
 7072TIP3    H121161   3.576   1.364   6.268
 7072TIP3    H221162   3.509   1.337   6.401
 7073TIP3   OH221163   0.048   5.869   6.002
 7073TIP3    H121164  -0.003   5.789   6.017
 7073TIP3    H221165   0.044   5.916   6.085
 7074TIP3   OH221166   6.069   5.386   6.036
 7074TIP3    H121167   6.072   5.468   6.085
 7074TIP3    H221168   6.090   5.411   5.945
 7075TIP3   OH221169   7.942   7.411   0.266
 7075TIP3    H121170   7.959   7.329   0.220
 7075TIP3    H221171   8.020   7.425   0.320
 7076TIP3   OH221172   1.747   4.259   1.259
 7076TIP3    H121173   1.703   4.179   1.288
 7076TIP3    H221174   1.820   4.228   1.205
 7077TIP3   OH221175   4.470   4.806   1.657
 7077TIP3    H121176   4.454   4.712   1.656
 7077TIP3    H221177   4.423   4.840   1.581
 7078TIP3   OH221178   2.628   5.503   2.679
 7078TIP3    H121179   2.594   5.506   2.768
 7078TIP3    H221180   2.674   5.587   2.668
 7079TIP3   OH221181   3.345   2.371   6.083
 7079TIP3    H121182   3.317   2.413   6.164
 7079TIP3    H221183   3.395   2.294   6.112
 7080TIP3   OH221184   2.308   4.433   5.671
 7080TIP3    H121185   2.239   4.494   5.643
 7080TIP3    H221186   2.263   4.349   5.679
 7081TIP3   OH221187   4.488   4.708   0.999
 7081TIP3    H121188   4.396   4.698   1.024
 7081TIP3    H221189   4.488   4.700   0.903
 7082TIP3   OH221190   2.595   0.828   2.133
 7082TIP3    H121191   2.607   0.847   2.040
 7082TIP3    H221192   2.661   0.762   2.153
 7083TIP3   OH221193   3.936   4.010   2.880
 7083TIP3    H121194   3.978   4.076   2.824
 7083TIP3    H221195   3.871   4.060   2.931
 7084TIP3   OH221196   4.130   6.713   5.672
 7084TIP3    H121197   4.195   6.710   5.742
 7084TIP3    H221198   4.105   6.622   5.658
 7085TIP3   OH221199   4.514   5.556   0.662
 7085TIP3    H121200   4.501   5.584   0.753
 7085TIP3    H221201   4.506   5.460   0.666
 7086TIP3   OH221202   7.352   2.659   0.124
 7086TIP3    H121203   7.278   2.637   0.067
 7086TIP3    H221204   7.429   2.632   0.074
 7087TIP3   OH221205   7.019   2.327   5.215
 7087TIP3    H121206   6.968   2.347   5.136
 7087TIP3    H221207   7.105   2.300   5.182
 7088TIP3   OH221208   5.047   2.384   1.541
 7088TIP3    H121209   5.031   2.439   1.464
 7088TIP3    H221210   5.112   2.321   1.512
 7089TIP3   OH221211   0.772   3.973   6.594
 7089TIP3    H121212   0.801   4.055   6.634
 7089TIP3    H221213   0.719   4.001   6.519
 7090TIP3   OH221214   4.230   5.047   3.592
 7090TIP3    H121215   4.223   5.016   3.683
 7090TIP3    H221216   4.322   5.073   3.583
 7091TIP3   OH221217   2.151   0.520   6.495
 7091TIP3    H121218   2.242   0.498   6.518
 7091TIP3    H221219   2.156   0.551   6.405
 7092TIP3   OH221220   7.800   5.252   2.223
 7092TIP3    H121221   7.788   5.346   2.213
 7092TIP3    H221222   7.813   5.240   2.318
 7093TIP3   OH221223   1.792   1.735   6.327
 7093TIP3    H121224   1.807   1.799   6.397
 7093TIP3    H221225   1.878   1.723   6.286
 7094TIP3   OH221226   0.410   1.732   4.388
 7094TIP3    H121227   0.399   1.672   4.315
 7094TIP3    H221228   0.419   1.675   4.465
 7095TIP3   OH221229   0.663   5.701   5.614
 7095TIP3    H121230   0.597   5.653   5.564
 7095TIP3    H221231   0.633   5.791   5.613
 7096TIP3   OH221232   2.051   2.229   6.598
 7096TIP3    H121233   2.041   2.274   6.682
 7096TIP3    H221234   2.145   2.228   6.582
 7097TIP3   OH221235   1.329   2.744   2.769
 7097TIP3    H121236   1.287   2.673   2.818
 7097TIP3    H221237   1.315   2.722   2.677
 7098TIP3   OH221238   6.784   4.137   3.488
 7098TIP3    H121239   6.866   4.112   3.530
 7098TIP3    H221240   6.797   4.228   3.461
 7099TIP3   OH221241   2.670   3.561   5.347
 7099TIP3    H121242   2.716   3.518   5.418
 7099TIP3    H221243   2.706   3.522   5.267
 7100TIP3   OH221244   0.049   3.143   3.260
 7100TIP3    H121245   0.052   3.155   3.355
 7100TIP3    H221246  -0.040   3.169   3.235
 7101TIP3   OH221247   7.433   2.929   2.651
 7101TIP3    H121248   7.529   2.936   2.645
 7101TIP3    H221249   7.404   2.928   2.560
 7102TIP3   OH221250   3.279   6.154   3.147
 7102TIP3    H121251   3.263   6.075   3.096
 7102TIP3    H221252   3.270   6.225   3.084
 7103TIP3   OH221253   8.258   1.318   4.979
 7103TIP3    H121254   8.168   1.295   5.004
 7103TIP3    H221255   8.280   1.254   4.911
 7104TIP3   OH221256   7.621   2.003   0.774
 7104TIP3    H121257   7.641   1.989   0.682
 7104TIP3    H221258   7.638   1.919   0.816
 7105TIP3   OH221259   7.033   7.781   3.470
 7105TIP3    H121260   6.962   7.817   3.523
 7105TIP3    H221261   7.111   7.825   3.502
 7106TIP3   OH221262   1.481   2.431   2.795
 7106TIP3    H121263   1.432   2.438   2.877
 7106TIP3    H221264   1.415   2.407   2.730
 7107TIP3   OH221265   5.621   4.661  -0.003
 7107TIP3    H121266   5.675   4.646   0.074
 7107TIP3    H221267   5.565   4.584  -0.008
 7108TIP3   OH221268   1.001   2.837   4.359
 7108TIP3    H121269   0.981   2.801   4.273
 7108TIP3    H221270   1.012   2.761   4.416
 7109TIP3   OH221271   8.173   3.190  -0.013
 7109TIP3    H121272   8.250   3.211  -0.064
 7109TIP3    H221273   8.181   3.243   0.066
 7110TIP3   OH221274   0.766   5.716   2.708
 7110TIP3    H121275   0.857   5.738   2.730
 7110TIP3    H221276   0.713   5.769   2.768
 7111TIP3   OH221277   0.854   2.286   5.271
 7111TIP3    H121278   0.801   2.238   5.207
 7111TIP3    H221279   0.817   2.374   5.270
 7112TIP3   OH221280   4.880   3.390   4.474
 7112TIP3    H121281   4.900   3.364   4.564
 7112TIP3    H221282   4.830   3.317   4.439
 7113TIP3   OH221283   1.685   1.881   5.349
 7113TIP3    H121284   1.654   1.871   5.439
 7113TIP3    H221285   1.737   1.802   5.333
 7114TIP3   OH221286   7.682   4.857   0.234
 7114TIP3    H121287   7.746   4.816   0.291
 7114TIP3    H221288   7.644   4.927   0.287
 7115TIP3   OH221289   8.242   7.468   6.011
 7115TIP3    H121290   8.170   7.477   5.948
 7115TIP3    H221291   8.277   7.380   5.995
 7116TIP3   OH221292   0.573   1.870   3.771
 7116TIP3    H121293   0.626   1.903   3.843
 7116TIP3    H221294   0.498   1.930   3.767
 7117TIP3   OH221295   0.955   7.134   4.326
 7117TIP3    H121296   0.930   7.074   4.256
 7117TIP3    H221297   0.872   7.164   4.362
 7118TIP3   OH221298   1.489   6.638   1.106
 7118TIP3    H121299   1.442   6.581   1.167
 7118TIP3    H221300   1.562   6.585   1.074
 7119TIP3   OH221301   6.975   3.144   6.751
 7119TIP3    H121302   7.046   3.105   6.699
 7119TIP3    H221303   6.987   3.238   6.742
 7120TIP3   OH221304   4.316   6.911   6.598
 7120TIP3    H121305   4.372   6.988   6.605
 7120TIP3    H221306   4.369   6.838   6.631
 7121TIP3   OH221307   6.267   2.748   3.071
 7121TIP3    H121308   6.267   2.706   3.157
 7121TIP3    H221309   6.257   2.677   3.008
 7122TIP3   OH221310   1.202   7.537   5.996
 7122TIP3    H121311   1.179   7.452   6.033
 7122TIP3    H221312   1.219   7.520   5.903
 7123TIP3   OH221313   6.612   0.113   5.011
 7123TIP3    H121314   6.682   0.112   4.946
 7123TIP3    H221315   6.657   0.134   5.093
 7124TIP3   OH221316   4.806   1.876   6.008
 7124TIP3    H121317   4.712   1.895   5.998
 7124TIP3    H221318   4.809   1.786   6.038
 7125TIP3   OH221319   3.207   0.396   1.580
 7125TIP3    H121320   3.288   0.428   1.539
 7125TIP3    H221321   3.208   0.302   1.562
 7126TIP3   OH221322   6.216   3.542   0.089
 7126TIP3    H121323   6.253   3.474   0.033
 7126TIP3    H221324   6.208   3.618   0.031
 7127TIP3   OH221325   1.134   3.864   4.237
 7127TIP3    H121326   1.066   3.867   4.170
 7127TIP3    H221327   1.193   3.936   4.214
 7128TIP3   OH221328   1.576   4.442   3.022
 7128TIP3    H121329   1.535   4.525   2.997
 7128TIP3    H221330   1.624   4.414   2.943
 7129TIP3   OH221331   6.843   3.651   2.234
 7129TIP3    H121332   6.768   3.708   2.248
 7129TIP3    H221333   6.814   3.565   2.267
 7130TIP3   OH221334   2.264   2.555   4.872
 7130TIP3    H121335   2.271   2.640   4.829
 7130TIP3    H221336   2.255   2.575   4.965
 7131TIP3   OH221337   3.788   1.243   2.047
 7131TIP3    H121338   3.821   1.294   2.121
 7131TIP3    H221339   3.692   1.246   2.057
 7132TIP3   OH221340   5.962   3.883   6.404
 7132TIP3    H121341   5.916   3.830   6.339
 7132TIP3    H221342   6.054   3.878   6.378
 7133TIP3   OH221343   1.903   3.443   2.426
 7133TIP3    H121344   1.827   3.491   2.394
 7133TIP3    H221345   1.956   3.428   2.349
 7134TIP3   OH221346   2.193   7.377   3.684
 7134TIP3    H121347   2.277   7.331   3.692
 7134TIP3    H221348   2.217   7.468   3.668
 7135TIP3   OH221349   6.493   2.539   2.510
 7135TIP3    H121350   6.446   2.617   2.537
 7135TIP3    H221351   6.425   2.471   2.505
 7136TIP3   OH221352   1.788   4.879   1.641
 7136TIP3    H121353   1.850   4.906   1.708
 7136TIP3    H221354   1.835   4.815   1.588
 7137TIP3   OH221355   2.411   3.794   3.469
 7137TIP3    H121356   2.452   3.748   3.542
 7137TIP3    H221357   2.477   3.856   3.438
 7138TIP3   OH221358   4.592   3.626   5.757
 7138TIP3    H121359   4.649   3.691   5.718
 7138TIP3    H221360   4.589   3.555   5.693
 7139TIP3   OH221361   8.271   7.437   6.336
 7139TIP3    H121362   8.246   7.524   6.305
 7139TIP3    H221363   8.275   7.445   6.431
 7140TIP3   OH221364   1.870   3.474   1.180
 7140TIP3    H121365   1.784   3.509   1.156
 7140TIP3    H221366   1.860   3.380   1.172
 7141TIP3   OH221367   6.147   2.449   0.724
 7141TIP3    H121368   6.172   2.452   0.816
 7141TIP3    H221369   6.058   2.413   0.724
 7142TIP3   OH221370   1.205   1.360   5.105
 7142TIP3    H121371   1.263   1.339   5.178
 7142TIP3    H221372   1.136   1.294   5.110
 7143TIP3   OH221373   5.422   2.671   5.396
 7143TIP3    H121374   5.365   2.748   5.388
 7143TIP3    H221375   5.404   2.637   5.483
 7144TIP3   OH221376   4.545   2.744   3.648
 7144TIP3    H121377   4.597   2.678   3.695
 7144TIP3    H221378   4.465   2.753   3.700
 7145TIP3   OH221379   3.139   3.440   0.473
 7145TIP3    H121380   3.106   3.517   0.520
 7145TIP3    H221381   3.099   3.366   0.519
 7146TIP3   OH221382   3.860   3.604   4.995
 7146TIP3    H121383   3.866   3.677   5.057
 7146TIP3    H221384   3.774   3.567   5.011
 7147TIP3   OH221385   4.249   1.053   1.022
 7147TIP3    H121386   4.243   1.041   0.928
 7147TIP3    H221387   4.321   1.116   1.034
 7148TIP3   OH221388   0.701   5.450   3.527
 7148TIP3    H121389   0.668   5.410   3.446
 7148TIP3    H221390   0.650   5.530   3.537
 7149TIP3   OH221391   1.301   6.857   4.198
 7149TIP3    H121392   1.304   6.765   4.171
 7149TIP3    H221393   1.368   6.865   4.266
 7150TIP3   OH221394   2.225   1.225   3.948
 7150TIP3    H121395   2.239   1.138   3.909
 7150TIP3    H221396   2.187   1.206   4.034
 7151TIP3   OH221397   5.572   0.572   0.933
 7151TIP3    H121398   5.520   0.647   0.904
 7151TIP3    H221399   5.514   0.497   0.923
 7152TIP3   OH221400   0.165   2.704   2.060
 7152TIP3    H121401   0.082   2.752   2.056
 7152TIP3    H221402   0.188   2.689   1.968
 7153TIP3   OH221403   2.906   2.291   0.509
 7153TIP3    H121404   2.942   2.230   0.573
 7153TIP3    H221405   2.983   2.332   0.469
 7154TIP3   OH221406   2.140   4.395   0.402
 7154TIP3    H121407   2.071   4.390   0.468
 7154TIP3    H221408   2.168   4.304   0.390
 7155TIP3   OH221409   1.771   6.602   4.521
 7155TIP3    H121410   1.832   6.535   4.488
 7155TIP3    H221411   1.737   6.643   4.442
 7156TIP3   OH221412   2.807   5.964   2.275
 7156TIP3    H121413   2.823   5.899   2.206
 7156TIP3    H221414   2.794   5.912   2.354
 7157TIP3   OH221415   0.249   7.570   5.729
 7157TIP3    H121416   0.210   7.484   5.712
 7157TIP3    H221417   0.195   7.631   5.678
 7158TIP3   OH221418   8.186   7.411   0.384
 7158TIP3    H121419   8.195   7.349   0.311
 7158TIP3    H221420   8.239   7.372   0.454
 7159TIP3   OH221421   5.180   2.383   6.759
 7159TIP3    H121422   5.248   2.327   6.721
 7159TIP3    H221423   5.131   2.416   6.684
 7160TIP3   OH221424   7.758   7.336   0.545
 7160TIP3    H121425   7.714   7.363   0.464
 7160TIP3    H221426   7.827   7.401   0.557
 7161TIP3   OH221427   1.829   4.983   0.978
 7161TIP3    H121428   1.819   4.892   0.950
 7161TIP3    H221429   1.863   4.976   1.067
 7162TIP3   OH221430   6.172   4.507   4.032
 7162TIP3    H121431   6.219   4.558   4.097
 7162TIP3    H221432   6.122   4.443   4.083
 7163TIP3   OH221433   3.862   2.497   0.233
 7163TIP3    H121434   3.891   2.406   0.240
 7163TIP3    H221435   3.916   2.534   0.163
 7164TIP3   OH221436   6.170   3.651   6.041
 7164TIP3    H121437   6.186   3.714   5.971
 7164TIP3    H221438   6.097   3.598   6.009
 7165TIP3   OH221439   0.335   4.192   3.533
 7165TIP3    H121440   0.366   4.281   3.551
 7165TIP3    H221441   0.403   4.154   3.478
 7166TIP3   OH221442   3.766   4.752   0.565
 7166TIP3    H121443   3.725   4.700   0.496
 7166TIP3    H221444   3.852   4.774   0.531
 7167TIP3   OH221445   5.046   0.429   1.642
 7167TIP3    H121446   5.071   0.448   1.552
 7167TIP3    H221447   4.980   0.494   1.664
 7168TIP3   OH221448   7.225   4.736   2.821
 7168TIP3    H121449   7.170   4.685   2.880
 7168TIP3    H221450   7.283   4.785   2.879
 7169TIP3   OH221451   4.780   4.804   4.926
 7169TIP3    H121452   4.868   4.844   4.923
 7169TIP3    H221453   4.796   4.713   4.950
 7170TIP3   OH221454   4.329   5.687   2.359
 7170TIP3    H121455   4.378   5.682   2.441
 7170TIP3    H221456   4.382   5.638   2.296
 7171TIP3   OH221457   7.173   1.245   5.926
 7171TIP3    H121458   7.217   1.240   6.011
 7171TIP3    H221459   7.099   1.185   5.934
 7172TIP3   OH221460   2.736   3.424   4.135
 7172TIP3    H121461   2.755   3.365   4.062
 7172TIP3    H221462   2.821   3.447   4.170
 7173TIP3   OH221463   1.417   3.331   5.744
 7173TIP3    H121464   1.355   3.271   5.702
 7173TIP3    H221465   1.417   3.408   5.688
 7174TIP3   OH221466   4.548   5.296   5.496
 7174TIP3    H121467   4.503   5.260   5.572
 7174TIP3    H221468   4.500   5.262   5.421
 7175TIP3   OH221469   4.598   5.716   6.292
 7175TIP3    H121470   4.542   5.778   6.340
 7175TIP3    H221471   4.551   5.699   6.211
 7176TIP3   OH221472   4.240   0.330   6.516
 7176TIP3    H121473   4.253   0.394   6.586
 7176TIP3    H221474   4.201   0.380   6.445
 7177TIP3   OH221475   3.194   1.379   1.394
 7177TIP3    H121476   3.253   1.439   1.348
 7177TIP3    H221477   3.131   1.352   1.328
 7178TIP3   OH221478   4.816   0.898   4.662
 7178TIP3    H121479   4.766   0.977   4.642
 7178TIP3    H221480   4.864   0.879   4.581
 7179TIP3   OH221481   1.734   5.083   2.985
 7179TIP3    H121482   1.821   5.075   2.948
 7179TIP3    H221483   1.683   5.013   2.944
 7180TIP3   OH221484   7.174   1.832   2.932
 7180TIP3    H121485   7.173   1.925   2.953
 7180TIP3    H221486   7.266   1.811   2.915
 7181TIP3   OH221487   5.200   7.412   5.607
 7181TIP3    H121488   5.131   7.351   5.580
 7181TIP3    H221489   5.259   7.415   5.531
 7182TIP3   OH221490   6.598   7.248   2.928
 7182TIP3    H121491   6.651   7.201   2.992
 7182TIP3    H221492   6.627   7.214   2.843
 7183TIP3   OH221493   4.107   6.913   3.522
 7183TIP3    H121494   4.194   6.892   3.557
 7183TIP3    H221495   4.057   6.832   3.532
 7184TIP3   OH221496   2.778   2.429   1.239
 7184TIP3    H121497   2.837   2.440   1.164
 7184TIP3    H221498   2.826   2.466   1.313
 7185TIP3   OH221499   5.101   0.897   3.456
 7185TIP3    H121500   5.028   0.864   3.404
 7185TIP3    H221501   5.127   0.978   3.413
 7186TIP3   OH221502   3.182   0.613   2.527
 7186TIP3    H121503   3.221   0.580   2.445
 7186TIP3    H221504   3.118   0.546   2.551
 7187TIP3   OH221505   6.395   2.634   1.239
 7187TIP3    H121506   6.403   2.647   1.144
 7187TIP3    H221507   6.451   2.701   1.278
 7188TIP3   OH221508   0.400   4.699   5.161
 7188TIP3    H121509   0.443   4.785   5.159
 7188TIP3    H221510   0.408   4.666   5.072
 7189TIP3   OH221511   0.345   3.608   1.702
 7189TIP3    H121512   0.352   3.538   1.767
 7189TIP3    H221513   0.349   3.563   1.618
 7190TIP3   OH221514   3.183   2.587   3.437
 7190TIP3    H121515   3.167   2.531   3.362
 7190TIP3    H221516   3.220   2.529   3.504
 7191TIP3   OH221517   5.569   6.566   6.013
 7191TIP3    H121518   5.625   6.523   5.949
 7191TIP3    H221519   5.628   6.594   6.082
 7192TIP3   OH221520   8.025   7.568   3.078
 7192TIP3    H121521   7.989   7.530   2.997
 7192TIP3    H221522   8.112   7.530   3.086
 7193TIP3   OH221523   2.600   7.467   4.841
 7193TIP3    H121524   2.676   7.515   4.807
 7193TIP3    H221525   2.548   7.447   4.763
 7194TIP3   OH221526   2.881   5.702   1.494
 7194TIP3    H121527   2.816   5.659   1.439
 7194TIP3    H221528   2.859   5.675   1.583
 7195TIP3   OH221529   3.444   2.398   2.054
 7195TIP3    H121530   3.405   2.339   2.119
 7195TIP3    H221531   3.499   2.457   2.106
 7196TIP3   OH221532   3.505   4.465   1.746
 7196TIP3    H121533   3.486   4.382   1.702
 7196TIP3    H221534   3.519   4.442   1.837
 7197TIP3   OH221535   4.998   6.519   6.240
 7197TIP3    H121536   5.013   6.517   6.145
 7197TIP3    H221537   5.039   6.601   6.269
 7198TIP3   OH221538   5.728   4.830   1.488
 7198TIP3    H121539   5.693   4.912   1.455
 7198TIP3    H221540   5.815   4.823   1.449
 7199TIP3   OH221541   2.625   4.393   3.734
 7199TIP3    H121542   2.607   4.429   3.821
 7199TIP3    H221543   2.684   4.456   3.693
 7200TIP3   OH221544   7.579   4.801   6.151
 7200TIP3    H121545   7.535   4.801   6.066
 7200TIP3    H221546   7.509   4.786   6.215
 7201TIP3   OH221547   0.454   5.511   3.139
 7201TIP3    H121548   0.382   5.529   3.200
 7201TIP3    H221549   0.466   5.593   3.092
 7202TIP3   OH221550   2.257   2.857   2.250
 7202TIP3    H121551   2.207   2.863   2.168
 7202TIP3    H221552   2.349   2.850   2.221
 7203TIP3   OH221553   3.618   7.179   1.728
 7203TIP3    H121554   3.575   7.138   1.803
 7203TIP3    H221555   3.708   7.147   1.731
 7204TIP3   OH221556   3.979   2.681   0.740
 7204TIP3    H121557   3.949   2.593   0.764
 7204TIP3    H221558   3.972   2.684   0.645
 7205TIP3   OH221559   2.216   7.103   0.240
 7205TIP3    H121560   2.148   7.061   0.293
 7205TIP3    H221561   2.277   7.032   0.220
 7206TIP3   OH221562   1.383   2.734   5.229
 7206TIP3    H121563   1.416   2.659   5.279
 7206TIP3    H221564   1.295   2.749   5.263
 7207TIP3   OH221565   6.635   4.536   4.898
 7207TIP3    H121566   6.696   4.495   4.837
 7207TIP3    H221567   6.551   4.495   4.877
 7208TIP3   OH221568   4.761   5.356   3.397
 7208TIP3    H121569   4.760   5.411   3.475
 7208TIP3    H221570   4.668   5.344   3.375
 7209TIP3   OH221571   3.593   2.280   5.559
 7209TIP3    H121572   3.558   2.269   5.471
 7209TIP3    H221573   3.590   2.374   5.575
 7210TIP3   OH221574   4.722   4.459   0.690
 7210TIP3    H121575   4.774   4.381   0.674
 7210TIP3    H221576   4.723   4.470   0.786
 7211TIP3   OH221577   7.486   2.622   4.241
 7211TIP3    H121578   7.558   2.679   4.215
 7211TIP3    H221579   7.452   2.661   4.321
 7212TIP3   OH221580   5.676   6.646   6.725
 7212TIP3    H121581   5.684   6.597   6.643
 7212TIP3    H221582   5.676   6.578   6.793
 7213TIP3   OH221583   0.151   0.214   5.417
 7213TIP3    H121584   0.207   0.279   5.461
 7213TIP3    H221585   0.210   0.141   5.398
 7214TIP3   OH221586   5.442   5.383   0.744
 7214TIP3    H121587   5.474   5.467   0.779
 7214TIP3    H221588   5.521   5.331   0.732
 7215TIP3   OH221589   7.647   5.047   0.964
 7215TIP3    H121590   7.654   4.954   0.944
 7215TIP3    H221591   7.656   5.091   0.879
 7216TIP3   OH221592   7.872   0.242   5.731
 7216TIP3    H121593   7.814   0.267   5.803
 7216TIP3    H221594   7.818   0.256   5.652
 7217TIP3   OH221595   1.431   1.432   6.473
 7217TIP3    H121596   1.441   1.410   6.566
 7217TIP3    H221597   1.400   1.351   6.433
 7218TIP3   OH221598   0.951   1.192   3.316
 7218TIP3    H121599   0.937   1.106   3.357
 7218TIP3    H221600   0.863   1.219   3.288
 7219TIP3   OH221601   5.646   1.605   6.161
 7219TIP3    H121602   5.629   1.564   6.077
 7219TIP3    H221603   5.701   1.680   6.141
 7220TIP3   OH221604   1.260   4.013   5.745
 7220TIP3    H121605   1.286   3.981   5.659
 7220TIP3    H221606   1.166   3.999   5.748
 7221TIP3   OH221607   0.270   4.207   1.949
 7221TIP3    H121608   0.268   4.276   1.883
 7221TIP3    H221609   0.193   4.224   2.003
 7222TIP3   OH221610   0.884   7.120   5.908
 7222TIP3    H121611   0.977   7.141   5.908
 7222TIP3    H221612   0.869   7.076   5.825
 7223TIP3   OH221613   5.109   1.368   3.023
 7223TIP3    H121614   5.141   1.300   3.082
 7223TIP3    H221615   5.017   1.378   3.046
 7224TIP3   OH221616   0.939   4.572   5.674
 7224TIP3    H121617   0.946   4.634   5.746
 7224TIP3    H221618   1.029   4.559   5.644
 7225TIP3   OH221619   6.543   0.801   5.902
 7225TIP3    H121620   6.606   0.873   5.903
 7225TIP3    H221621   6.539   0.773   5.811
 7226TIP3   OH221622   3.146   7.243   4.215
 7226TIP3    H121623   3.102   7.227   4.299
 7226TIP3    H221624   3.076   7.235   4.150
 7227TIP3   OH221625   4.941   7.307   4.066
 7227TIP3    H121626   4.979   7.316   4.153
 7227TIP3    H221627   4.871   7.372   4.062
 7228TIP3   OH221628   5.035   2.012   6.194
 7228TIP3    H121629   4.964   2.041   6.136
 7228TIP3    H221630   5.030   2.071   6.270
 7229TIP3   OH221631   5.621   4.162   5.631
 7229TIP3    H121632   5.540   4.116   5.651
 7229TIP3    H221633   5.651   4.194   5.716
 7230TIP3   OH221634   3.797   4.632   3.293
 7230TIP3    H121635   3.812   4.725   3.309
 7230TIP3    H221636   3.884   4.598   3.269
 7231TIP3   OH221637   2.956   6.791   6.238
 7231TIP3    H121638   3.025   6.725   6.253
 7231TIP3    H221639   2.908   6.758   6.162
 7232TIP3   OH221640   6.017   0.045   5.580
 7232TIP3    H121641   5.976   0.069   5.497
 7232TIP3    H221642   6.103   0.013   5.555
 7233TIP3   OH221643   7.120   0.189   4.204
 7233TIP3    H121644   7.078   0.273   4.185
 7233TIP3    H221645   7.182   0.177   4.132
 7234TIP3   OH221646   7.604   4.684   4.488
 7234TIP3    H121647   7.537   4.724   4.432
 7234TIP3    H221648   7.567   4.600   4.513
 7235TIP3   OH221649   7.280   5.166   3.838
 7235TIP3    H121650   7.366   5.147   3.877
 7235TIP3    H221651   7.244   5.236   3.892
 7236TIP3   OH221652   6.072   4.902   1.185
 7236TIP3    H121653   6.088   4.861   1.270
 7236TIP3    H221654   5.977   4.910   1.180
 7237TIP3   OH221655   4.212   5.325   0.733
 7237TIP3    H121656   4.175   5.322   0.821
 7237TIP3    H221657   4.147   5.279   0.679
 7238TIP3   OH221658   0.753   7.550   5.133
 7238TIP3    H121659   0.723   7.486   5.197
 7238TIP3    H221660   0.706   7.529   5.053
 7239TIP3   OH221661   2.941   5.153   4.319
 7239TIP3    H121662   2.987   5.162   4.235
 7239TIP3    H221663   2.865   5.211   4.310
 7240TIP3   OH221664   0.013   3.381   5.838
 7240TIP3    H121665  -0.047   3.374   5.763
 7240TIP3    H221666   0.035   3.474   5.842
 7241TIP3   OH221667   5.387   6.568   5.217
 7241TIP3    H121668   5.358   6.547   5.128
 7241TIP3    H221669   5.309   6.557   5.271
 7242TIP3   OH221670   5.912   4.497   2.873
 7242TIP3    H121671   5.851   4.462   2.809
 7242TIP3    H221672   5.993   4.448   2.858
 7243TIP3   OH221673   5.349   2.778   5.684
 7243TIP3    H121674   5.383   2.690   5.678
 7243TIP3    H221675   5.258   2.771   5.654
 7244TIP3   OH221676   5.544   0.282   4.194
 7244TIP3    H121677   5.451   0.298   4.178
 7244TIP3    H221678   5.572   0.355   4.249
 7245TIP3   OH221679   0.364   6.948   6.562
 7245TIP3    H121680   0.424   6.959   6.487
 7245TIP3    H221681   0.420   6.916   6.633
 7246TIP3   OH221682   8.191   0.744   4.032
 7246TIP3    H121683   8.188   0.719   3.940
 7246TIP3    H221684   8.133   0.820   4.039
 7247TIP3   OH221685   8.191   7.052   4.106
 7247TIP3    H121686   8.150   7.012   4.183
 7247TIP3    H221687   8.199   6.980   4.043
 7248TIP3   OH221688  -0.019   5.954   3.958
 7248TIP3    H121689   0.060   5.912   3.992
 7248TIP3    H221690  -0.087   5.933   4.022
 7249TIP3   OH221691   5.272   7.072   6.769
 7249TIP3    H121692   5.288   7.076   6.864
 7249TIP3    H221693   5.356   7.046   6.732
 7250TIP3   OH221694   7.895   5.101   6.025
 7250TIP3    H121695   7.858   5.104   5.937
 7250TIP3    H221696   7.835   5.153   6.078
 7251TIP3   OH221697   5.229   3.518   4.762
 7251TIP3    H121698   5.275   3.481   4.836
 7251TIP3    H221699   5.237   3.612   4.773
 7252TIP3   OH221700   8.059   0.316   3.092
 7252TIP3    H121701   8.005   0.362   3.027
 7252TIP3    H221702   8.024   0.344   3.177
 7253TIP3   OH221703   0.688   0.675   2.217
 7253TIP3    H121704   0.680   0.611   2.288
 7253TIP3    H221705   0.722   0.754   2.260
 7254TIP3   OH221706   0.807   0.215   2.609
 7254TIP3    H121707   0.884   0.258   2.572
 7254TIP3    H221708   0.735   0.237   2.549
 7255TIP3   OH221709   8.285   2.049   2.423
 7255TIP3    H121710   8.243   2.113   2.481
 7255TIP3    H221711   8.293   1.970   2.476
 7256TIP3   OH221712   4.148   2.027   6.159
 7256TIP3    H121713   4.154   2.122   6.148
 7256TIP3    H221714   4.059   2.012   6.189
 7257TIP3   OH221715   6.797   4.458   0.116
 7257TIP3    H121716   6.850   4.428   0.190
 7257TIP3    H221717   6.715   4.409   0.123
 7258TIP3   OH221718   0.586   0.882   0.995
 7258TIP3    H121719   0.549   0.815   1.054
 7258TIP3    H221720   0.509   0.923   0.955
 7259TIP3   OH221721   1.522   4.578   1.667
 7259TIP3    H121722   1.495   4.521   1.740
 7259TIP3    H221723   1.572   4.520   1.609
 7260TIP3   OH221724   7.542   4.878   4.803
 7260TIP3    H121725   7.503   4.833   4.728
 7260TIP3    H221726   7.631   4.843   4.809
 7261TIP3   OH221727   7.147   6.261   5.637
 7261TIP3    H121728   7.130   6.213   5.556
 7261TIP3    H221729   7.090   6.220   5.702
 7262TIP3   OH221730   3.148   5.013   5.040
 7262TIP3    H121731   3.210   5.076   5.078
 7262TIP3    H221732   3.069   5.064   5.024
 7263TIP3   OH221733   7.039   3.854   5.817
 7263TIP3    H121734   7.086   3.828   5.896
 7263TIP3    H221735   7.104   3.845   5.747
 7264TIP3   OH221736   7.778   7.838   2.586
 7264TIP3    H121737   7.836   7.809   2.656
 7264TIP3    H221738   7.702   7.780   2.592
 7265TIP3   OH221739   2.262   2.136   5.886
 7265TIP3    H121740   2.224   2.130   5.974
 7265TIP3    H221741   2.339   2.192   5.897
 7266TIP3   OH221742   7.150   5.517   1.944
 7266TIP3    H121743   7.072   5.478   1.983
 7266TIP3    H221744   7.117   5.585   1.885
 7267TIP3   OH221745   4.984   2.773   1.386
 7267TIP3    H121746   5.007   2.778   1.479
 7267TIP3    H221747   4.993   2.680   1.364
 7268TIP3   OH221748   1.324   5.209   1.453
 7268TIP3    H121749   1.409   5.169   1.472
 7268TIP3    H221750   1.345   5.282   1.394
 7269TIP3   OH221751   3.008   3.450   5.278
 7269TIP3    H121752   3.077   3.428   5.216
 7269TIP3    H221753   3.042   3.422   5.363
 7270TIP3   OH221754   6.164   6.568   0.768
 7270TIP3    H121755   6.199   6.632   0.830
 7270TIP3    H221756   6.238   6.510   0.749
 7271TIP3   OH221757   0.215   6.703   2.979
 7271TIP3    H121758   0.198   6.765   3.050
 7271TIP3    H221759   0.196   6.617   3.018
 7272TIP3   OH221760   0.319   0.374   6.308
 7272TIP3    H121761   0.303   0.413   6.221
 7272TIP3    H221762   0.284   0.285   6.301
 7273TIP3   OH221763   0.313   6.365   4.762
 7273TIP3    H121764   0.313   6.459   4.744
 7273TIP3    H221765   0.406   6.340   4.763
 7274TIP3   OH221766   2.814   0.159   6.371
 7274TIP3    H121767   2.806   0.244   6.415
 7274TIP3    H221768   2.725   0.124   6.371
 7275TIP3   OH221769   7.633   3.408   1.855
 7275TIP3    H121770   7.538   3.413   1.866
 7275TIP3    H221771   7.649   3.322   1.817
 7276TIP3   OH221772   1.200   7.650   4.250
 7276TIP3    H121773   1.253   7.620   4.176
 7276TIP3    H221774   1.263   7.693   4.308
 7277TIP3   OH221775   8.005   4.718   2.675
 7277TIP3    H121776   8.062   4.788   2.707
 7277TIP3    H221777   7.964   4.754   2.596
 7278TIP3   OH221778   1.046   0.457   1.742
 7278TIP3    H121779   1.021   0.437   1.832
 7278TIP3    H221780   1.043   0.553   1.737
 7279TIP3   OH221781   0.652   5.683   1.777
 7279TIP3    H121782   0.670   5.615   1.713
 7279TIP3    H221783   0.653   5.638   1.861
 7280TIP3   OH221784   6.543   4.233   2.341
 7280TIP3    H121785   6.509   4.308   2.293
 7280TIP3    H221786   6.598   4.272   2.410
 7281TIP3   OH221787   6.046   2.727   2.835
 7281TIP3    H121788   6.093   2.784   2.774
 7281TIP3    H221789   6.012   2.786   2.902
 7282TIP3   OH221790   2.780   2.024   2.538
 7282TIP3    H121791   2.872   2.021   2.512
 7282TIP3    H221792   2.744   1.942   2.506
 7283TIP3   OH221793   0.522   0.627   4.175
 7283TIP3    H121794   0.564   0.615   4.260
 7283TIP3    H221795   0.577   0.578   4.114
 7284TIP3   OH221796  -0.012   1.568   2.688
 7284TIP3    H121797   0.025   1.567   2.776
 7284TIP3    H221798   0.032   1.496   2.642
 7285TIP3   OH221799   0.909   0.140   0.409
 7285TIP3    H121800   0.850   0.130   0.485
 7285TIP3    H221801   0.946   0.228   0.419
 7286TIP3   OH221802   3.127   5.730   4.118
 7286TIP3    H121803   3.105   5.680   4.039
 7286TIP3    H221804   3.124   5.666   4.189
 7287TIP3   OH221805   3.921   0.908   0.690
 7287TIP3    H121806   3.842   0.944   0.730
 7287TIP3    H221807   3.966   0.984   0.653
 7288TIP3   OH221808   5.842   4.715   3.868
 7288TIP3    H121809   5.814   4.732   3.778
 7288TIP3    H221810   5.762   4.722   3.920
 7289TIP3   OH221811   2.000   5.463   4.865
 7289TIP3    H121812   1.986   5.433   4.776
 7289TIP3    H221813   1.957   5.548   4.869
 7290TIP3   OH221814   1.884   5.955   5.241
 7290TIP3    H121815   1.795   5.968   5.274
 7290TIP3    H221816   1.930   6.036   5.265
 7291TIP3   OH221817   1.287   4.187   3.075
 7291TIP3    H121818   1.300   4.219   3.164
 7291TIP3    H221819   1.374   4.159   3.047
 7292TIP3   OH221820   5.380   5.896   1.837
 7292TIP3    H121821   5.476   5.900   1.831
 7292TIP3    H221822   5.355   5.980   1.877
 7293TIP3   OH221823   2.921  -0.027   0.512
 7293TIP3    H121824   2.864   0.047   0.492
 7293TIP3    H221825   2.998  -0.013   0.457
 7294TIP3   OH221826   2.827   5.099   3.752
 7294TIP3    H121827   2.765   5.038   3.712
 7294TIP3    H221828   2.909   5.050   3.758
 7295TIP3   OH221829   7.339   1.126   6.624
 7295TIP3    H121830   7.268   1.171   6.578
 7295TIP3    H221831   7.370   1.189   6.689
 7296TIP3   OH221832   5.986   6.887   1.188
 7296TIP3    H121833   5.931   6.884   1.267
 7296TIP3    H221834   5.925   6.914   1.118
 7297TIP3   OH221835   1.442   6.220   0.473
 7297TIP3    H121836   1.502   6.223   0.399
 7297TIP3    H221837   1.406   6.308   0.479
 7298TIP3   OH221838   5.812   6.256   4.866
 7298TIP3    H121839   5.858   6.246   4.783
 7298TIP3    H221840   5.774   6.344   4.862
 7299TIP3   OH221841   8.232   5.868   4.450
 7299TIP3    H121842   8.244   5.930   4.522
 7299TIP3    H221843   8.276   5.788   4.479
 7300TIP3   OH221844   3.295   1.563   6.378
 7300TIP3    H121845   3.292   1.484   6.324
 7300TIP3    H221846   3.347   1.625   6.327
 7301TIP3   OH221847   1.109   1.607   1.553
 7301TIP3    H121848   1.202   1.594   1.569
 7301TIP3    H221849   1.088   1.689   1.598
 7302TIP3   OH221850   2.326   6.577   2.429
 7302TIP3    H121851   2.385   6.651   2.414
 7302TIP3    H221852   2.314   6.538   2.342
 7303TIP3   OH221853   0.598   5.227   2.507
 7303TIP3    H121854   0.627   5.313   2.538
 7303TIP3    H221855   0.678   5.183   2.479
 7304TIP3   OH221856   8.243   2.665   5.511
 7304TIP3    H121857   8.334   2.676   5.484
 7304TIP3    H221858   8.194   2.654   5.429
 7305TIP3   OH221859   7.979   4.740   0.880
 7305TIP3    H121860   8.013   4.755   0.968
 7305TIP3    H221861   8.034   4.795   0.824
 7306TIP3   OH221862   4.437   6.989   5.637
 7306TIP3    H121863   4.396   6.990   5.550
 7306TIP3    H221864   4.490   6.910   5.638
 7307TIP3   OH221865   5.986   3.533   3.260
 7307TIP3    H121866   5.893   3.513   3.254
 7307TIP3    H221867   6.019   3.475   3.329
 7308TIP3   OH221868   7.688   4.310   0.818
 7308TIP3    H121869   7.743   4.248   0.770
 7308TIP3    H221870   7.689   4.278   0.909
 7309TIP3   OH221871   5.889   7.333   0.356
 7309TIP3    H121872   5.856   7.306   0.270
 7309TIP3    H221873   5.921   7.253   0.396
 7310TIP3   OH221874   4.945   6.833   5.385
 7310TIP3    H121875   4.977   6.743   5.387
 7310TIP3    H221876   4.977   6.872   5.465
 7311TIP3   OH221877   6.389   4.310   3.486
 7311TIP3    H121878   6.308   4.259   3.488
 7311TIP3    H221879   6.360   4.401   3.484
 7312TIP3   OH221880   7.438   7.095   0.460
 7312TIP3    H121881   7.530   7.104   0.433
 7312TIP3    H221882   7.441   7.032   0.532
 7313TIP3   OH221883   7.755   6.871   3.587
 7313TIP3    H121884   7.665   6.902   3.575
 7313TIP3    H221885   7.763   6.796   3.528
 7314TIP3   OH221886   4.281   5.241   3.846
 7314TIP3    H121887   4.266   5.262   3.753
 7314TIP3    H221888   4.193   5.240   3.884
 7315TIP3   OH221889   6.907   4.126   5.596
 7315TIP3    H121890   6.941   4.211   5.566
 7315TIP3    H221891   6.944   4.063   5.534
 7316TIP3   OH221892   1.429   4.398   0.594
 7316TIP3    H121893   1.359   4.453   0.560
 7316TIP3    H221894   1.508   4.453   0.585
 7317TIP3   OH221895   6.427   0.844   5.062
 7317TIP3    H121896   6.466   0.776   5.007
 7317TIP3    H221897   6.333   0.831   5.053
 7318TIP3   OH221898   2.959   6.968   5.609
 7318TIP3    H121899   2.982   6.945   5.698
 7318TIP3    H221900   2.954   7.064   5.609
 7319TIP3   OH221901   6.965   5.649   5.046
 7319TIP3    H121902   6.929   5.567   5.080
 7319TIP3    H221903   7.045   5.624   5.002
 7320TIP3   OH221904   0.737   6.401   6.596
 7320TIP3    H121905   0.659   6.429   6.547
 7320TIP3    H221906   0.808   6.452   6.559
 7321TIP3   OH221907   1.972   7.496   1.411
 7321TIP3    H121908   1.918   7.482   1.333
 7321TIP3    H221909   2.062   7.498   1.377
 7322TIP3   OH221910   7.177   5.367   6.451
 7322TIP3    H121911   7.095   5.324   6.473
 7322TIP3    H221912   7.186   5.436   6.516
 7323TIP3   OH221913   2.314   5.636   4.609
 7323TIP3    H121914   2.232   5.666   4.570
 7323TIP3    H221915   2.328   5.693   4.684
 7324TIP3   OH221916   4.817   5.162   6.669
 7324TIP3    H121917   4.857   5.239   6.627
 7324TIP3    H221918   4.730   5.157   6.628
 7325TIP3   OH221919   1.498   4.767   6.402
 7325TIP3    H121920   1.476   4.674   6.403
 7325TIP3    H221921   1.586   4.771   6.363
 7326TIP3   OH221922   8.091   0.150   4.616
 7326TIP3    H121923   8.178   0.113   4.628
 7326TIP3    H221924   8.070   0.132   4.524
 7327TIP3   OH221925   0.636   1.333   0.984
 7327TIP3    H121926   0.723   1.363   1.011
 7327TIP3    H221927   0.619   1.256   1.040
 7328TIP3   OH221928   6.962   2.653   6.584
 7328TIP3    H121929   6.929   2.595   6.514
 7328TIP3    H221930   6.926   2.739   6.563
 7329TIP3   OH221931   0.782   5.289   1.395
 7329TIP3    H121932   0.846   5.359   1.378
 7329TIP3    H221933   0.835   5.216   1.429
 7330TIP3   OH221934   0.390   7.840   0.021
 7330TIP3    H121935   0.436   7.756   0.030
 7330TIP3    H221936   0.450   7.894  -0.030
 7331TIP3   OH221937   7.167   0.883   3.358
 7331TIP3    H121938   7.128   0.948   3.300
 7331TIP3    H221939   7.116   0.804   3.343
 7332TIP3   OH221940   5.137   2.206   4.192
 7332TIP3    H121941   5.086   2.131   4.222
 7332TIP3    H221942   5.227   2.174   4.190
 7333TIP3   OH221943   6.985   4.841   6.408
 7333TIP3    H121944   7.056   4.816   6.468
 7333TIP3    H221945   6.957   4.758   6.369
 7334TIP3   OH221946   2.611   1.384   5.052
 7334TIP3    H121947   2.562   1.302   5.048
 7334TIP3    H221948   2.698   1.359   5.082
 7335TIP3   OH221949   5.255   6.515   4.287
 7335TIP3    H121950   5.325   6.496   4.225
 7335TIP3    H221951   5.198   6.577   4.241
 7336TIP3   OH221952   7.947   2.131   5.984
 7336TIP3    H121953   7.924   2.209   6.034
 7336TIP3    H221954   8.039   2.116   6.004
 7337TIP3   OH221955   7.016   2.887   5.200
 7337TIP3    H121956   7.023   2.792   5.196
 7337TIP3    H221957   6.972   2.912   5.119
 7338TIP3   OH221958   3.199   0.469   0.624
 7338TIP3    H121959   3.131   0.511   0.571
 7338TIP3    H221960   3.280   0.512   0.596
 7339TIP3   OH221961   2.833   3.571   1.336
 7339TIP3    H121962   2.822   3.652   1.387
 7339TIP3    H221963   2.897   3.520   1.385
 7340TIP3   OH221964   2.586   0.855   0.417
 7340TIP3    H121965   2.611   0.763   0.429
 7340TIP3    H221966   2.613   0.898   0.498
 7341TIP3   OH221967   4.841   7.091   6.365
 7341TIP3    H121968   4.781   7.118   6.434
 7341TIP3    H221969   4.919   7.146   6.378
 7342TIP3   OH221970   6.997   4.545   4.087
 7342TIP3    H121971   7.087   4.544   4.052
 7342TIP3    H221972   6.955   4.619   4.044
 7343TIP3   OH221973   5.642   5.280   1.018
 7343TIP3    H121974   5.636   5.215   0.949
 7343TIP3    H221975   5.557   5.276   1.062
 7344TIP3   OH221976   3.024   0.667   0.966
 7344TIP3    H121977   3.059   0.751   0.994
 7344TIP3    H221978   3.100   0.609   0.962
 7345TIP3   OH221979   0.049   6.018   6.258
 7345TIP3    H121980   0.108   6.091   6.279
 7345TIP3    H221981  -0.035   6.045   6.294
 7346TIP3   OH221982   2.386   5.609   4.068
 7346TIP3    H121983   2.319   5.593   4.134
 7346TIP3    H221984   2.402   5.704   4.072
 7347TIP3   OH221985   2.683   6.724   0.322
 7347TIP3    H121986   2.689   6.811   0.283
 7347TIP3    H221987   2.590   6.713   0.342
 7348TIP3   OH221988   4.050   6.149   5.148
 7348TIP3    H121989   3.992   6.125   5.076
 7348TIP3    H221990   4.120   6.200   5.107
 7349TIP3   OH221991   0.098   3.089   2.559
 7349TIP3    H121992   0.108   3.067   2.652
 7349TIP3    H221993   0.073   3.181   2.559
 7350TIP3   OH221994   3.482   4.218   1.630
 7350TIP3    H121995   3.468   4.170   1.549
 7350TIP3    H221996   3.522   4.155   1.689
 7351TIP3   OH221997   0.805   7.299   6.678
 7351TIP3    H121998   0.790   7.207   6.657
 7351TIP3    H221999   0.897   7.304   6.701
 7352TIP3   OH222000   7.121   1.712   1.731
 7352TIP3    H122001   7.208   1.671   1.735
 7352TIP3    H222002   7.138   1.800   1.699
 7353TIP3   OH222003   7.026   1.680   1.997
 7353TIP3    H122004   7.039   1.719   1.911
 7353TIP3    H222005   6.940   1.711   2.024
 7354TIP3   OH222006   5.857   7.333   0.689
 7354TIP3    H122007   5.858   7.381   0.772
 7354TIP3    H222008   5.787   7.374   0.638
 7355TIP3   OH222009   6.255   7.312   4.268
 7355TIP3    H122010   6.223   7.253   4.336
 7355TIP3    H222011   6.339   7.274   4.241
 7356TIP3   OH222012   2.074   3.712   4.202
 7356TIP3    H122013   2.034   3.798   4.188
 7356TIP3    H222014   2.025   3.674   4.275
 7357TIP3   OH222015   5.899   7.021   3.086
 7357TIP3    H122016   5.940   7.065   3.161
 7357TIP3    H222017   5.837   7.086   3.051
 7358TIP3   OH222018   6.764   1.421   2.212
 7358TIP3    H122019   6.686   1.408   2.265
 7358TIP3    H222020   6.814   1.340   2.222
 7359TIP3   OH222021   2.747   5.157   1.525
 7359TIP3    H122022   2.796   5.077   1.544
 7359TIP3    H222023   2.686   5.133   1.456
 7360TIP3   OH222024   4.446   4.806   5.301
 7360TIP3    H122025   4.371   4.746   5.300
 7360TIP3    H222026   4.474   4.812   5.210
 7361TIP3   OH222027   7.921   2.682   4.233
 7361TIP3    H122028   7.906   2.595   4.196
 7361TIP3    H222029   7.989   2.720   4.177
 7362TIP3   OH222030   8.217   1.031   5.889
 7362TIP3    H122031   8.227   1.003   5.980
 7362TIP3    H222032   8.246   1.122   5.889
 7363TIP3   OH222033   3.492   6.866   4.282
 7363TIP3    H122034   3.480   6.895   4.373
 7363TIP3    H222035   3.481   6.771   4.286
 7364TIP3   OH222036   4.997   3.287   2.890
 7364TIP3    H122037   4.994   3.261   2.798
 7364TIP3    H222038   5.079   3.249   2.923
 7365TIP3   OH222039   1.864   3.562   4.053
 7365TIP3    H122040   1.777   3.602   4.060
 7365TIP3    H222041   1.925   3.633   4.073
 7366TIP3   OH222042   4.933   7.178   0.335
 7366TIP3    H122043   4.984   7.196   0.256
 7366TIP3    H222044   4.897   7.263   0.360
 7367TIP3   OH222045   3.939   5.564   5.294
 7367TIP3    H122046   3.942   5.655   5.266
 7367TIP3    H222047   3.899   5.517   5.220
 7368TIP3   OH222048   6.810   2.159   4.736
 7368TIP3    H122049   6.888   2.123   4.778
 7368TIP3    H222050   6.747   2.170   4.808
 7369TIP3   OH222051   0.101   3.091   0.551
 7369TIP3    H122052   0.127   3.144   0.626
 7369TIP3    H222053   0.014   3.123   0.527
 7370TIP3   OH222054   5.785   3.206   1.103
 7370TIP3    H122055   5.712   3.268   1.113
 7370TIP3    H222056   5.846   3.228   1.173
 7371TIP3   OH222057   1.380   7.414   0.243
 7371TIP3    H122058   1.309   7.360   0.279
 7371TIP3    H222059   1.340   7.499   0.227
 7372TIP3   OH222060   1.369   7.634   4.909
 7372TIP3    H122061   1.309   7.628   4.983
 7372TIP3    H222062   1.445   7.582   4.935
 7373TIP3   OH222063   1.535   5.092   0.549
 7373TIP3    H122064   1.485   5.079   0.468
 7373TIP3    H222065   1.584   5.173   0.534
 7374TIP3   OH222066   6.560   2.820   5.498
 7374TIP3    H122067   6.513   2.902   5.515
 7374TIP3    H222068   6.507   2.775   5.433
 7375TIP3   OH222069   5.689   0.403   4.612
 7375TIP3    H122070   5.593   0.405   4.609
 7375TIP3    H222071   5.715   0.392   4.520
 7376TIP3   OH222072   1.231   7.192   2.655
 7376TIP3    H122073   1.282   7.273   2.652
 7376TIP3    H222074   1.155   7.214   2.710
 7377TIP3   OH222075   1.835   4.505   2.732
 7377TIP3    H122076   1.923   4.515   2.698
 7377TIP3    H222077   1.847   4.473   2.822
 7378TIP3   OH222078   2.811   7.095   1.384
 7378TIP3    H122079   2.742   7.082   1.319
 7378TIP3    H222080   2.766   7.089   1.468
 7379TIP3   OH222081   1.553   4.553   4.175
 7379TIP3    H122082   1.545   4.473   4.124
 7379TIP3    H222083   1.463   4.580   4.192
 7380TIP3   OH222084   6.001   4.455   3.797
 7380TIP3    H122085   6.047   4.439   3.880
 7380TIP3    H222086   5.967   4.544   3.805
 7381TIP3   OH222087   5.581   5.678   0.166
 7381TIP3    H122088   5.531   5.625   0.104
 7381TIP3    H222089   5.558   5.641   0.252
 7382TIP3   OH222090   1.299   6.564   4.949
 7382TIP3    H122091   1.357   6.488   4.943
 7382TIP3    H222092   1.352   6.631   4.993
 7383TIP3   OH222093   6.915   1.142   1.446
 7383TIP3    H122094   6.859   1.208   1.485
 7383TIP3    H222095   6.965   1.189   1.379
 7384TIP3   OH222096   0.837   3.204   2.367
 7384TIP3    H122097   0.811   3.293   2.391
 7384TIP3    H222098   0.864   3.163   2.450
 7385TIP3   OH222099   0.543   5.406   2.883
 7385TIP3    H122100   0.578   5.317   2.868
 7385TIP3    H222101   0.491   5.398   2.963
 7386TIP3   OH222102   7.461   1.932   5.472
 7386TIP3    H122103   7.396   2.002   5.467
 7386TIP3    H222104   7.534   1.963   5.418
 7387TIP3   OH222105   2.278   0.188   2.092
 7387TIP3    H122106   2.253   0.127   2.161
 7387TIP3    H222107   2.372   0.173   2.080
 7388TIP3   OH222108   2.139   5.828   6.085
 7388TIP3    H122109   2.147   5.923   6.093
 7388TIP3    H222110   2.112   5.814   5.995
 7389TIP3   OH222111   3.753   1.194   0.653
 7389TIP3    H122112   3.719   1.269   0.603
 7389TIP3    H222113   3.846   1.214   0.664
 7390TIP3   OH222114   2.552   1.931   5.383
 7390TIP3    H122115   2.642   1.947   5.353
 7390TIP3    H222116   2.507   1.895   5.307
 7391TIP3   OH222117   7.042   2.577   2.192
 7391TIP3    H122118   7.030   2.487   2.223
 7391TIP3    H222119   6.990   2.630   2.252
 7392TIP3   OH222120   0.656   2.562   2.677
 7392TIP3    H122121   0.732   2.522   2.719
 7392TIP3    H222122   0.690   2.642   2.638
 7393TIP3   OH222123   1.822   6.789   4.728
 7393TIP3    H122124   1.801   6.730   4.657
 7393TIP3    H222125   1.914   6.813   4.713
 7394TIP3   OH222126   7.406   3.571   5.216
 7394TIP3    H122127   7.486   3.546   5.170
 7394TIP3    H222128   7.399   3.665   5.202
 7395TIP3   OH222129   6.224   3.415   1.176
 7395TIP3    H122130   6.178   3.487   1.132
 7395TIP3    H222131   6.168   3.339   1.162
 7396TIP3   OH222132   0.289   4.432   2.389
 7396TIP3    H122133   0.316   4.345   2.360
 7396TIP3    H222134   0.194   4.426   2.397
 7397TIP3   OH222135   1.552   4.393   3.656
 7397TIP3    H122136   1.540   4.300   3.640
 7397TIP3    H222137   1.467   4.432   3.636
 7398TIP3   OH222138   7.216   1.703   0.973
 7398TIP3    H122139   7.145   1.679   0.913
 7398TIP3    H222140   7.258   1.620   0.994
 7399TIP3   OH222141   6.524   1.124   1.373
 7399TIP3    H122142   6.565   1.189   1.430
 7399TIP3    H222143   6.539   1.041   1.417
 7400TIP3   OH222144   6.430   2.043   2.062
 7400TIP3    H122145   6.511   1.999   2.036
 7400TIP3    H222146   6.416   2.109   1.994
 7401TIP3   OH222147   7.390   2.008   5.765
 7401TIP3    H122148   7.438   1.939   5.810
 7401TIP3    H222149   7.422   2.004   5.674
 7402TIP3   OH222150   8.036   0.992   2.607
 7402TIP3    H122151   7.997   0.994   2.695
 7402TIP3    H222152   7.988   1.060   2.559
 7403TIP3   OH222153   6.064   1.893   0.030
 7403TIP3    H122154   6.102   1.981   0.023
 7403TIP3    H222155   5.984   1.897  -0.023
 7404TIP3   OH222156   6.389   0.102   2.130
 7404TIP3    H122157   6.473   0.058   2.118
 7404TIP3    H222158   6.326   0.046   2.085
 7405TIP3   OH222159   6.692   0.455   4.243
 7405TIP3    H122160   6.665   0.514   4.313
 7405TIP3    H222161   6.638   0.377   4.256
 7406TIP3   OH222162   0.280   2.082   0.992
 7406TIP3    H122163   0.185   2.086   0.986
 7406TIP3    H222164   0.311   2.165   0.956
 7407TIP3   OH222165   6.539   1.115   1.117
 7407TIP3    H122166   6.581   1.029   1.118
 7407TIP3    H222167   6.526   1.137   1.209
 7408TIP3   OH222168   8.179   7.193   0.210
 7408TIP3    H122169   8.242   7.217   0.143
 7408TIP3    H222170   8.202   7.104   0.235
 7409TIP3   OH222171   8.255   0.713   0.526
 7409TIP3    H122172   8.187   0.767   0.564
 7409TIP3    H222173   8.337   0.744   0.565
 7410TIP3   OH222174   0.654   0.151   3.495
 7410TIP3    H122175   0.577   0.099   3.517
 7410TIP3    H222176   0.727   0.091   3.507
 7411TIP3   OH222177   1.006   2.253   4.596
 7411TIP3    H122178   1.097   2.246   4.627
 7411TIP3    H222179   1.013   2.299   4.512
 7412TIP3   OH222180   6.540   1.580   1.595
 7412TIP3    H122181   6.468   1.519   1.608
 7412TIP3    H222182   6.569   1.602   1.683
 7413TIP3   OH222183   2.267   0.191   2.945
 7413TIP3    H122184   2.354   0.209   2.981
 7413TIP3    H222185   2.258   0.252   2.873
 7414TIP3   OH222186   0.116   0.855   3.632
 7414TIP3    H122187   0.049   0.889   3.691
 7414TIP3    H222188   0.161   0.932   3.599
 7415TIP3   OH222189   5.627   7.583   1.404
 7415TIP3    H122190   5.538   7.551   1.413
 7415TIP3    H222191   5.621   7.677   1.421
 7416TIP3   OH222192   1.722   5.612   3.758
 7416TIP3    H122193   1.683   5.649   3.837
 7416TIP3    H222194   1.658   5.546   3.728
 7417TIP3   OH222195   1.285   3.672   3.658
 7417TIP3    H122196   1.271   3.742   3.721
 7417TIP3    H222197   1.205   3.619   3.664
 7418TIP3   OH222198   7.352   7.681   6.105
 7418TIP3    H122199   7.374   7.622   6.177
 7418TIP3    H222200   7.269   7.648   6.071
 7419TIP3   OH222201   8.137   3.981   3.846
 7419TIP3    H122202   8.126   3.992   3.940
 7419TIP3    H222203   8.052   3.951   3.815
 7420TIP3   OH222204   1.608   0.035   2.375
 7420TIP3    H122205   1.696   0.056   2.405
 7420TIP3    H222206   1.616  -0.051   2.334
 7421TIP3   OH222207   1.492   7.055   0.585
 7421TIP3    H122208   1.419   7.114   0.567
 7421TIP3    H222209   1.550   7.064   0.509
 7422TIP3   OH222210   4.801   7.546   6.188
 7422TIP3    H122211   4.757   7.462   6.180
 7422TIP3    H222212   4.732   7.607   6.214
 7423TIP3   OH222213   5.359   4.642   4.498
 7423TIP3    H122214   5.399   4.612   4.417
 7423TIP3    H222215   5.269   4.610   4.494
 7424TIP3   OH222216   3.004   0.050   5.099
 7424TIP3    H122217   2.993   0.021   5.190
 7424TIP3    H222218   2.920   0.029   5.057
 7425TIP3   OH222219   0.657   1.839   5.168
 7425TIP3    H122220   0.679   1.776   5.236
 7425TIP3    H222221   0.741   1.863   5.130
 7426TIP3   OH222222   4.183   4.839   0.604
 7426TIP3    H122223   4.134   4.919   0.626
 7426TIP3    H222224   4.150   4.774   0.666
 7427TIP3   OH222225   5.065   4.413   0.982
 7427TIP3    H122226   5.131   4.482   0.992
 7427TIP3    H222227   5.113   4.332   0.998
 7428TIP3   OH222228   6.889   6.349   3.187
 7428TIP3    H122229   6.972   6.315   3.220
 7428TIP3    H222230   6.887   6.440   3.215
 7429TIP3   OH222231   4.506   5.931   0.346
 7429TIP3    H122232   4.492   5.839   0.370
 7429TIP3    H222233   4.421   5.973   0.362
 7430TIP3   OH222234   4.535   2.267   3.647
 7430TIP3    H122235   4.500   2.282   3.559
 7430TIP3    H222236   4.504   2.179   3.670
 7431TIP3   OH222237   3.006   5.566   6.750
 7431TIP3    H122238   3.095   5.596   6.734
 7431TIP3    H222239   2.988   5.505   6.678
 7432TIP3   OH222240   2.936   4.632   1.354
 7432TIP3    H122241   2.891   4.713   1.330
 7432TIP3    H222242   2.884   4.596   1.427
 7433TIP3   OH222243   7.524   2.142   3.737
 7433TIP3    H122244   7.493   2.062   3.779
 7433TIP3    H222245   7.546   2.115   3.648
 7434TIP3   OH222246   8.163   5.859   4.830
 7434TIP3    H122247   8.253   5.885   4.850
 7434TIP3    H222248   8.116   5.873   4.912
 7435TIP3   OH222249   0.347   4.256   4.381
 7435TIP3    H122250   0.272   4.296   4.336
 7435TIP3    H222251   0.397   4.330   4.415
 7436TIP3   OH222252   2.594   0.204   4.717
 7436TIP3    H122253   2.527   0.233   4.779
 7436TIP3    H222254   2.664   0.269   4.726
 7437TIP3   OH222255   3.410   6.105   5.396
 7437TIP3    H122256   3.481   6.161   5.366
 7437TIP3    H222257   3.449   6.048   5.461
 7438TIP3   OH222258   1.142   2.423   5.973
 7438TIP3    H122259   1.112   2.343   6.016
 7438TIP3    H222260   1.072   2.486   5.987
 7439TIP3   OH222261   0.536   6.778   0.748
 7439TIP3    H122262   0.557   6.818   0.832
 7439TIP3    H222263   0.554   6.685   0.760
 7440TIP3   OH222264   3.149   6.214   4.792
 7440TIP3    H122265   3.179   6.291   4.841
 7440TIP3    H222266   3.216   6.147   4.809
 7441TIP3   OH222267   5.254   3.826   2.743
 7441TIP3    H122268   5.210   3.752   2.785
 7441TIP3    H222269   5.338   3.791   2.715
 7442TIP3   OH222270   2.849   2.856   2.872
 7442TIP3    H122271   2.808   2.882   2.954
 7442TIP3    H222272   2.777   2.852   2.809
 7443TIP3   OH222273   1.131   4.408   3.007
 7443TIP3    H122274   1.110   4.444   2.921
 7443TIP3    H222275   1.161   4.319   2.989
 7444TIP3   OH222276   4.825   3.029   4.132
 7444TIP3    H122277   4.774   2.991   4.061
 7444TIP3    H222278   4.913   3.040   4.096
 7445TIP3   OH222279   4.330   2.617   1.645
 7445TIP3    H122280   4.352   2.531   1.680
 7445TIP3    H222281   4.305   2.668   1.722
 7446TIP3   OH222282   0.316   0.388   3.804
 7446TIP3    H122283   0.271   0.383   3.720
 7446TIP3    H222284   0.384   0.321   3.799
 7447TIP3   OH222285   4.041   4.983   2.024
 7447TIP3    H122286   4.120   5.028   1.994
 7447TIP3    H222287   3.987   5.053   2.062
 7448TIP3   OH222288   6.215   5.042   5.794
 7448TIP3    H122289   6.189   4.955   5.764
 7448TIP3    H222290   6.163   5.057   5.873
 7449TIP3   OH222291   8.022   7.809   6.044
 7449TIP3    H122292   8.034   7.790   5.951
 7449TIP3    H222293   8.085   7.754   6.089
 7450TIP3   OH222294   4.890   2.207   2.998
 7450TIP3    H122295   4.877   2.279   2.936
 7450TIP3    H222296   4.935   2.247   3.072
 7451TIP3   OH222297   3.351   2.723   5.827
 7451TIP3    H122298   3.366   2.817   5.820
 7451TIP3    H222299   3.257   2.715   5.844
 7452TIP3   OH222300   4.893   3.720   0.304
 7452TIP3    H122301   4.920   3.720   0.396
 7452TIP3    H222302   4.802   3.690   0.306
 7453TIP3   OH222303   0.913   6.194   3.681
 7453TIP3    H122304   0.952   6.257   3.742
 7453TIP3    H222305   0.976   6.187   3.610
 7454TIP3   OH222306   4.537   3.701   2.047
 7454TIP3    H122307   4.458   3.754   2.064
 7454TIP3    H222308   4.609   3.760   2.066
 7455TIP3   OH222309   8.038   0.933   2.882
 7455TIP3    H122310   8.100   0.908   2.951
 7455TIP3    H222311   8.012   0.851   2.841
 7456TIP3   OH222312   7.073   0.397   5.104
 7456TIP3    H122313   7.161   0.371   5.076
 7456TIP3    H222314   7.039   0.321   5.151
 7457TIP3   OH222315   4.089   5.585   5.967
 7457TIP3    H122316   4.089   5.604   6.061
 7457TIP3    H222317   4.018   5.638   5.931
 7458TIP3   OH222318   3.739   2.072   3.271
 7458TIP3    H122319   3.661   2.105   3.226
 7458TIP3    H222320   3.705   2.017   3.341
 7459TIP3   OH222321   5.862   2.614   2.484
 7459TIP3    H122322   5.833   2.620   2.393
 7459TIP3    H222323   5.784   2.634   2.535
 7460TIP3   OH222324   5.239   3.011   1.992
 7460TIP3    H122325   5.335   3.010   1.992
 7460TIP3    H222326   5.215   2.931   1.945
 7461TIP3   OH222327   3.127   3.095   4.027
 7461TIP3    H122328   3.113   3.103   4.121
 7461TIP3    H222329   3.169   3.010   4.015
 7462TIP3   OH222330   1.809   5.066   6.544
 7462TIP3    H122331   1.771   4.989   6.586
 7462TIP3    H222332   1.734   5.122   6.524
 7463TIP3   OH222333   5.976   1.921   0.679
 7463TIP3    H122334   6.002   1.838   0.720
 7463TIP3    H222335   6.055   1.976   0.684
 7464TIP3   OH222336   5.699   0.227   6.286
 7464TIP3    H122337   5.640   0.153   6.301
 7464TIP3    H222338   5.784   0.188   6.267
 7465TIP3   OH222339   1.345   1.419   0.514
 7465TIP3    H122340   1.256   1.409   0.547
 7465TIP3    H222341   1.359   1.514   0.513
 7466TIP3   OH222342   3.138   5.012   3.482
 7466TIP3    H122343   3.174   4.946   3.422
 7466TIP3    H222344   3.068   5.054   3.432
 7467TIP3   OH222345   6.791   2.050   4.495
 7467TIP3    H122346   6.789   2.078   4.586
 7467TIP3    H222347   6.734   2.111   4.449
 7468TIP3   OH222348   3.750   0.473   1.381
 7468TIP3    H122349   3.784   0.553   1.339
 7468TIP3    H222350   3.795   0.470   1.465
 7469TIP3   OH222351   6.609   2.818   1.387
 7469TIP3    H122352   6.610   2.847   1.478
 7469TIP3    H222353   6.569   2.891   1.339
 7470TIP3   OH222354   1.239   6.582   1.337
 7470TIP3    H122355   1.297   6.508   1.318
 7470TIP3    H222356   1.291   6.640   1.392
 7471TIP3   OH222357   7.961   6.399   5.146
 7471TIP3    H122358   7.933   6.451   5.071
 7471TIP3    H222359   7.946   6.455   5.222
 7472TIP3   OH222360   8.122   3.577   4.225
 7472TIP3    H122361   8.188   3.623   4.173
 7472TIP3    H222362   8.160   3.491   4.241
 7473TIP3   OH222363   1.428   2.994   2.336
 7473TIP3    H122364   1.383   2.983   2.420
 7473TIP3    H222365   1.358   2.995   2.271
 7474TIP3   OH222366   0.386   7.123   5.824
 7474TIP3    H122367   0.461   7.182   5.812
 7474TIP3    H222368   0.420   7.037   5.800
 7475TIP3   OH222369   4.029   5.083   4.311
 7475TIP3    H122370   3.938   5.080   4.281
 7475TIP3    H222371   4.060   4.993   4.301
 7476TIP3   OH222372   0.037   5.132   4.562
 7476TIP3    H122373  -0.058   5.122   4.573
 7476TIP3    H222374   0.075   5.088   4.637
 7477TIP3   OH222375   6.036   2.503   2.671
 7477TIP3    H122376   5.954   2.528   2.629
 7477TIP3    H222377   6.051   2.570   2.737
 7478TIP3   OH222378   4.897   2.709   5.932
 7478TIP3    H122379   4.875   2.631   5.880
 7478TIP3    H222380   4.826   2.714   5.997
 7479TIP3   OH222381   6.615   2.578   5.627
 7479TIP3    H122382   6.531   2.573   5.581
 7479TIP3    H222383   6.625   2.671   5.647
 7480TIP3   OH222384   1.140   6.455   4.235
 7480TIP3    H122385   1.060   6.403   4.238
 7480TIP3    H222386   1.189   6.429   4.313
 7481TIP3   OH222387   1.463   6.648   0.769
 7481TIP3    H122388   1.431   6.592   0.698
 7481TIP3    H222389   1.396   6.716   0.777
 7482TIP3   OH222390   4.025   3.880   3.226
 7482TIP3    H122391   3.983   3.795   3.232
 7482TIP3    H222392   4.102   3.873   3.283
 7483TIP3   OH222393   5.308   4.267   2.735
 7483TIP3    H122394   5.266   4.353   2.726
 7483TIP3    H222395   5.333   4.262   2.828
 7484TIP3   OH222396   3.556   7.600   1.179
 7484TIP3    H122397   3.613   7.530   1.210
 7484TIP3    H222398   3.495   7.558   1.119
 7485TIP3   OH222399   6.016   0.859   5.733
 7485TIP3    H122400   6.105   0.835   5.759
 7485TIP3    H222401   5.967   0.865   5.815
 7486TIP3   OH222402   3.142   6.517   3.456
 7486TIP3    H122403   3.167   6.592   3.401
 7486TIP3    H222404   3.216   6.505   3.516
 7487TIP3   OH222405   1.439   6.230   1.524
 7487TIP3    H122406   1.372   6.288   1.559
 7487TIP3    H222407   1.399   6.143   1.524
 7488TIP3   OH222408   2.129   4.277   1.975
 7488TIP3    H122409   2.206   4.334   1.972
 7488TIP3    H222410   2.106   4.273   2.068
 7489TIP3   OH222411   2.299   6.148   4.035
 7489TIP3    H122412   2.260   6.135   3.948
 7489TIP3    H222413   2.281   6.239   4.056
 7490TIP3   OH222414   4.849   4.573   0.963
 7490TIP3    H122415   4.918   4.508   0.976
 7490TIP3    H222416   4.768   4.525   0.980
 7491TIP3   OH222417   6.763   3.749   5.304
 7491TIP3    H122418   6.683   3.783   5.264
 7491TIP3    H222419   6.775   3.663   5.266
 7492TIP3   OH222420   3.577   2.891   0.147
 7492TIP3    H122421   3.547   2.939   0.224
 7492TIP3    H222422   3.498   2.857   0.107
 7493TIP3   OH222423   7.606   5.144   2.633
 7493TIP3    H122424   7.636   5.137   2.723
 7493TIP3    H222425   7.552   5.223   2.631
 7494TIP3   OH222426   5.788   0.032   3.082
 7494TIP3    H122427   5.701   0.071   3.089
 7494TIP3    H222428   5.799  -0.016   3.164
 7495TIP3   OH222429   8.081   2.508   1.649
 7495TIP3    H122430   8.028   2.585   1.671
 7495TIP3    H222431   8.117   2.479   1.733
 7496TIP3   OH222432   4.574   1.892   4.395
 7496TIP3    H122433   4.563   1.805   4.434
 7496TIP3    H222434   4.486   1.918   4.368
 7497TIP3   OH222435   6.289   5.265   0.622
 7497TIP3    H122436   6.307   5.172   0.630
 7497TIP3    H222437   6.235   5.273   0.544
 7498TIP3   OH222438  -0.017   0.679   6.456
 7498TIP3    H122439   0.018   0.603   6.410
 7498TIP3    H222440   0.040   0.751   6.429
 7499TIP3   OH222441   0.966   4.920   1.344
 7499TIP3    H122442   1.026   4.945   1.414
 7499TIP3    H222443   0.997   4.968   1.267
 7500TIP3   OH222444   1.527   5.885   3.187
 7500TIP3    H122445   1.454   5.864   3.245
 7500TIP3    H222446   1.573   5.956   3.232
 7501TIP3   OH222447   1.425   4.874   3.691
 7501TIP3    H122448   1.511   4.834   3.679
 7501TIP3    H222449   1.381   4.816   3.754
 7502TIP3   OH222450   4.171   3.896   0.289
 7502TIP3    H122451   4.230   3.822   0.273
 7502TIP3    H222452   4.201   3.932   0.373
 7503TIP3   OH222453   2.365   6.514   1.641
 7503TIP3    H122454   2.275   6.483   1.629
 7503TIP3    H222455   2.402   6.515   1.552
 7504TIP3   OH222456   7.954   0.271   6.702
 7504TIP3    H122457   8.020   0.338   6.680
 7504TIP3    H222458   7.872   0.307   6.668
 7505TIP3   OH222459   6.420   0.218   1.061
 7505TIP3    H122460   6.363   0.293   1.077
 7505TIP3    H222461   6.436   0.220   0.966
 7506TIP3   OH222462   1.487   2.469   5.116
 7506TIP3    H122463   1.491   2.394   5.057
 7506TIP3    H222464   1.570   2.515   5.102
 7507TIP3   OH222465   8.027   6.522   6.307
 7507TIP3    H122466   8.088   6.455   6.276
 7507TIP3    H222467   8.079   6.601   6.314
 7508TIP3   OH222468   0.968   3.507   4.128
 7508TIP3    H122469   0.977   3.580   4.067
 7508TIP3    H222470   1.010   3.434   4.082
 7509TIP3   OH222471   5.843   2.702   1.362
 7509TIP3    H122472   5.793   2.666   1.289
 7509TIP3    H222473   5.867   2.790   1.333
 7510TIP3   OH222474   6.215   2.313   3.822
 7510TIP3    H122475   6.158   2.343   3.893
 7510TIP3    H222476   6.155   2.291   3.751
 7511TIP3   OH222477   1.381   6.214   3.284
 7511TIP3    H122478   1.435   6.292   3.269
 7511TIP3    H222479   1.348   6.190   3.197
 7512TIP3   OH222480   7.921   1.236   3.700
 7512TIP3    H122481   7.873   1.243   3.617
 7512TIP3    H222482   7.902   1.148   3.731
 7513TIP3   OH222483   3.343   4.255   5.688
 7513TIP3    H122484   3.294   4.312   5.629
 7513TIP3    H222485   3.299   4.265   5.773
 7514TIP3   OH222486   5.115   0.847   1.830
 7514TIP3    H122487   5.137   0.758   1.860
 7514TIP3    H222488   5.196   0.896   1.839
 7515TIP3   OH222489   6.321   5.900   5.028
 7515TIP3    H122490   6.410   5.908   4.994
 7515TIP3    H222491   6.329   5.838   5.101
 7516TIP3   OH222492   6.589   7.468   4.760
 7516TIP3    H122493   6.655   7.409   4.794
 7516TIP3    H222494   6.543   7.417   4.693
 7517TIP3   OH222495   4.381   2.828   5.233
 7517TIP3    H122496   4.321   2.841   5.160
 7517TIP3    H222497   4.346   2.883   5.303
 7518TIP3   OH222498   4.798   0.831   0.957
 7518TIP3    H122499   4.774   0.919   0.986
 7518TIP3    H222500   4.725   0.802   0.902
 7519TIP3   OH222501   2.617   4.313   3.453
 7519TIP3    H122502   2.667   4.367   3.514
 7519TIP3    H222503   2.659   4.227   3.457
 7520TIP3   OH222504   0.767   5.694   6.136
 7520TIP3    H122505   0.730   5.691   6.047
 7520TIP3    H222506   0.691   5.703   6.193
 7521TIP3   OH222507   5.770   7.813   0.316
 7521TIP3    H122508   5.834   7.833   0.249
 7521TIP3    H222509   5.817   7.760   0.380
 7522TIP3   OH222510   3.166   4.848   2.531
 7522TIP3    H122511   3.221   4.773   2.554
 7522TIP3    H222512   3.219   4.899   2.470
 7523TIP3   OH222513   3.079   2.787   0.352
 7523TIP3    H122514   3.079   2.860   0.290
 7523TIP3    H222515   3.067   2.710   0.297
 7524TIP3   OH222516   8.028   5.981   1.948
 7524TIP3    H122517   8.045   6.004   2.039
 7524TIP3    H222518   8.102   6.018   1.900
 7525TIP3   OH222519   1.381   6.615   3.470
 7525TIP3    H122520   1.302   6.573   3.505
 7525TIP3    H222521   1.453   6.561   3.504
 7526TIP3   OH222522   7.231   7.441   2.010
 7526TIP3    H122523   7.250   7.380   2.080
 7526TIP3    H222524   7.314   7.450   1.963
 7527TIP3   OH222525   1.391   3.308   2.512
 7527TIP3    H122526   1.385   3.214   2.497
 7527TIP3    H222527   1.462   3.317   2.575
 7528TIP3   OH222528   1.830   0.849   6.049
 7528TIP3    H122529   1.780   0.784   6.098
 7528TIP3    H222530   1.915   0.854   6.093
 7529TIP3   OH222531   3.613   2.370   5.974
 7529TIP3    H122532   3.581   2.445   6.024
 7529TIP3    H222533   3.538   2.345   5.919
 7530TIP3   OH222534   1.476   4.710   2.964
 7530TIP3    H122535   1.432   4.779   3.014
 7530TIP3    H222536   1.439   4.717   2.876
 7531TIP3   OH222537   0.938   4.826   2.119
 7531TIP3    H122538   0.968   4.809   2.209
 7531TIP3    H222539   0.985   4.763   2.065
 7532TIP3   OH222540   4.146   3.440   5.273
 7532TIP3    H122541   4.111   3.371   5.330
 7532TIP3    H222542   4.198   3.392   5.208
 7533TIP3   OH222543   8.074   1.650   0.380
 7533TIP3    H122544   8.086   1.720   0.444
 7533TIP3    H222545   7.987   1.664   0.344
 7534TIP3   OH222546   4.617   6.908   5.062
 7534TIP3    H122547   4.534   6.864   5.081
 7534TIP3    H222548   4.680   6.836   5.054
 7535TIP3   OH222549   4.603   0.204   5.375
 7535TIP3    H122550   4.600   0.282   5.431
 7535TIP3    H222551   4.688   0.165   5.394
 7536TIP3   OH222552   1.144   3.959   6.136
 7536TIP3    H122553   1.078   3.964   6.205
 7536TIP3    H222554   1.211   4.021   6.163
 7537TIP3   OH222555   7.324   4.544   5.147
 7537TIP3    H122556   7.314   4.472   5.084
 7537TIP3    H222557   7.268   4.614   5.114
 7538TIP3   OH222558   7.608   7.775   0.967
 7538TIP3    H122559   7.612   7.814   1.055
 7538TIP3    H222560   7.698   7.749   0.949
 7539TIP3   OH222561   0.135   0.052   3.541
 7539TIP3    H122562   0.120   0.046   3.635
 7539TIP3    H222563   0.203   0.118   3.531
 7540TIP3   OH222564   8.296   1.304   2.914
 7540TIP3    H122565   8.290   1.328   3.007
 7540TIP3    H222566   8.206   1.284   2.889
 7541TIP3   OH222567   1.704   2.334   1.298
 7541TIP3    H122568   1.643   2.290   1.357
 7541TIP3    H222569   1.770   2.373   1.355
 7542TIP3   OH222570   6.445   1.231   0.772
 7542TIP3    H122571   6.361   1.265   0.742
 7542TIP3    H222572   6.452   1.259   0.863
 7543TIP3   OH222573   4.111   3.354   6.658
 7543TIP3    H122574   4.031   3.406   6.646
 7543TIP3    H222575   4.085   3.283   6.716
 7544TIP3   OH222576   1.863   1.874   4.610
 7544TIP3    H122577   1.779   1.832   4.589
 7544TIP3    H222578   1.876   1.937   4.540
 7545TIP3   OH222579   5.786   3.259   3.086
 7545TIP3    H122580   5.752   3.178   3.049
 7545TIP3    H222581   5.879   3.257   3.067
 7546TIP3   OH222582   5.474   2.448   4.241
 7546TIP3    H122583   5.525   2.380   4.197
 7546TIP3    H222584   5.515   2.530   4.215
 7547TIP3   OH222585   1.793   6.525   0.278
 7547TIP3    H122586   1.814   6.599   0.335
 7547TIP3    H222587   1.750   6.565   0.202
 7548TIP3   OH222588   2.544   1.966   3.965
 7548TIP3    H122589   2.504   2.048   3.992
 7548TIP3    H222590   2.595   1.938   4.041
 7549TIP3   OH222591   8.181   1.760   4.210
 7549TIP3    H122592   8.253   1.699   4.226
 7549TIP3    H222593   8.115   1.708   4.163
 7550TIP3   OH222594   3.691   4.561   0.111
 7550TIP3    H122595   3.710   4.471   0.086
 7550TIP3    H222596   3.596   4.568   0.105
 7551TIP3   OH222597   6.953   6.768   0.252
 7551TIP3    H122598   6.882   6.731   0.305
 7551TIP3    H222599   7.009   6.693   0.232
 7552TIP3   OH222600   0.398   2.164   4.487
 7552TIP3    H122601   0.466   2.231   4.485
 7552TIP3    H222602   0.443   2.085   4.454
 7553TIP3   OH222603   6.075   0.301   2.677
 7553TIP3    H122604   6.015   0.227   2.666
 7553TIP3    H222605   6.151   0.264   2.723
 7554TIP3   OH222606   1.585   7.196   3.469
 7554TIP3    H122607   1.560   7.285   3.494
 7554TIP3    H222608   1.547   7.184   3.381
 7555TIP3   OH222609   4.692   0.421   4.640
 7555TIP3    H122610   4.759   0.441   4.574
 7555TIP3    H222611   4.611   0.456   4.603
 7556TIP3   OH222612   7.798   0.973   4.289
 7556TIP3    H122613   7.737   0.998   4.359
 7556TIP3    H222614   7.750   0.909   4.238
 7557TIP3   OH222615   0.135   6.435   2.678
 7557TIP3    H122616   0.083   6.359   2.654
 7557TIP3    H222617   0.118   6.449   2.771
 7558TIP3   OH222618   0.172   7.481   4.435
 7558TIP3    H122619   0.129   7.425   4.371
 7558TIP3    H222620   0.227   7.421   4.486
 7559TIP3   OH222621   3.514   6.643   6.669
 7559TIP3    H122622   3.525   6.573   6.604
 7559TIP3    H222623   3.493   6.597   6.751
 7560TIP3   OH222624   0.946   0.153   0.147
 7560TIP3    H122625   0.927   0.143   0.240
 7560TIP3    H222626   0.887   0.092   0.103
 7561TIP3   OH222627   5.142   4.260   2.473
 7561TIP3    H122628   5.082   4.335   2.481
 7561TIP3    H222629   5.195   4.262   2.552
 7562TIP3   OH222630   1.490   2.494   0.794
 7562TIP3    H122631   1.449   2.466   0.875
 7562TIP3    H222632   1.465   2.586   0.785
 7563TIP3   OH222633   5.100   2.788   6.789
 7563TIP3    H122634   5.120   2.812   6.698
 7563TIP3    H222635   5.180   2.747   6.821
 7564TIP3   OH222636   0.504   5.458   1.223
 7564TIP3    H122637   0.530   5.388   1.283
 7564TIP3    H222638   0.566   5.452   1.151
 7565TIP3   OH222639   4.671   7.154   5.511
 7565TIP3    H122640   4.690   7.121   5.424
 7565TIP3    H222641   4.594   7.104   5.539
 7566TIP3   OH222642   2.642   1.763   3.527
 7566TIP3    H122643   2.550   1.742   3.512
 7566TIP3    H222644   2.690   1.696   3.478
 7567TIP3   OH222645   6.924   6.199   5.149
 7567TIP3    H122646   6.925   6.177   5.056
 7567TIP3    H222647   6.846   6.253   5.160
 7568TIP3   OH222648   5.000   1.435   1.924
 7568TIP3    H122649   4.911   1.469   1.926
 7568TIP3    H222650   5.053   1.503   1.966
 7569TIP3   OH222651   4.608   1.198   4.751
 7569TIP3    H122652   4.697   1.228   4.769
 7569TIP3    H222653   4.586   1.238   4.666
 7570TIP3   OH222654   0.459   5.562   4.543
 7570TIP3    H122655   0.452   5.469   4.522
 7570TIP3    H222656   0.461   5.565   4.639
 7571TIP3   OH222657   0.406   3.831   3.740
 7571TIP3    H122658   0.476   3.870   3.687
 7571TIP3    H222659   0.337   3.898   3.740
 7572TIP3   OH222660   0.218   1.405   2.451
 7572TIP3    H122661   0.195   1.350   2.525
 7572TIP3    H222662   0.307   1.380   2.428
 7573TIP3   OH222663   0.608   3.992   0.135
 7573TIP3    H122664   0.589   4.048   0.060
 7573TIP3    H222665   0.540   3.925   0.133
 7574TIP3   OH222666   4.182   2.880   5.852
 7574TIP3    H122667   4.208   2.839   5.934
 7574TIP3    H222668   4.227   2.964   5.851
 7575TIP3   OH222669   3.479   7.618   4.588
 7575TIP3    H122670   3.572   7.602   4.603
 7575TIP3    H222671   3.477   7.689   4.524
 7576TIP3   OH222672   1.949   4.316   0.861
 7576TIP3    H122673   1.857   4.325   0.885
 7576TIP3    H222674   1.995   4.305   0.945
 7577TIP3   OH222675   0.522   1.846   1.400
 7577TIP3    H122676   0.434   1.851   1.438
 7577TIP3    H222677   0.510   1.872   1.309
 7578TIP3   OH222678   6.267   6.604   5.757
 7578TIP3    H122679   6.330   6.584   5.688
 7578TIP3    H222680   6.319   6.648   5.824
 7579TIP3   OH222681   4.103   6.243   1.921
 7579TIP3    H122682   4.175   6.186   1.950
 7579TIP3    H222683   4.039   6.238   1.992
 7580TIP3   OH222684   5.804   4.657   6.377
 7580TIP3    H122685   5.881   4.710   6.358
 7580TIP3    H222686   5.764   4.699   6.453
 7581TIP3   OH222687   0.034   5.683   6.506
 7581TIP3    H122688   0.041   5.600   6.460
 7581TIP3    H222689   0.009   5.659   6.595
 7582TIP3   OH222690   0.482   7.249   4.306
 7582TIP3    H122691   0.440   7.274   4.223
 7582TIP3    H222692   0.455   7.316   4.368
 7583TIP3   OH222693   2.351   6.047   3.710
 7583TIP3    H122694   2.336   6.015   3.621
 7583TIP3    H222695   2.264   6.067   3.743
 7584TIP3   OH222696   5.494   3.686   2.708
 7584TIP3    H122697   5.560   3.653   2.770
 7584TIP3    H222698   5.545   3.716   2.633
 7585TIP3   OH222699   3.574   3.849   4.081
 7585TIP3    H122700   3.647   3.826   4.023
 7585TIP3    H222701   3.542   3.933   4.048
 7586TIP3   OH222702   0.586   5.645   6.507
 7586TIP3    H122703   0.658   5.706   6.491
 7586TIP3    H222704   0.548   5.629   6.421
 7587TIP3   OH222705   6.468   7.730   5.339
 7587TIP3    H122706   6.414   7.732   5.260
 7587TIP3    H222707   6.471   7.821   5.368
 7588TIP3   OH222708   1.055   0.909   4.452
 7588TIP3    H122709   1.071   0.995   4.412
 7588TIP3    H222710   1.072   0.923   4.545
 7589TIP3   OH222711   6.584   5.347   1.817
 7589TIP3    H122712   6.664   5.312   1.855
 7589TIP3    H222713   6.514   5.315   1.874
 7590TIP3   OH222714   6.328   2.952   3.596
 7590TIP3    H122715   6.360   3.035   3.633
 7590TIP3    H222716   6.404   2.916   3.549
 7591TIP3   OH222717   1.504   5.489   0.959
 7591TIP3    H122718   1.517   5.399   0.988
 7591TIP3    H222719   1.563   5.541   1.015
 7592TIP3   OH222720   1.837   5.473   1.380
 7592TIP3    H122721   1.877   5.550   1.420
 7592TIP3    H222722   1.910   5.412   1.366
 7593TIP3   OH222723   2.317   6.950   2.811
 7593TIP3    H122724   2.364   6.883   2.859
 7593TIP3    H222725   2.355   7.033   2.840
 7594TIP3   OH222726   5.123   1.492   2.501
 7594TIP3    H122727   5.053   1.544   2.539
 7594TIP3    H222728   5.161   1.444   2.575
 7595TIP3   OH222729   4.969   0.403   4.551
 7595TIP3    H122730   4.957   0.316   4.588
 7595TIP3    H222731   5.062   0.422   4.566
 7596TIP3   OH222732   5.878   0.873   3.621
 7596TIP3    H122733   5.952   0.933   3.629
 7596TIP3    H222734   5.899   0.818   3.546
 7597TIP3   OH222735   7.785   2.106   4.346
 7597TIP3    H122736   7.841   2.095   4.270
 7597TIP3    H222737   7.843   2.096   4.421
 7598TIP3   OH222738   4.537   1.786   3.490
 7598TIP3    H122739   4.445   1.812   3.493
 7598TIP3    H222740   4.556   1.754   3.578
 7599TIP3   OH222741   5.366   6.461   2.951
 7599TIP3    H122742   5.364   6.557   2.951
 7599TIP3    H222743   5.290   6.436   3.003
 7600TIP3   OH222744   7.702   2.949   2.136
 7600TIP3    H122745   7.609   2.972   2.134
 7600TIP3    H222746   7.703   2.855   2.151
 7601TIP3   OH222747   2.899   3.318   3.695
 7601TIP3    H122748   2.814   3.285   3.665
 7601TIP3    H222749   2.945   3.344   3.616
 7602TIP3   OH222750   5.470   4.557   4.250
 7602TIP3    H122751   5.545   4.502   4.227
 7602TIP3    H222752   5.493   4.644   4.220
 7603TIP3   OH222753   5.215   7.715   3.896
 7603TIP3    H122754   5.216   7.650   3.966
 7603TIP3    H222755   5.215   7.799   3.941
 7604TIP3   OH222756   3.497   0.316   1.750
 7604TIP3    H122757   3.584   0.275   1.744
 7604TIP3    H222758   3.437   0.249   1.717
 7605TIP3   OH222759   5.773   5.345   2.949
 7605TIP3    H122760   5.719   5.419   2.920
 7605TIP3    H222761   5.758   5.341   3.043
 7606TIP3   OH222762   7.322   0.607   2.035
 7606TIP3    H122763   7.329   0.673   1.967
 7606TIP3    H222764   7.343   0.525   1.991
 7607TIP3   OH222765   1.304   5.338   6.755
 7607TIP3    H122766   1.280   5.270   6.818
 7607TIP3    H222767   1.279   5.301   6.670
 7608TIP3   OH222768   1.952   3.481   6.183
 7608TIP3    H122769   1.975   3.411   6.122
 7608TIP3    H222770   2.036   3.514   6.216
 7609TIP3   OH222771   1.486   5.576   5.298
 7609TIP3    H122772   1.410   5.619   5.338
 7609TIP3    H222773   1.529   5.531   5.370
 7610TIP3   OH222774   7.137   4.523   2.998
 7610TIP3    H122775   7.208   4.482   2.948
 7610TIP3    H222776   7.144   4.483   3.084
 7611TIP3   OH222777   3.633   3.569   3.826
 7611TIP3    H122778   3.543   3.537   3.827
 7611TIP3    H222779   3.659   3.568   3.918
 7612TIP3   OH222780   5.122   0.069   4.011
 7612TIP3    H122781   5.187   0.019   4.060
 7612TIP3    H222782   5.147   0.160   4.025
 7613TIP3   OH222783   0.628   1.361   3.541
 7613TIP3    H122784   0.638   1.293   3.474
 7613TIP3    H222785   0.682   1.433   3.510
 7614TIP3   OH222786   7.908   7.697   4.262
 7614TIP3    H122787   7.949   7.610   4.262
 7614TIP3    H222788   7.830   7.686   4.316
 7615TIP3   OH222789   4.349   7.588   2.583
 7615TIP3    H122790   4.264   7.543   2.587
 7615TIP3    H222791   4.408   7.524   2.545
 7616TIP3   OH222792   1.411   6.016   1.887
 7616TIP3    H122793   1.326   6.049   1.858
 7616TIP3    H222794   1.459   5.998   1.806
 7617TIP3   OH222795   5.310   1.588   5.834
 7617TIP3    H122796   5.243   1.521   5.844
 7617TIP3    H222797   5.290   1.630   5.750
 7618TIP3   OH222798   2.515   3.757   1.558
 7618TIP3    H122799   2.459   3.722   1.627
 7618TIP3    H222800   2.572   3.820   1.604
 7619TIP3   OH222801   4.623   3.881   5.349
 7619TIP3    H122802   4.698   3.919   5.303
 7619TIP3    H222803   4.584   3.822   5.285
 7620TIP3   OH222804   4.622   2.505   0.342
 7620TIP3    H122805   4.633   2.523   0.435
 7620TIP3    H222806   4.640   2.589   0.299
 7621TIP3   OH222807   7.370   1.410   3.550
 7621TIP3    H122808   7.449   1.426   3.603
 7621TIP3    H222809   7.399   1.349   3.483
 7622TIP3   OH222810   2.334   5.366   2.105
 7622TIP3    H122811   2.355   5.338   2.016
 7622TIP3    H222812   2.396   5.320   2.160
 7623TIP3   OH222813   4.351   5.479   6.590
 7623TIP3    H122814   4.422   5.448   6.647
 7623TIP3    H222815   4.353   5.420   6.515
 7624TIP3   OH222816   6.174   4.813   5.635
 7624TIP3    H122817   6.169   4.725   5.596
 7624TIP3    H222818   6.105   4.863   5.591
 7625TIP3   OH222819   5.942   4.591   2.493
 7625TIP3    H122820   5.933   4.685   2.508
 7625TIP3    H222821   5.852   4.559   2.492
 7626TIP3   OH222822   1.786   1.135   4.368
 7626TIP3    H122823   1.701   1.091   4.374
 7626TIP3    H222824   1.816   1.118   4.278
 7627TIP3   OH222825   7.733   5.610   2.593
 7627TIP3    H122826   7.792   5.683   2.574
 7627TIP3    H222827   7.785   5.551   2.647
 7628TIP3   OH222828   2.495   1.264   0.134
 7628TIP3    H122829   2.492   1.177   0.095
 7628TIP3    H222830   2.566   1.259   0.199
 7629TIP3   OH222831   7.236   4.509   3.968
 7629TIP3    H122832   7.230   4.509   3.873
 7629TIP3    H222833   7.304   4.444   3.988
 7630TIP3   OH222834   3.432   6.099   5.030
 7630TIP3    H122835   3.469   6.042   5.096
 7630TIP3    H222836   3.485   6.179   5.033
 7631TIP3   OH222837   1.440   6.578   2.506
 7631TIP3    H122838   1.514   6.609   2.559
 7631TIP3    H222839   1.368   6.639   2.528
 7632TIP3   OH222840   0.113   0.154   2.258
 7632TIP3    H122841   0.100   0.201   2.176
 7632TIP3    H222842   0.025   0.146   2.296
 7633TIP3   OH222843   5.304   0.210   1.944
 7633TIP3    H122844   5.329   0.126   1.982
 7633TIP3    H222845   5.240   0.187   1.877
 7634TIP3   OH222846   6.436   0.306   1.942
 7634TIP3    H122847   6.356   0.282   1.896
 7634TIP3    H222848   6.450   0.235   2.005
 7635TIP3   OH222849   4.414   1.967   1.582
 7635TIP3    H122850   4.497   1.921   1.597
 7635TIP3    H222851   4.347   1.910   1.619
 7636TIP3   OH222852   5.123   2.139   1.720
 7636TIP3    H122853   5.040   2.119   1.763
 7636TIP3    H222854   5.126   2.234   1.718
 7637TIP3   OH222855   6.822   0.246   4.605
 7637TIP3    H122856   6.832   0.218   4.696
 7637TIP3    H222857   6.897   0.207   4.559
 7638TIP3   OH222858   5.036   6.950   5.146
 7638TIP3    H122859   5.015   6.925   5.236
 7638TIP3    H222860   5.118   6.905   5.127
 7639TIP3   OH222861   7.087   2.400   4.239
 7639TIP3    H122862   7.146   2.418   4.312
 7639TIP3    H222863   7.025   2.473   4.239
 7640TIP3   OH222864   0.307   7.212   0.826
 7640TIP3    H122865   0.345   7.171   0.748
 7640TIP3    H222866   0.363   7.288   0.843
 7641TIP3   OH222867   5.073   7.337   2.863
 7641TIP3    H122868   5.004   7.271   2.873
 7641TIP3    H222869   5.152   7.287   2.845
 7642TIP3   OH222870   0.487   4.386   1.146
 7642TIP3    H122871   0.490   4.291   1.160
 7642TIP3    H222872   0.449   4.421   1.226
 7643TIP3   OH222873   7.866   3.123   2.999
 7643TIP3    H122874   7.892   3.055   3.060
 7643TIP3    H222875   7.941   3.132   2.939
 7644TIP3   OH222876   7.236   3.440   5.504
 7644TIP3    H122877   7.169   3.471   5.566
 7644TIP3    H222878   7.319   3.467   5.543
 7645TIP3   OH222879   6.300   4.573   3.408
 7645TIP3    H122880   6.291   4.640   3.340
 7645TIP3    H222881   6.322   4.622   3.488
 7646TIP3   OH222882   2.293   1.560   3.591
 7646TIP3    H122883   2.200   1.539   3.592
 7646TIP3    H222884   2.333   1.495   3.649
 7647TIP3   OH222885   8.080   5.939   1.215
 7647TIP3    H122886   8.165   5.971   1.182
 7647TIP3    H222887   8.093   5.930   1.309
 7648TIP3   OH222888   2.360   6.033   1.751
 7648TIP3    H122889   2.392   6.113   1.793
 7648TIP3    H222890   2.280   6.011   1.798
 7649TIP3   OH222891   2.058   6.555   4.148
 7649TIP3    H122892   2.039   6.648   4.162
 7649TIP3    H222893   2.036   6.514   4.232
 7650TIP3   OH222894   8.028   4.487   5.214
 7650TIP3    H122895   8.062   4.476   5.125
 7650TIP3    H222896   7.949   4.432   5.216
 7651TIP3   OH222897   8.232   1.415   4.577
 7651TIP3    H122898   8.236   1.490   4.636
 7651TIP3    H222899   8.147   1.374   4.595
 7652TIP3   OH222900   7.495   5.289   0.439
 7652TIP3    H122901   7.464   5.343   0.511
 7652TIP3    H222902   7.428   5.222   0.429
 7653TIP3   OH222903   6.410   5.127   2.820
 7653TIP3    H122904   6.380   5.040   2.846
 7653TIP3    H222905   6.484   5.146   2.878
 7654TIP3   OH222906   0.302   0.051   5.762
 7654TIP3    H122907   0.287   0.139   5.797
 7654TIP3    H222908   0.362   0.011   5.824
 7655TIP3   OH222909   0.344   7.011   4.468
 7655TIP3    H122910   0.282   7.013   4.396
 7655TIP3    H222911   0.360   6.918   4.484
 7656TIP3   OH222912   2.260   6.900   5.120
 7656TIP3    H122913   2.276   6.876   5.212
 7656TIP3    H222914   2.273   6.995   5.118
 7657TIP3   OH222915   2.478   6.992   6.100
 7657TIP3    H122916   2.492   6.919   6.159
 7657TIP3    H222917   2.529   6.971   6.022
 7658TIP3   OH222918   0.445   2.454   0.005
 7658TIP3    H122919   0.449   2.392  -0.068
 7658TIP3    H222920   0.503   2.416   0.071
 7659TIP3   OH222921   4.608   2.515   3.889
 7659TIP3    H122922   4.587   2.594   3.939
 7659TIP3    H222923   4.522   2.481   3.862
 7660TIP3   OH222924   6.249   3.656   5.358
 7660TIP3    H122925   6.266   3.597   5.284
 7660TIP3    H222926   6.244   3.743   5.319
 7661TIP3   OH222927   6.390   0.766   6.393
 7661TIP3    H122928   6.456   0.724   6.447
 7661TIP3    H222929   6.406   0.731   6.305
 7662TIP3   OH222930   3.177   7.297   2.454
 7662TIP3    H122931   3.212   7.340   2.375
 7662TIP3    H222932   3.255   7.278   2.506
 7663TIP3   OH222933   8.114   7.631   3.396
 7663TIP3    H122934   8.028   7.589   3.389
 7663TIP3    H222935   8.095   7.724   3.405
 7664TIP3   OH222936   1.282   2.341   4.173
 7664TIP3    H122937   1.220   2.271   4.154
 7664TIP3    H222938   1.368   2.303   4.156
 7665TIP3   OH222939   6.270   2.999   0.920
 7665TIP3    H122940   6.310   3.012   0.835
 7665TIP3    H222941   6.270   3.085   0.960
 7666TIP3   OH222942   7.168   5.089   1.447
 7666TIP3    H122943   7.201   5.029   1.380
 7666TIP3    H222944   7.130   5.162   1.397
 7667TIP3   OH222945   0.178   2.535   4.158
 7667TIP3    H122946   0.202   2.457   4.208
 7667TIP3    H222947   0.257   2.588   4.157
 7668TIP3   OH222948   8.041   6.875   1.532
 7668TIP3    H122949   7.989   6.799   1.560
 7668TIP3    H222950   8.043   6.868   1.437
 7669TIP3   OH222951   8.132   5.990   5.267
 7669TIP3    H122952   8.129   6.069   5.212
 7669TIP3    H222953   8.223   5.983   5.295
 7670TIP3   OH222954   4.614   0.396   4.928
 7670TIP3    H122955   4.616   0.321   4.987
 7670TIP3    H222956   4.645   0.361   4.844
 7671TIP3   OH222957   7.473   3.575   0.503
 7671TIP3    H122958   7.395   3.529   0.532
 7671TIP3    H222959   7.470   3.568   0.407
 7672TIP3   OH222960   5.113   3.660   6.388
 7672TIP3    H122961   5.099   3.752   6.364
 7672TIP3    H222962   5.192   3.661   6.441
 7673TIP3   OH222963   7.442   7.473   5.527
 7673TIP3    H122964   7.408   7.542   5.470
 7673TIP3    H222965   7.458   7.516   5.611
 7674TIP3   OH222966   6.694   3.216   6.084
 7674TIP3    H122967   6.627   3.285   6.078
 7674TIP3    H222968   6.645   3.134   6.084
 7675TIP3   OH222969   3.124   6.616   0.931
 7675TIP3    H122970   3.095   6.586   0.845
 7675TIP3    H222971   3.103   6.709   0.934
 7676TIP3   OH222972   1.724   1.153   6.275
 7676TIP3    H122973   1.781   1.206   6.329
 7676TIP3    H222974   1.756   1.164   6.186
 7677TIP3   OH222975   7.056   5.071   6.237
 7677TIP3    H122976   7.082   4.988   6.277
 7677TIP3    H222977   7.134   5.101   6.191
 7678TIP3   OH222978   2.797   0.380   4.805
 7678TIP3    H122979   2.839   0.421   4.881
 7678TIP3    H222980   2.811   0.441   4.733
 7679TIP3   OH222981   3.308   6.333   0.307
 7679TIP3    H122982   3.376   6.359   0.246
 7679TIP3    H222983   3.291   6.241   0.287
 7680TIP3   OH222984   0.077   6.251   4.447
 7680TIP3    H122985   0.067   6.179   4.509
 7680TIP3    H222986   0.144   6.308   4.486
 7681TIP3   OH222987   0.441   0.052   5.121
 7681TIP3    H122988   0.451  -0.016   5.054
 7681TIP3    H222989   0.428   0.003   5.203
 7682TIP3   OH222990   2.106   0.084   1.899
 7682TIP3    H122991   2.161   0.128   1.964
 7682TIP3    H222992   2.073   0.155   1.844
 7683TIP3   OH222993   2.549   7.136   2.925
 7683TIP3    H122994   2.638   7.170   2.934
 7683TIP3    H222995   2.532   7.089   3.007
 7684TIP3   OH222996   3.173   2.479   1.633
 7684TIP3    H122997   3.107   2.498   1.566
 7684TIP3    H222998   3.253   2.462   1.583
 7685TIP3   OH222999   4.175   7.540   1.779
 7685TIP3    H123000   4.107   7.473   1.773
 7685TIP3    H223001   4.128   7.622   1.766
 7686TIP3   OH223002   3.132   5.837   3.194
 7686TIP3    H123003   3.196   5.768   3.211
 7686TIP3    H223004   3.103   5.864   3.281
 7687TIP3   OH223005   4.227   4.997   5.710
 7687TIP3    H123006   4.298   5.029   5.766
 7687TIP3    H223007   4.266   4.992   5.622
 7688TIP3   OH223008   7.965   5.397   4.720
 7688TIP3    H123009   8.055   5.426   4.735
 7688TIP3    H223010   7.936   5.448   4.644
 7689TIP3   OH223011   8.087   6.879   4.846
 7689TIP3    H123012   8.173   6.879   4.804
 7689TIP3    H223013   8.026   6.902   4.776
 7690TIP3   OH223014   1.464   5.714   3.858
 7690TIP3    H123015   1.453   5.793   3.912
 7690TIP3    H223016   1.467   5.643   3.922
 7691TIP3   OH223017   8.126   5.447   1.616
 7691TIP3    H123018   8.194   5.401   1.567
 7691TIP3    H223019   8.054   5.384   1.622
 7692TIP3   OH223020   6.389   6.513   3.255
 7692TIP3    H123021   6.442   6.435   3.239
 7692TIP3    H223022   6.407   6.570   3.181
 7693TIP3   OH223023   0.495   2.876   1.169
 7693TIP3    H123024   0.461   2.957   1.132
 7693TIP3    H223025   0.428   2.811   1.149
 7694TIP3   OH223026   3.522   3.956   0.487
 7694TIP3    H123027   3.613   3.962   0.461
 7694TIP3    H223028   3.524   3.917   0.575
 7695TIP3   OH223029   2.634   4.813   6.286
 7695TIP3    H123030   2.576   4.871   6.334
 7695TIP3    H223031   2.602   4.725   6.306
 7696TIP3   OH223032   6.197   0.362   5.205
 7696TIP3    H123033   6.165   0.346   5.117
 7696TIP3    H223034   6.152   0.441   5.233
 7697TIP3   OH223035   1.011   0.596   5.400
 7697TIP3    H123036   1.082   0.600   5.464
 7697TIP3    H223037   0.936   0.637   5.444
 7698TIP3   OH223038   6.018   3.815   3.231
 7698TIP3    H123039   5.924   3.816   3.211
 7698TIP3    H223040   6.036   3.723   3.252
 7699TIP3   OH223041   7.193   2.057   2.139
 7699TIP3    H123042   7.105   2.064   2.103
 7699TIP3    H223043   7.225   2.148   2.141
 7700TIP3   OH223044   0.261   7.342   6.400
 7700TIP3    H123045   0.320   7.393   6.455
 7700TIP3    H223046   0.194   7.405   6.373
 7701TIP3   OH223047   8.015   1.181   6.378
 7701TIP3    H123048   7.939   1.128   6.403
 7701TIP3    H223049   8.044   1.222   6.459
 7702TIP3   OH223050   8.302   2.058   0.982
 7702TIP3    H123051   8.254   2.080   0.902
 7702TIP3    H223052   8.285   1.965   0.996
 7703TIP3   OH223053   2.280   2.585   1.663
 7703TIP3    H123054   2.319   2.568   1.749
 7703TIP3    H223055   2.350   2.563   1.601
 7704TIP3   OH223056   6.266   1.575   5.936
 7704TIP3    H123057   6.353   1.608   5.914
 7704TIP3    H223058   6.208   1.650   5.923
 7705TIP3   OH223059   2.539   6.957   3.542
 7705TIP3    H123060   2.454   6.926   3.509
 7705TIP3    H223061   2.573   6.883   3.592
 7706TIP3   OH223062   4.183   3.412   5.683
 7706TIP3    H123063   4.252   3.453   5.631
 7706TIP3    H223064   4.208   3.320   5.688
 7707TIP3   OH223065   4.668   6.997   2.903
 7707TIP3    H123066   4.579   7.023   2.928
 7707TIP3    H223067   4.687   6.922   2.960
 7708TIP3   OH223068   1.796   1.087   3.431
 7708TIP3    H123069   1.870   1.045   3.387
 7708TIP3    H223070   1.802   1.179   3.404
 7709TIP3   OH223071   7.613   3.655   2.149
 7709TIP3    H123072   7.524   3.651   2.115
 7709TIP3    H223073   7.612   3.599   2.226
 7710TIP3   OH223074   7.350   3.363   3.462
 7710TIP3    H123075   7.365   3.455   3.438
 7710TIP3    H223076   7.427   3.317   3.428
 7711TIP3   OH223077   7.186   2.187   4.787
 7711TIP3    H123078   7.188   2.115   4.851
 7711TIP3    H223079   7.278   2.202   4.766
 7712TIP3   OH223080   0.565   2.267   5.546
 7712TIP3    H123081   0.486   2.247   5.595
 7712TIP3    H223082   0.548   2.233   5.458
 7713TIP3   OH223083   3.037   3.824   3.026
 7713TIP3    H123084   3.103   3.756   3.008
 7713TIP3    H223085   2.980   3.824   2.950
 7714TIP3   OH223086   2.810   4.588   3.183
 7714TIP3    H123087   2.755   4.509   3.185
 7714TIP3    H223088   2.820   4.608   3.090
 7715TIP3   OH223089   2.904   2.129   3.792
 7715TIP3    H123090   2.949   2.212   3.776
 7715TIP3    H223091   2.830   2.130   3.730
 7716TIP3   OH223092   3.107   4.875   4.101
 7716TIP3    H123093   3.033   4.859   4.043
 7716TIP3    H223094   3.090   4.819   4.177
 7717TIP3   OH223095   2.898   2.986   5.362
 7717TIP3    H123096   2.839   3.026   5.426
 7717TIP3    H223097   2.985   3.019   5.386
 7718TIP3   OH223098   1.995   4.816   5.800
 7718TIP3    H123099   1.965   4.796   5.888
 7718TIP3    H223100   2.080   4.771   5.792
 7719TIP3   OH223101   5.553   3.470   4.818
 7719TIP3    H123102   5.520   3.450   4.731
 7719TIP3    H223103   5.483   3.520   4.860
 7720TIP3   OH223104   0.226   2.217   2.325
 7720TIP3    H123105   0.151   2.159   2.310
 7720TIP3    H223106   0.222   2.281   2.254
 7721TIP3   OH223107   1.452   0.004   0.866
 7721TIP3    H123108   1.461   0.090   0.907
 7721TIP3    H223109   1.517   0.004   0.795
 7722TIP3   OH223110   0.163   7.645   1.800
 7722TIP3    H123111   0.101   7.580   1.832
 7722TIP3    H223112   0.142   7.653   1.707
 7723TIP3   OH223113   6.181   1.352   5.828
 7723TIP3    H123114   6.256   1.336   5.771
 7723TIP3    H223115   6.191   1.442   5.857
 7724TIP3   OH223116   0.764   3.918   1.587
 7724TIP3    H123117   0.685   3.948   1.542
 7724TIP3    H223118   0.736   3.841   1.636
 7725TIP3   OH223119   4.586   1.541   3.313
 7725TIP3    H123120   4.657   1.605   3.311
 7725TIP3    H223121   4.529   1.569   3.384
 7726TIP3   OH223122   3.279   2.513   3.016
 7726TIP3    H123123   3.284   2.431   2.966
 7726TIP3    H223124   3.365   2.553   3.005
 7727TIP3   OH223125   1.616   6.543   6.738
 7727TIP3    H123126   1.592   6.597   6.663
 7727TIP3    H223127   1.537   6.539   6.792
 7728TIP3   OH223128   1.982   3.931   1.832
 7728TIP3    H123129   1.928   3.857   1.857
 7728TIP3    H223130   2.039   3.947   1.907
 7729TIP3   OH223131   3.680   5.988   5.176
 7729TIP3    H123132   3.708   6.053   5.111
 7729TIP3    H223133   3.639   5.919   5.126
 7730TIP3   OH223134   3.952   3.551   0.940
 7730TIP3    H123135   4.016   3.483   0.923
 7730TIP3    H223136   3.908   3.564   0.856
 7731TIP3   OH223137   7.284   5.146   3.566
 7731TIP3    H123138   7.278   5.142   3.661
 7731TIP3    H223139   7.378   5.150   3.547
 7732TIP3   OH223140   4.067   2.216   4.296
 7732TIP3    H123141   4.028   2.302   4.278
 7732TIP3    H223142   3.996   2.154   4.277
 7733TIP3   OH223143   0.034   0.104   0.900
 7733TIP3    H123144   0.071   0.191   0.882
 7733TIP3    H223145   0.036   0.060   0.815
 7734TIP3   OH223146   7.244   4.219   2.924
 7734TIP3    H123147   7.284   4.305   2.916
 7734TIP3    H223148   7.163   4.225   2.872
 7735TIP3   OH223149   4.446   2.806   0.640
 7735TIP3    H123150   4.385   2.766   0.702
 7735TIP3    H223151   4.398   2.880   0.603
 7736TIP3   OH223152   5.565   7.151   4.573
 7736TIP3    H123153   5.624   7.141   4.648
 7736TIP3    H223154   5.621   7.187   4.504
 7737TIP3   OH223155   5.446   7.581   5.419
 7737TIP3    H123156   5.497   7.552   5.495
 7737TIP3    H223157   5.492   7.657   5.386
 7738TIP3   OH223158   2.676   7.102   2.226
 7738TIP3    H123159   2.745   7.168   2.216
 7738TIP3    H223160   2.595   7.153   2.232
 7739TIP3   OH223161   5.082   4.681   1.820
 7739TIP3    H123162   5.140   4.719   1.886
 7739TIP3    H223163   5.125   4.700   1.736
 7740TIP3   OH223164   5.958   7.304   5.848
 7740TIP3    H123165   5.886   7.365   5.833
 7740TIP3    H223166   5.917   7.227   5.887
 7741TIP3   OH223167   6.680   2.802   2.418
 7741TIP3    H123168   6.662   2.763   2.333
 7741TIP3    H223169   6.757   2.756   2.451
 7742TIP3   OH223170   2.520   6.991   5.275
 7742TIP3    H123171   2.510   7.081   5.243
 7742TIP3    H223172   2.589   6.996   5.341
 7743TIP3   OH223173   6.248   5.256   4.244
 7743TIP3    H123174   6.253   5.293   4.155
 7743TIP3    H223175   6.339   5.252   4.273
 7744TIP3   OH223176   6.062   3.805   2.520
 7744TIP3    H123177   6.048   3.779   2.429
 7744TIP3    H223178   6.157   3.817   2.527
 7745TIP3   OH223179   4.013   3.434   4.501
 7745TIP3    H123180   4.057   3.514   4.530
 7745TIP3    H223181   4.078   3.365   4.513
 7746TIP3   OH223182   4.065   2.196   0.791
 7746TIP3    H123183   4.064   2.176   0.885
 7746TIP3    H223184   4.096   2.116   0.750
 7747TIP3   OH223185   0.705   1.562   4.505
 7747TIP3    H123186   0.677   1.544   4.595
 7747TIP3    H223187   0.741   1.651   4.509
 7748TIP3   OH223188   7.785   4.787   4.684
 7748TIP3    H123189   7.735   4.757   4.609
 7748TIP3    H223190   7.835   4.710   4.713
 7749TIP3   OH223191   3.167   2.150   1.592
 7749TIP3    H123192   3.159   2.104   1.508
 7749TIP3    H223193   3.253   2.192   1.588
 7750TIP3   OH223194   7.468   6.843   5.503
 7750TIP3    H123195   7.484   6.750   5.492
 7750TIP3    H223196   7.376   6.848   5.531
 7751TIP3   OH223197   6.678   6.237   2.249
 7751TIP3    H123198   6.653   6.151   2.216
 7751TIP3    H223199   6.664   6.232   2.343
 7752TIP3   OH223200   4.351   2.322   1.682
 7752TIP3    H123201   4.330   2.305   1.773
 7752TIP3    H223202   4.288   2.269   1.632
 7753TIP3   OH223203   6.614   0.240   1.410
 7753TIP3    H123204   6.557   0.220   1.336
 7753TIP3    H223205   6.555   0.244   1.485
 7754TIP3   OH223206   1.524   3.172   6.455
 7754TIP3    H123207   1.591   3.116   6.415
 7754TIP3    H223208   1.455   3.177   6.389
 7755TIP3   OH223209   4.149   5.689   6.489
 7755TIP3    H123210   4.202   5.659   6.563
 7755TIP3    H223211   4.131   5.781   6.508
 7756TIP3   OH223212   1.726   6.838   0.989
 7756TIP3    H123213   1.684   6.848   1.074
 7756TIP3    H223214   1.819   6.857   1.006
 7757TIP3   OH223215   7.766   3.353   5.885
 7757TIP3    H123216   7.769   3.319   5.796
 7757TIP3    H223217   7.672   3.357   5.905
 7758TIP3   OH223218   5.454   6.979   6.182
 7758TIP3    H123219   5.518   6.957   6.249
 7758TIP3    H223220   5.394   7.039   6.225
 7759TIP3   OH223221   4.098   7.679   0.462
 7759TIP3    H123222   4.089   7.628   0.543
 7759TIP3    H223223   4.191   7.673   0.440
 7760TIP3   OH223224   0.600   7.497   1.747
 7760TIP3    H123225   0.644   7.581   1.765
 7760TIP3    H223226   0.632   7.472   1.660
 7761TIP3   OH223227   0.094   4.973   3.990
 7761TIP3    H123228   0.185   4.960   3.966
 7761TIP3    H223229   0.095   4.990   4.084
 7762TIP3   OH223230   5.617   7.575   4.745
 7762TIP3    H123231   5.698   7.554   4.698
 7762TIP3    H223232   5.548   7.546   4.686
 7763TIP3   OH223233   5.736   1.620   2.307
 7763TIP3    H123234   5.679   1.562   2.359
 7763TIP3    H223235   5.688   1.633   2.225
 7764TIP3   OH223236   2.787   2.896   1.295
 7764TIP3    H123237   2.732   2.973   1.282
 7764TIP3    H223238   2.811   2.868   1.207
 7765TIP3   OH223239   3.829   2.816   1.004
 7765TIP3    H123240   3.743   2.825   0.964
 7765TIP3    H223241   3.887   2.791   0.932
 7766TIP3   OH223242   2.439   7.388   0.627
 7766TIP3    H123243   2.518   7.397   0.681
 7766TIP3    H223244   2.463   7.427   0.543
 7767TIP3   OH223245   6.483   7.170   5.877
 7767TIP3    H123246   6.573   7.167   5.843
 7767TIP3    H223247   6.470   7.261   5.903
 7768TIP3   OH223248   4.847   0.990   3.321
 7768TIP3    H123249   4.888   1.066   3.280
 7768TIP3    H223250   4.809   1.025   3.402
 7769TIP3   OH223251   4.497   4.819   3.605
 7769TIP3    H123252   4.414   4.847   3.643
 7769TIP3    H223253   4.473   4.761   3.533
 7770TIP3   OH223254   1.325   3.930   0.544
 7770TIP3    H123255   1.272   3.879   0.483
 7770TIP3    H223256   1.273   3.934   0.625
 7771TIP3   OH223257   4.877   4.898   3.918
 7771TIP3    H123258   4.837   4.883   3.833
 7771TIP3    H223259   4.828   4.842   3.978
 7772TIP3   OH223260   1.698   5.402   4.236
 7772TIP3    H123261   1.693   5.478   4.293
 7772TIP3    H223262   1.607   5.375   4.223
 7773TIP3   OH223263   3.246   5.296   6.166
 7773TIP3    H123264   3.290   5.214   6.189
 7773TIP3    H223265   3.291   5.327   6.088
 7774TIP3   OH223266   2.379   1.317   1.479
 7774TIP3    H123267   2.408   1.261   1.406
 7774TIP3    H223268   2.460   1.357   1.512
 7775TIP3   OH223269   5.179   2.300   2.719
 7775TIP3    H123270   5.096   2.345   2.706
 7775TIP3    H223271   5.205   2.323   2.808
 7776TIP3   OH223272   6.992   5.563   1.549
 7776TIP3    H123273   7.053   5.494   1.572
 7776TIP3    H223274   6.914   5.517   1.517
 7777TIP3   OH223275   2.515   5.705   5.735
 7777TIP3    H123276   2.531   5.613   5.759
 7777TIP3    H223277   2.447   5.701   5.668
 7778TIP3   OH223278   7.484   6.785   6.351
 7778TIP3    H123279   7.480   6.717   6.284
 7778TIP3    H223280   7.524   6.742   6.426
 7779TIP3   OH223281   5.018   3.159   3.319
 7779TIP3    H123282   4.987   3.131   3.233
 7779TIP3    H223283   5.114   3.156   3.312
 7780TIP3   OH223284   4.421   3.150   3.494
 7780TIP3    H123285   4.459   3.205   3.426
 7780TIP3    H223286   4.381   3.212   3.556
 7781TIP3   OH223287   6.616   0.485   3.912
 7781TIP3    H123288   6.622   0.571   3.952
 7781TIP3    H223289   6.592   0.426   3.984
 7782TIP3   OH223290   7.817   3.872   4.054
 7782TIP3    H123291   7.899   3.901   4.094
 7782TIP3    H223292   7.829   3.887   3.960
 7783TIP3   OH223293   5.069   2.511   5.755
 7783TIP3    H123294   5.030   2.563   5.685
 7783TIP3    H223295   5.097   2.430   5.713
 7784TIP3   OH223296   5.922   6.260   4.612
 7784TIP3    H123297   5.905   6.263   4.518
 7784TIP3    H223298   5.974   6.339   4.629
 7785TIP3   OH223299   7.704   2.042   0.349
 7785TIP3    H123300   7.633   1.996   0.394
 7785TIP3    H223301   7.669   2.063   0.263
 7786TIP3   OH223302   4.273   7.267   4.958
 7786TIP3    H123303   4.301   7.284   4.868
 7786TIP3    H223304   4.348   7.223   4.998
 7787TIP3   OH223305   4.001   6.075   5.921
 7787TIP3    H123306   3.965   6.091   6.008
 7787TIP3    H223307   3.934   6.024   5.876
 7788TIP3   OH223308   7.637   2.489   2.835
 7788TIP3    H123309   7.716   2.542   2.842
 7788TIP3    H223310   7.574   2.531   2.894
 7789TIP3   OH223311   2.216   7.499   1.288
 7789TIP3    H123312   2.309   7.480   1.295
 7789TIP3    H223313   2.185   7.446   1.215
 7790TIP3   OH223314   1.818   3.399   0.467
 7790TIP3    H123315   1.785   3.449   0.392
 7790TIP3    H223316   1.875   3.460   0.514
 7791TIP3   OH223317   4.100   4.876   5.054
 7791TIP3    H123318   4.143   4.804   5.101
 7791TIP3    H223319   4.079   4.940   5.123
 7792TIP3   OH223320   2.935   2.226   6.635
 7792TIP3    H123321   3.031   2.227   6.637
 7792TIP3    H223322   2.912   2.301   6.579
 7793TIP3   OH223323   2.608   6.388   0.835
 7793TIP3    H123324   2.586   6.307   0.882
 7793TIP3    H223325   2.556   6.384   0.754
 7794TIP3   OH223326   4.429   6.575   2.474
 7794TIP3    H123327   4.471   6.588   2.390
 7794TIP3    H223328   4.452   6.653   2.525
 7795TIP3   OH223329   4.146   6.793   1.317
 7795TIP3    H123330   4.147   6.833   1.404
 7795TIP3    H223331   4.139   6.699   1.333
 7796TIP3   OH223332   4.414   2.610   1.295
 7796TIP3    H123333   4.347   2.543   1.298
 7796TIP3    H223334   4.493   2.564   1.268
 7797TIP3   OH223335   7.655   6.805   4.775
 7797TIP3    H123336   7.651   6.739   4.844
 7797TIP3    H223337   7.619   6.884   4.815
 7798TIP3   OH223338   4.406   5.954   1.112
 7798TIP3    H123339   4.480   5.897   1.129
 7798TIP3    H223340   4.443   6.028   1.064
 7799TIP3   OH223341   7.350   2.163   1.296
 7799TIP3    H123342   7.430   2.151   1.348
 7799TIP3    H223343   7.366   2.114   1.216
 7800TIP3   OH223344   7.463   2.487   6.713
 7800TIP3    H123345   7.544   2.537   6.722
 7800TIP3    H223346   7.421   2.494   6.799
 7801TIP3   OH223347   0.689   0.525   2.460
 7801TIP3    H123348   0.657   0.613   2.479
 7801TIP3    H223349   0.637   0.468   2.516
 7802TIP3   OH223350   4.735   2.350   1.438
 7802TIP3    H123351   4.810   2.297   1.411
 7802TIP3    H223352   4.667   2.285   1.459
 7803TIP3   OH223353   3.743   6.188   1.546
 7803TIP3    H123354   3.781   6.260   1.597
 7803TIP3    H223355   3.818   6.132   1.524
 7804TIP3   OH223356   7.988   7.126   2.597
 7804TIP3    H123357   8.030   7.063   2.655
 7804TIP3    H223358   7.907   7.150   2.643
 7805TIP3   OH223359   7.094   0.076   4.788
 7805TIP3    H123360   7.133   0.093   4.702
 7805TIP3    H223361   7.143   0.001   4.822
 7806TIP3   OH223362   7.351   6.537   4.508
 7806TIP3    H123363   7.360   6.583   4.591
 7806TIP3    H223364   7.257   6.517   4.502
 7807TIP3   OH223365   3.982   7.074   1.277
 7807TIP3    H123366   4.024   6.992   1.302
 7807TIP3    H223367   4.050   7.140   1.284
 7808TIP3   OH223368   6.663   1.653   3.841
 7808TIP3    H123369   6.679   1.585   3.906
 7808TIP3    H223370   6.572   1.678   3.854
 7809TIP3   OH223371   8.241   5.530   0.894
 7809TIP3    H123372   8.245   5.609   0.947
 7809TIP3    H223373   8.182   5.472   0.942
 7810TIP3   OH223374   2.512   1.910   6.642
 7810TIP3    H123375   2.558   1.978   6.692
 7810TIP3    H223376   2.531   1.931   6.550
 7811TIP3   OH223377   5.420   0.553   0.623
 7811TIP3    H123378   5.341   0.584   0.668
 7811TIP3    H223379   5.416   0.458   0.631
 7812TIP3   OH223380   5.518   1.318   3.865
 7812TIP3    H123381   5.558   1.349   3.947
 7812TIP3    H223382   5.593   1.296   3.809
 7813TIP3   OH223383   5.438   4.544   1.917
 7813TIP3    H123384   5.365   4.484   1.930
 7813TIP3    H223385   5.516   4.489   1.924
 7814TIP3   OH223386   4.279   3.755   1.894
 7814TIP3    H123387   4.308   3.842   1.868
 7814TIP3    H223388   4.324   3.696   1.834
 7815TIP3   OH223389   7.105   7.344   0.638
 7815TIP3    H123390   7.012   7.365   0.630
 7815TIP3    H223391   7.147   7.427   0.661
 7816TIP3   OH223392   5.227   3.040   3.827
 7816TIP3    H123393   5.180   3.123   3.840
 7816TIP3    H223394   5.314   3.056   3.862
 7817TIP3   OH223395   7.361   1.030   2.069
 7817TIP3    H123396   7.336   1.027   1.977
 7817TIP3    H223397   7.280   1.009   2.117
 7818TIP3   OH223398   8.153   1.137   0.537
 7818TIP3    H123399   8.234   1.144   0.488
 7818TIP3    H223400   8.101   1.073   0.489
 7819TIP3   OH223401   5.339   6.411   6.067
 7819TIP3    H123402   5.421   6.455   6.044
 7819TIP3    H223403   5.285   6.417   5.988
 7820TIP3   OH223404   0.214   5.349   6.178
 7820TIP3    H123405   0.198   5.359   6.084
 7820TIP3    H223406   0.304   5.318   6.183
 7821TIP3   OH223407   0.584   1.035   5.282
 7821TIP3    H123408   0.618   1.123   5.299
 7821TIP3    H223409   0.644   0.998   5.217
 7822TIP3   OH223410   4.666   2.955   0.382
 7822TIP3    H123411   4.714   2.918   0.456
 7822TIP3    H223412   4.658   2.882   0.320
 7823TIP3   OH223413   0.639   3.050   0.775
 7823TIP3    H123414   0.617   3.012   0.859
 7823TIP3    H223415   0.562   3.033   0.720
 7824TIP3   OH223416   3.850   6.714   2.561
 7824TIP3    H123417   3.847   6.620   2.579
 7824TIP3    H223418   3.825   6.755   2.643
 7825TIP3   OH223419   6.059   5.872   5.929
 7825TIP3    H123420   5.965   5.862   5.915
 7825TIP3    H223421   6.066   5.938   5.998
 7826TIP3   OH223422   0.987   2.703   0.698
 7826TIP3    H123423   0.908   2.687   0.645
 7826TIP3    H223424   1.023   2.785   0.663
 7827TIP3   OH223425   0.043   5.473   3.471
 7827TIP3    H123426   0.018   5.415   3.543
 7827TIP3    H223427   0.021   5.561   3.503
 7828TIP3   OH223428   4.028   4.448   6.074
 7828TIP3    H123429   4.064   4.458   6.163
 7828TIP3    H223430   4.102   4.462   6.016
 7829TIP3   OH223431   7.548   3.560   3.478
 7829TIP3    H123432   7.557   3.647   3.519
 7829TIP3    H223433   7.638   3.528   3.472
 7830TIP3   OH223434   1.220   7.540   1.480
 7830TIP3    H123435   1.306   7.568   1.449
 7830TIP3    H223436   1.238   7.490   1.560
 7831TIP3   OH223437   4.843   6.258   0.084
 7831TIP3    H123438   4.879   6.308   0.157
 7831TIP3    H223439   4.773   6.206   0.123
 7832TIP3   OH223440   1.850   4.831   5.510
 7832TIP3    H123441   1.829   4.863   5.598
 7832TIP3    H223442   1.765   4.819   5.468
 7833TIP3   OH223443   5.924   2.774   6.264
 7833TIP3    H123444   6.012   2.745   6.242
 7833TIP3    H223445   5.929   2.870   6.261
 7834TIP3   OH223446   3.107   7.536   6.596
 7834TIP3    H123447   3.189   7.495   6.623
 7834TIP3    H223448   3.060   7.553   6.678
 7835TIP3   OH223449   6.269   2.069   3.159
 7835TIP3    H123450   6.213   2.019   3.100
 7835TIP3    H223451   6.352   2.078   3.110
 7836TIP3   OH223452   4.731   6.181   4.505
 7836TIP3    H123453   4.759   6.254   4.562
 7836TIP3    H223454   4.715   6.222   4.420
 7837TIP3   OH223455   1.193   3.208   4.712
 7837TIP3    H123456   1.232   3.136   4.762
 7837TIP3    H223457   1.261   3.232   4.649
 7838TIP3   OH223458   3.701   7.243   5.179
 7838TIP3    H123459   3.718   7.166   5.125
 7838TIP3    H223460   3.701   7.210   5.269
 7839TIP3   OH223461   7.209   7.351   4.896
 7839TIP3    H123462   7.153   7.404   4.839
 7839TIP3    H223463   7.271   7.413   4.934
 7840TIP3   OH223464   0.964   5.262   5.618
 7840TIP3    H123465   0.939   5.184   5.568
 7840TIP3    H223466   0.906   5.261   5.694
 7841TIP3   OH223467   0.737   1.570   3.407
 7841TIP3    H123468   0.688   1.650   3.386
 7841TIP3    H223469   0.828   1.597   3.405
 7842TIP3   OH223470   3.698   7.783   4.821
 7842TIP3    H123471   3.707   7.865   4.869
 7842TIP3    H223472   3.628   7.737   4.866
 7843TIP3   OH223473   6.613   3.934   1.760
 7843TIP3    H123474   6.544   3.883   1.717
 7843TIP3    H223475   6.585   4.025   1.751
 7844TIP3   OH223476   5.566   4.785   4.119
 7844TIP3    H123477   5.520   4.827   4.046
 7844TIP3    H223478   5.623   4.854   4.154
 7845TIP3   OH223479   6.638   0.555   1.403
 7845TIP3    H123480   6.648   0.591   1.491
 7845TIP3    H223481   6.703   0.484   1.398
 7846TIP3   OH223482   2.645   6.723   2.683
 7846TIP3    H123483   2.574   6.659   2.677
 7846TIP3    H223484   2.716   6.685   2.632
 7847TIP3   OH223485   2.527   2.758   5.224
 7847TIP3    H123486   2.550   2.756   5.317
 7847TIP3    H223487   2.604   2.794   5.181
 7848TIP3   OH223488   0.369   7.309   1.637
 7848TIP3    H123489   0.430   7.236   1.628
 7848TIP3    H223490   0.421   7.379   1.678
 7849TIP3   OH223491   2.302   1.898   3.288
 7849TIP3    H123492   2.233   1.867   3.230
 7849TIP3    H223493   2.333   1.819   3.334
 7850TIP3   OH223494   6.081   5.360   2.190
 7850TIP3    H123495   6.035   5.314   2.121
 7850TIP3    H223496   6.056   5.452   2.179
 7851TIP3   OH223497   2.530   1.939   1.090
 7851TIP3    H123498   2.532   1.867   1.027
 7851TIP3    H223499   2.479   2.007   1.047
 7852TIP3   OH223500   1.415   4.825   5.568
 7852TIP3    H123501   1.464   4.821   5.486
 7852TIP3    H223502   1.479   4.857   5.632
 7853TIP3   OH223503   1.194   2.741   1.886
 7853TIP3    H123504   1.129   2.671   1.894
 7853TIP3    H223505   1.174   2.783   1.803
 7854TIP3   OH223506   8.251   1.362   1.785
 7854TIP3    H123507   8.314   1.359   1.857
 7854TIP3    H223508   8.300   1.331   1.709
 7855TIP3   OH223509   1.204   0.299   4.701
 7855TIP3    H123510   1.216   0.336   4.788
 7855TIP3    H223511   1.109   0.296   4.689
 7856TIP3   OH223512   1.924   3.662   5.131
 7856TIP3    H123513   1.892   3.572   5.142
 7856TIP3    H223514   1.902   3.684   5.041
 7857TIP3   OH223515   3.032   1.066   3.482
 7857TIP3    H123516   3.109   1.043   3.533
 7857TIP3    H223517   2.960   1.020   3.526
 7858TIP3   OH223518   3.075   5.915   5.049
 7858TIP3    H123519   3.043   6.002   5.073
 7858TIP3    H223520   3.014   5.854   5.090
 7859TIP3   OH223521   7.034   2.898   0.227
 7859TIP3    H123522   7.017   2.831   0.292
 7859TIP3    H223523   6.948   2.915   0.187
 7860TIP3   OH223524   3.561   4.023   0.172
 7860TIP3    H123525   3.511   3.944   0.190
 7860TIP3    H223526   3.497   4.094   0.180
 7861TIP3   OH223527   3.189   6.151   5.231
 7861TIP3    H123528   3.241   6.128   5.154
 7861TIP3    H223529   3.254   6.172   5.298
 7862TIP3   OH223530   6.459   3.016   0.149
 7862TIP3    H123531   6.468   3.105   0.182
 7862TIP3    H223532   6.365   2.999   0.150
 7863TIP3   OH223533   4.956   6.300   1.099
 7863TIP3    H123534   4.966   6.314   1.005
 7863TIP3    H223535   4.986   6.210   1.114
 7864TIP3   OH223536   3.014   1.885   2.733
 7864TIP3    H123537   3.021   1.978   2.714
 7864TIP3    H223538   2.996   1.844   2.647
 7865TIP3   OH223539   7.619   2.424   2.130
 7865TIP3    H123540   7.675   2.390   2.060
 7865TIP3    H223541   7.534   2.439   2.088
 7866TIP3   OH223542   7.788   2.234   2.891
 7866TIP3    H123543   7.753   2.175   2.824
 7866TIP3    H223544   7.721   2.301   2.900
 7867TIP3   OH223545   6.867   1.886   6.503
 7867TIP3    H123546   6.912   1.924   6.427
 7867TIP3    H223547   6.876   1.792   6.491
 7868TIP3   OH223548   3.959   5.416   5.727
 7868TIP3    H123549   4.030   5.379   5.675
 7868TIP3    H223550   4.003   5.454   5.804
 7869TIP3   OH223551   5.011   0.730   0.021
 7869TIP3    H123552   4.963   0.718  -0.061
 7869TIP3    H223553   4.947   0.710   0.090
 7870TIP3   OH223554   1.396   0.328   6.593
 7870TIP3    H123555   1.424   0.337   6.684
 7870TIP3    H223556   1.315   0.379   6.588
 7871TIP3   OH223557   6.976   5.268   4.294
 7871TIP3    H123558   6.934   5.353   4.279
 7871TIP3    H223559   6.903   5.206   4.300
 7872TIP3   OH223560   3.799   0.070   0.675
 7872TIP3    H123561   3.818  -0.023   0.674
 7872TIP3    H223562   3.734   0.082   0.605
 7873TIP3   OH223563   5.135   5.541   4.689
 7873TIP3    H123564   5.182   5.615   4.726
 7873TIP3    H223565   5.108   5.570   4.602
 7874TIP3   OH223566   2.655   0.396   1.417
 7874TIP3    H123567   2.637   0.445   1.497
 7874TIP3    H223568   2.583   0.333   1.411
 7875TIP3   OH223569   2.924   3.895   0.785
 7875TIP3    H123570   2.966   3.815   0.753
 7875TIP3    H223571   2.842   3.900   0.736
 7876TIP3   OH223572   8.238   7.387   4.979
 7876TIP3    H123573   8.176   7.422   5.044
 7876TIP3    H223574   8.224   7.442   4.902
 7877TIP3   OH223575   1.500   1.116   3.389
 7877TIP3    H123576   1.499   1.171   3.311
 7877TIP3    H223577   1.593   1.107   3.411
 7878TIP3   OH223578   6.820   3.259   0.260
 7878TIP3    H123579   6.736   3.214   0.249
 7878TIP3    H223580   6.806   3.318   0.334
 7879TIP3   OH223581   4.897   0.921   2.143
 7879TIP3    H123582   4.804   0.929   2.124
 7879TIP3    H223583   4.921   1.004   2.183
 7880TIP3   OH223584   5.713   5.416   4.923
 7880TIP3    H123585   5.704   5.455   4.836
 7880TIP3    H223586   5.802   5.436   4.950
 7881TIP3   OH223587   5.908   6.515   3.818
 7881TIP3    H123588   5.958   6.553   3.890
 7881TIP3    H223589   5.966   6.524   3.742
 7882TIP3   OH223590   0.263   7.033   6.063
 7882TIP3    H123591   0.283   7.088   5.987
 7882TIP3    H223592   0.299   7.081   6.137
 7883TIP3   OH223593   1.234   3.030   6.004
 7883TIP3    H123594   1.325   3.004   5.993
 7883TIP3    H223595   1.230   3.120   5.970
 7884TIP3   OH223596   2.180   4.216   4.879
 7884TIP3    H123597   2.125   4.142   4.852
 7884TIP3    H223598   2.144   4.244   4.963
 7885TIP3   OH223599   0.957   2.227   3.417
 7885TIP3    H123600   0.905   2.207   3.495
 7885TIP3    H223601   1.000   2.310   3.437
 7886TIP3   OH223602   7.862   1.926   4.869
 7886TIP3    H123603   7.766   1.926   4.875
 7886TIP3    H223604   7.882   1.998   4.808
 7887TIP3   OH223605   5.645   7.122   5.375
 7887TIP3    H123606   5.721   7.164   5.335
 7887TIP3    H223607   5.644   7.155   5.465
 7888TIP3   OH223608   4.997   6.517   5.683
 7888TIP3    H123609   5.043   6.513   5.600
 7888TIP3    H223610   4.940   6.594   5.676
 7889TIP3   OH223611   5.661   5.013   2.503
 7889TIP3    H123612   5.664   5.015   2.407
 7889TIP3    H223613   5.596   4.945   2.523
 7890TIP3   OH223614   3.359   6.682   6.014
 7890TIP3    H123615   3.415   6.734   6.073
 7890TIP3    H223616   3.373   6.592   6.043
 7891TIP3   OH223617   6.072   0.732   6.749
 7891TIP3    H123618   6.045   0.640   6.751
 7891TIP3    H223619   6.068   0.756   6.657
 7892TIP3   OH223620   1.567   7.193   2.220
 7892TIP3    H123621   1.603   7.148   2.144
 7892TIP3    H223622   1.478   7.217   2.194
 7893TIP3   OH223623   3.222  -0.044   0.774
 7893TIP3    H123624   3.283  -0.037   0.701
 7893TIP3    H223625   3.196   0.047   0.793
 7894TIP3   OH223626   6.720   7.207   5.339
 7894TIP3    H123627   6.814   7.189   5.349
 7894TIP3    H223628   6.677   7.131   5.379
 7895TIP3   OH223629   6.654   5.173   0.120
 7895TIP3    H123630   6.585   5.234   0.095
 7895TIP3    H223631   6.703   5.159   0.039
 7896TIP3   OH223632   7.823   3.055   3.801
 7896TIP3    H123633   7.905   3.057   3.752
 7896TIP3    H223634   7.811   3.145   3.831
 7897TIP3   OH223635   4.819   0.362   0.566
 7897TIP3    H123636   4.761   0.407   0.504
 7897TIP3    H223637   4.789   0.271   0.565
 7898TIP3   OH223638   4.795   3.030   4.918
 7898TIP3    H123639   4.717   2.988   4.955
 7898TIP3    H223640   4.840   2.960   4.871
 7899TIP3   OH223641   2.463   1.655   4.455
 7899TIP3    H123642   2.485   1.572   4.498
 7899TIP3    H223643   2.541   1.677   4.405
 7900TIP3   OH223644   8.019   5.719   0.401
 7900TIP3    H123645   8.050   5.700   0.312
 7900TIP3    H223646   8.088   5.683   0.457
 7901TIP3   OH223647   1.298   1.009   2.864
 7901TIP3    H123648   1.249   0.985   2.786
 7901TIP3    H223649   1.324   1.100   2.849
 7902TIP3   OH223650   3.309   0.839   2.632
 7902TIP3    H123651   3.257   0.763   2.605
 7902TIP3    H223652   3.393   0.802   2.658
 7903TIP3   OH223653   3.633   2.756   4.730
 7903TIP3    H123654   3.548   2.791   4.756
 7903TIP3    H223655   3.612   2.677   4.679
 7904TIP3   OH223656   6.215   7.125   3.636
 7904TIP3    H123657   6.138   7.084   3.674
 7904TIP3    H223658   6.236   7.197   3.695
 7905TIP3   OH223659   6.002   2.283   1.209
 7905TIP3    H123660   5.976   2.336   1.284
 7905TIP3    H223661   6.057   2.214   1.245
 7906TIP3   OH223662   4.606   1.895   1.040
 7906TIP3    H123663   4.668   1.882   1.112
 7906TIP3    H223664   4.590   1.989   1.039
 7907TIP3   OH223665   0.381   0.318   1.265
 7907TIP3    H123666   0.372   0.223   1.261
 7907TIP3    H223667   0.387   0.346   1.174
 7908TIP3   OH223668   5.536   1.145   2.245
 7908TIP3    H123669   5.618   1.191   2.228
 7908TIP3    H223670   5.543   1.115   2.336
 7909TIP3   OH223671   3.442   5.680   4.776
 7909TIP3    H123672   3.463   5.708   4.687
 7909TIP3    H223673   3.373   5.615   4.766
 7910TIP3   OH223674   0.458   2.734   0.858
 7910TIP3    H123675   0.442   2.760   0.767
 7910TIP3    H223676   0.549   2.757   0.874
 7911TIP3   OH223677   1.845   4.018   0.202
 7911TIP3    H123678   1.931   3.976   0.212
 7911TIP3    H223679   1.800   4.000   0.284
 7912TIP3   OH223680   1.610   6.311   4.768
 7912TIP3    H123681   1.630   6.404   4.762
 7912TIP3    H223682   1.533   6.299   4.713
 7913TIP3   OH223683   5.528   3.602   3.555
 7913TIP3    H123684   5.471   3.528   3.532
 7913TIP3    H223685   5.572   3.623   3.473
 7914TIP3   OH223686   7.903   0.397   2.299
 7914TIP3    H123687   7.835   0.434   2.242
 7914TIP3    H223688   7.892   0.302   2.292
 7915TIP3   OH223689   0.165   1.601   6.300
 7915TIP3    H123690   0.146   1.674   6.358
 7915TIP3    H223691   0.135   1.524   6.348
 7916TIP3   OH223692   5.523   2.705   2.232
 7916TIP3    H123693   5.613   2.698   2.200
 7916TIP3    H223694   5.516   2.640   2.301
 7917TIP3   OH223695   4.851   5.157   1.806
 7917TIP3    H123696   4.924   5.213   1.779
 7917TIP3    H223697   4.865   5.076   1.757
 7918TIP3   OH223698   2.715   2.426   1.698
 7918TIP3    H123699   2.753   2.506   1.734
 7918TIP3    H223700   2.788   2.383   1.654
 7919TIP3   OH223701   2.480   4.177   4.156
 7919TIP3    H123702   2.461   4.270   4.170
 7919TIP3    H223703   2.413   4.131   4.206
 7920TIP3   OH223704   7.907   7.540   2.150
 7920TIP3    H123705   7.878   7.552   2.241
 7920TIP3    H223706   7.912   7.629   2.115
 7921TIP3   OH223707   6.059   0.248   6.349
 7921TIP3    H123708   5.998   0.292   6.408
 7921TIP3    H223709   6.107   0.187   6.406
 7922TIP3   OH223710   6.421   0.270   2.336
 7922TIP3    H123711   6.402   0.200   2.273
 7922TIP3    H223712   6.335   0.308   2.356
 7923TIP3   OH223713   8.185   0.130   2.879
 7923TIP3    H123714   8.276   0.107   2.901
 7923TIP3    H223715   8.144   0.145   2.964
 7924TIP3   OH223716   2.422   7.232   6.631
 7924TIP3    H123717   2.483   7.179   6.682
 7924TIP3    H223718   2.371   7.280   6.697
 7925TIP3   OH223719   7.821   0.126   2.234
 7925TIP3    H123720   7.890   0.141   2.169
 7925TIP3    H223721   7.810   0.031   2.236
 7926TIP3   OH223722   7.587   4.123   5.101
 7926TIP3    H123723   7.576   4.129   5.006
 7926TIP3    H223724   7.627   4.037   5.115
 7927TIP3   OH223725   2.313   6.637   4.487
 7927TIP3    H123726   2.335   6.729   4.502
 7927TIP3    H223727   2.319   6.626   4.392
 7928TIP3   OH223728   6.120   4.567   6.455
 7928TIP3    H123729   6.149   4.639   6.511
 7928TIP3    H223730   6.134   4.599   6.366
 7929TIP3   OH223731   0.860   6.597   2.982
 7929TIP3    H123732   0.829   6.521   2.931
 7929TIP3    H223733   0.921   6.559   3.045
 7930TIP3   OH223734   3.515   3.792   0.734
 7930TIP3    H123735   3.504   3.804   0.828
 7930TIP3    H223736   3.473   3.708   0.715
 7931TIP3   OH223737   8.099   7.877   3.602
 7931TIP3    H123738   8.019   7.874   3.549
 7931TIP3    H223739   8.095   7.798   3.656
 7932TIP3   OH223740   5.754   6.652   6.191
 7932TIP3    H123741   5.811   6.716   6.148
 7932TIP3    H223742   5.808   6.573   6.198
 7933TIP3   OH223743   6.436   7.107   3.877
 7933TIP3    H123744   6.494   7.034   3.859
 7933TIP3    H223745   6.348   7.074   3.860
 7934TIP3   OH223746   1.082   6.552   1.808
 7934TIP3    H123747   1.083   6.521   1.899
 7934TIP3    H223748   1.066   6.647   1.816
 7935TIP3   OH223749   1.587   3.006   4.689
 7935TIP3    H123750   1.612   3.042   4.604
 7935TIP3    H223751   1.670   2.992   4.734
 7936TIP3   OH223752   6.705   5.910   6.499
 7936TIP3    H123753   6.745   5.888   6.415
 7936TIP3    H223754   6.685   5.826   6.540
 7937TIP3   OH223755   7.733   5.929   5.835
 7937TIP3    H123756   7.789   5.895   5.766
 7937TIP3    H223757   7.766   6.018   5.851
 7938TIP3   OH223758   4.887   4.170   1.057
 7938TIP3    H123759   4.978   4.154   1.080
 7938TIP3    H223760   4.860   4.240   1.116
 7939TIP3   OH223761   4.700   7.555   2.647
 7939TIP3    H123762   4.688   7.476   2.699
 7939TIP3    H223763   4.627   7.612   2.672
 7940TIP3   OH223764   4.864   2.665   6.437
 7940TIP3    H123765   4.910   2.658   6.354
 7940TIP3    H223766   4.853   2.759   6.451
 7941TIP3   OH223767   0.590   6.077   2.994
 7941TIP3    H123768   0.543   6.043   2.918
 7941TIP3    H223769   0.664   6.018   3.004
 7942TIP3   OH223770   6.327   7.624   1.793
 7942TIP3    H123771   6.254   7.562   1.792
 7942TIP3    H223772   6.287   7.708   1.773
 7943TIP3   OH223773   6.926   4.753   4.585
 7943TIP3    H123774   6.987   4.750   4.512
 7943TIP3    H223775   6.945   4.836   4.628
 7944TIP3   OH223776   6.487   5.027   3.907
 7944TIP3    H123777   6.555   5.094   3.892
 7944TIP3    H223778   6.448   5.013   3.821
 7945TIP3   OH223779   5.457   5.248   1.219
 7945TIP3    H123780   5.391   5.315   1.200
 7945TIP3    H223781   5.509   5.286   1.289
 7946TIP3   OH223782   5.290   4.275   4.468
 7946TIP3    H123783   5.271   4.223   4.390
 7946TIP3    H223784   5.385   4.273   4.476
 7947TIP3   OH223785   1.879   6.424   3.816
 7947TIP3    H123786   1.961   6.421   3.766
 7947TIP3    H223787   1.846   6.513   3.802
 7948TIP3   OH223788   1.480   5.898   1.644
 7948TIP3    H123789   1.493   5.807   1.670
 7948TIP3    H223790   1.568   5.933   1.633
 7949TIP3   OH223791   0.904   6.983   5.271
 7949TIP3    H123792   0.965   6.913   5.247
 7949TIP3    H223793   0.818   6.942   5.271
 7950TIP3   OH223794   2.323   4.799   3.825
 7950TIP3    H123795   2.405   4.845   3.806
 7950TIP3    H223796   2.341   4.753   3.908
 7951TIP3   OH223797   0.950   2.635   5.922
 7951TIP3    H123798   0.948   2.596   5.835
 7951TIP3    H223799   1.008   2.711   5.912
 7952TIP3   OH223800   8.159   5.698   6.299
 7952TIP3    H123801   8.228   5.731   6.357
 7952TIP3    H223802   8.181   5.606   6.287
 7953TIP3   OH223803   6.844   6.231   0.337
 7953TIP3    H123804   6.865   6.266   0.250
 7953TIP3    H223805   6.889   6.290   0.397
 7954TIP3   OH223806   5.158   1.301   5.031
 7954TIP3    H123807   5.163   1.363   4.958
 7954TIP3    H223808   5.104   1.344   5.097
 7955TIP3   OH223809   2.887   7.597   2.874
 7955TIP3    H123810   2.830   7.617   2.800
 7955TIP3    H223811   2.859   7.510   2.902
 7956TIP3   OH223812   3.170   3.306   2.348
 7956TIP3    H123813   3.101   3.255   2.389
 7956TIP3    H223814   3.235   3.242   2.319
 7957TIP3   OH223815   0.280   0.175   0.501
 7957TIP3    H123816   0.272   0.130   0.417
 7957TIP3    H223817   0.230   0.256   0.490
 7958TIP3   OH223818   7.226   0.991   0.382
 7958TIP3    H123819   7.239   1.077   0.341
 7958TIP3    H223820   7.132   0.977   0.378
 7959TIP3   OH223821   8.005   1.632   4.445
 7959TIP3    H123822   8.048   1.703   4.397
 7959TIP3    H223823   7.977   1.571   4.378
 7960TIP3   OH223824   2.341   5.645   2.051
 7960TIP3    H123825   2.347   5.625   2.144
 7960TIP3    H223826   2.370   5.564   2.008
 7961TIP3   OH223827   0.264   5.388   4.730
 7961TIP3    H123828   0.346   5.402   4.778
 7961TIP3    H223829   0.203   5.356   4.796
 7962TIP3   OH223830   5.691   0.479   6.545
 7962TIP3    H123831   5.755   0.490   6.475
 7962TIP3    H223832   5.642   0.561   6.545
 7963TIP3   OH223833   0.648   4.708   2.161
 7963TIP3    H123834   0.716   4.745   2.104
 7963TIP3    H223835   0.627   4.780   2.221
 7964TIP3   OH223836   1.095   6.191   3.354
 7964TIP3    H123837   1.183   6.227   3.345
 7964TIP3    H223838   1.104   6.117   3.414
 7965TIP3   OH223839   5.509   3.558   3.106
 7965TIP3    H123840   5.566   3.570   3.030
 7965TIP3    H223841   5.491   3.647   3.137
 7966TIP3   OH223842   7.727   4.474   0.329
 7966TIP3    H123843   7.803   4.532   0.330
 7966TIP3    H223844   7.742   4.414   0.402
 7967TIP3   OH223845   1.498   4.240   0.152
 7967TIP3    H123846   1.498   4.215   0.244
 7967TIP3    H223847   1.466   4.330   0.152
 7968TIP3   OH223848   0.690   2.168   5.056
 7968TIP3    H123849   0.673   2.153   4.963
 7968TIP3    H223850   0.763   2.108   5.077
 7969TIP3   OH223851   5.498   6.181   5.525
 7969TIP3    H123852   5.528   6.233   5.600
 7969TIP3    H223853   5.518   6.236   5.449
 7970TIP3   OH223854   3.975   0.437   3.579
 7970TIP3    H123855   3.912   0.490   3.531
 7970TIP3    H223856   3.954   0.347   3.555
 7971TIP3   OH223857   3.681   0.233   0.200
 7971TIP3    H123858   3.776   0.228   0.192
 7971TIP3    H223859   3.663   0.325   0.216
 7972TIP3   OH223860   0.939   5.794   0.613
 7972TIP3    H123861   1.024   5.827   0.641
 7972TIP3    H223862   0.958   5.709   0.574
 7973TIP3   OH223863   3.125   7.056   1.494
 7973TIP3    H123864   3.118   6.967   1.528
 7973TIP3    H223865   3.150   7.109   1.570
 7974TIP3   OH223866   0.410   6.733   6.014
 7974TIP3    H123867   0.488   6.779   5.984
 7974TIP3    H223868   0.391   6.669   5.945
 7975TIP3   OH223869   7.802   0.508   6.349
 7975TIP3    H123870   7.894   0.515   6.323
 7975TIP3    H223871   7.786   0.414   6.354
 7976TIP3   OH223872   4.384   2.189   5.430
 7976TIP3    H123873   4.373   2.198   5.335
 7976TIP3    H223874   4.297   2.164   5.462
 7977TIP3   OH223875   7.319   5.827   3.474
 7977TIP3    H123876   7.344   5.814   3.566
 7977TIP3    H223877   7.391   5.878   3.437
 7978TIP3   OH223878   6.352   1.185   4.031
 7978TIP3    H123879   6.355   1.095   3.999
 7978TIP3    H223880   6.262   1.196   4.064
 7979TIP3   OH223881   6.362   0.837   3.004
 7979TIP3    H123882   6.329   0.884   3.081
 7979TIP3    H223883   6.448   0.803   3.032
 7980TIP3   OH223884   2.301   6.849   6.365
 7980TIP3    H123885   2.253   6.853   6.448
 7980TIP3    H223886   2.341   6.935   6.356
 7981TIP3   OH223887   6.079   1.806   3.292
 7981TIP3    H123888   6.160   1.780   3.336
 7981TIP3    H223889   6.042   1.724   3.260
 7982TIP3   OH223890   7.302   2.239   4.136
 7982TIP3    H123891   7.310   2.257   4.042
 7982TIP3    H223892   7.222   2.284   4.163
 7983TIP3   OH223893   7.275   5.878   6.638
 7983TIP3    H123894   7.237   5.919   6.560
 7983TIP3    H223895   7.248   5.786   6.633
 7984TIP3   OH223896   7.112   6.950   4.752
 7984TIP3    H123897   7.134   6.893   4.678
 7984TIP3    H223898   7.070   6.892   4.815
 7985TIP3   OH223899   0.971   7.744   2.916
 7985TIP3    H123900   1.066   7.744   2.926
 7985TIP3    H223901   0.956   7.720   2.824
 7986TIP3   OH223902   1.376   4.190   1.314
 7986TIP3    H123903   1.441   4.120   1.311
 7986TIP3    H223904   1.293   4.147   1.294
 7987TIP3   OH223905   5.946   1.348   1.196
 7987TIP3    H123906   5.949   1.253   1.208
 7987TIP3    H223907   5.984   1.363   1.110
 7988TIP3   OH223908   3.746   2.562   5.544
 7988TIP3    H123909   3.664   2.582   5.587
 7988TIP3    H223910   3.733   2.587   5.453
 7989TIP3   OH223911   7.928   3.071   4.425
 7989TIP3    H123912   7.973   3.139   4.376
 7989TIP3    H223913   7.995   3.005   4.442
 7990TIP3   OH223914   2.917   2.820   1.053
 7990TIP3    H123915   2.845   2.823   0.990
 7990TIP3    H223916   2.965   2.901   1.039
 7991TIP3   OH223917   7.708   6.603   5.578
 7991TIP3    H123918   7.709   6.697   5.596
 7991TIP3    H223919   7.754   6.594   5.494
 7992TIP3   OH223920   1.820   4.508   5.100
 7992TIP3    H123921   1.868   4.429   5.073
 7992TIP3    H223922   1.847   4.523   5.190
 7993TIP3   OH223923   3.156   4.223   3.484
 7993TIP3    H123924   3.234   4.268   3.452
 7993TIP3    H223925   3.084   4.258   3.432
 7994TIP3   OH223926   5.467   5.002   6.655
 7994TIP3    H123927   5.384   4.955   6.663
 7994TIP3    H223928   5.444   5.084   6.612
 7995TIP3   OH223929   0.549   4.089   1.527
 7995TIP3    H123930   0.506   4.169   1.496
 7995TIP3    H223931   0.528   4.023   1.461
 7996TIP3   OH223932   5.383   2.921   2.993
 7996TIP3    H123933   5.363   2.897   3.083
 7996TIP3    H223934   5.344   2.851   2.940
 7997TIP3   OH223935   1.764   2.045   3.742
 7997TIP3    H123936   1.706   2.027   3.668
 7997TIP3    H223937   1.709   2.092   3.804
 7998TIP3   OH223938   1.757   1.574   3.534
 7998TIP3    H123939   1.662   1.587   3.530
 7998TIP3    H223940   1.785   1.626   3.610
 7999TIP3   OH223941   4.569   3.823   3.015
 7999TIP3    H123942   4.603   3.846   3.102
 7999TIP3    H223943   4.476   3.810   3.028
 8000TIP3   OH223944   4.261   6.202   3.286
 8000TIP3    H123945   4.235   6.148   3.212
 8000TIP3    H223946   4.254   6.144   3.362
 8001TIP3   OH223947   0.620   3.325   1.995
 8001TIP3    H123948   0.630   3.400   2.055
 8001TIP3    H223949   0.688   3.263   2.024
 8002TIP3   OH223950   4.409   3.422   2.402
 8002TIP3    H123951   4.334   3.383   2.447
 8002TIP3    H223952   4.456   3.347   2.367
 8003TIP3   OH223953   4.105   1.264   0.054
 8003TIP3    H123954   4.046   1.231   0.122
 8003TIP3    H223955   4.165   1.191   0.038
 8004TIP3   OH223956   8.061   4.406   1.670
 8004TIP3    H123957   8.074   4.449   1.585
 8004TIP3    H223958   7.988   4.346   1.655
 8005TIP3   OH223959   5.937   1.023   4.509
 8005TIP3    H123960   5.971   1.047   4.595
 8005TIP3    H223961   6.011   1.038   4.449
 8006TIP3   OH223962   0.126   7.183   3.900
 8006TIP3    H123963   0.039   7.210   3.929
 8006TIP3    H223964   0.124   7.087   3.904
 8007TIP3   OH223965   7.980   6.894   5.103
 8007TIP3    H123966   8.041   6.902   5.177
 8007TIP3    H223967   8.036   6.871   5.028
 8008TIP3   OH223968   6.413   0.753   1.829
 8008TIP3    H123969   6.360   0.735   1.906
 8008TIP3    H223970   6.496   0.709   1.847
 8009TIP3   OH223971   3.232   7.523   2.984
 8009TIP3    H123972   3.258   7.604   2.940
 8009TIP3    H223973   3.314   7.482   3.009
 8010TIP3   OH223974   5.080   6.283   3.779
 8010TIP3    H123975   4.985   6.294   3.771
 8010TIP3    H223976   5.100   6.208   3.723
 8011TIP3   OH223977   6.237   3.741   6.460
 8011TIP3    H123978   6.215   3.767   6.549
 8011TIP3    H223979   6.332   3.738   6.457
 8012TIP3   OH223980   1.844   6.287   1.260
 8012TIP3    H123981   1.767   6.250   1.218
 8012TIP3    H223982   1.867   6.225   1.329
 8013TIP3   OH223983   0.755   6.739   1.304
 8013TIP3    H123984   0.693   6.666   1.295
 8013TIP3    H223985   0.817   6.709   1.370
 8014TIP3   OH223986   6.019   4.737   3.616
 8014TIP3    H123987   6.067   4.782   3.546
 8014TIP3    H223988   6.082   4.733   3.689
 8015TIP3   OH223989   7.909   2.635   0.916
 8015TIP3    H123990   7.876   2.552   0.950
 8015TIP3    H223991   7.848   2.658   0.845
 8016TIP3   OH223992   0.127   0.473   6.671
 8016TIP3    H123993   0.144   0.471   6.765
 8016TIP3    H223994   0.197   0.420   6.632
 8017TIP3   OH223995   4.778   5.840   0.192
 8017TIP3    H123996   4.746   5.930   0.186
 8017TIP3    H223997   4.793   5.826   0.285
 8018TIP3   OH223998   6.936   5.296   2.618
 8018TIP3    H123999   6.942   5.208   2.653
 8018TIP3    H224000   6.952   5.353   2.694
 8019TIP3   OH224001   0.038   4.695   5.629
 8019TIP3    H124002  -0.026   4.697   5.558
 8019TIP3    H224003   0.120   4.670   5.586
 8020TIP3   OH224004   1.434   0.385   0.179
 8020TIP3    H124005   1.423   0.472   0.217
 8020TIP3    H224006   1.359   0.375   0.121
 8021TIP3   OH224007   2.171   1.877   4.369
 8021TIP3    H124008   2.186   1.881   4.274
 8021TIP3    H224009   2.077   1.893   4.379
 8022TIP3   OH224010   4.099   1.003   4.491
 8022TIP3    H124011   4.016   0.969   4.459
 8022TIP3    H224012   4.075   1.074   4.551
 8023TIP3   OH224013   6.840   4.999   3.048
 8023TIP3    H124014   6.929   5.004   3.084
 8023TIP3    H224015   6.852   4.980   2.956
 8024TIP3   OH224016   3.694   6.288   0.178
 8024TIP3    H124017   3.730   6.291   0.089
 8024TIP3    H224018   3.751   6.227   0.225
 8025TIP3   OH224019   1.898   0.404   6.242
 8025TIP3    H124020   1.819   0.456   6.229
 8025TIP3    H224021   1.915   0.365   6.155
 8026TIP3   OH224022   2.369   3.473   2.448
 8026TIP3    H124023   2.354   3.400   2.508
 8026TIP3    H224024   2.464   3.486   2.449
 8027TIP3   OH224025   7.990   4.511   4.136
 8027TIP3    H124026   7.987   4.478   4.046
 8027TIP3    H224027   8.076   4.553   4.143
 8028TIP3   OH224028   2.420   7.667   5.177
 8028TIP3    H124029   2.459   7.713   5.251
 8028TIP3    H224030   2.472   7.588   5.167
 8029TIP3   OH224031   2.766   3.120   6.559
 8029TIP3    H124032   2.736   3.166   6.637
 8029TIP3    H224033   2.854   3.154   6.544
 8030TIP3   OH224034   5.826   1.629   4.716
 8030TIP3    H124035   5.885   1.701   4.694
 8030TIP3    H224036   5.791   1.600   4.631
 8031TIP3   OH224037   4.861   5.802   0.466
 8031TIP3    H124038   4.814   5.773   0.545
 8031TIP3    H224039   4.929   5.736   0.454
 8032TIP3   OH224040   0.274   1.240   5.539
 8032TIP3    H124041   0.328   1.220   5.462
 8032TIP3    H224042   0.203   1.294   5.504
 8033TIP3   OH224043   2.875   0.358   4.418
 8033TIP3    H124044   2.963   0.328   4.395
 8033TIP3    H224045   2.829   0.278   4.445
 8034TIP3   OH224046   2.029   6.190   5.280
 8034TIP3    H124047   2.073   6.185   5.195
 8034TIP3    H224048   2.071   6.264   5.324
 8035TIP3   OH224049   2.123   7.109   6.572
 8035TIP3    H124050   2.158   7.153   6.494
 8035TIP3    H224051   2.055   7.168   6.604
 8036TIP3   OH224052   5.356   2.752   6.135
 8036TIP3    H124053   5.294   2.767   6.063
 8036TIP3    H224054   5.366   2.839   6.176
 8037TIP3   OH224055   3.065   0.536   5.224
 8037TIP3    H124056   3.139   0.520   5.283
 8037TIP3    H224057   3.005   0.590   5.276
 8038TIP3   OH224058   2.796   4.064   1.148
 8038TIP3    H124059   2.833   3.987   1.105
 8038TIP3    H224060   2.761   4.117   1.077
 8039TIP3   OH224061   7.416   0.571   4.188
 8039TIP3    H124062   7.354   0.609   4.126
 8039TIP3    H224063   7.452   0.494   4.143
 8040TIP3   OH224064   5.391   0.887   2.994
 8040TIP3    H124065   5.459   0.866   3.058
 8040TIP3    H224066   5.412   0.975   2.964
 8041TIP3   OH224067   7.219   3.077   5.234
 8041TIP3    H124068   7.132   3.056   5.268
 8041TIP3    H224069   7.212   3.169   5.208
 8042TIP3   OH224070   1.949   0.111   3.389
 8042TIP3    H124071   1.875   0.085   3.444
 8042TIP3    H224072   2.021   0.126   3.451
 8043TIP3   OH224073   1.140   0.365   5.701
 8043TIP3    H124074   1.051   0.342   5.675
 8043TIP3    H224075   1.146   0.336   5.792
 8044TIP3   OH224076   2.227   2.264   0.082
 8044TIP3    H124077   2.213   2.338   0.023
 8044TIP3    H224078   2.314   2.230   0.058
 8045TIP3   OH224079   0.562   4.244   1.848
 8045TIP3    H124080   0.509   4.295   1.909
 8045TIP3    H224081   0.547   4.286   1.763
 8046TIP3   OH224082   1.552   5.749   5.105
 8046TIP3    H124083   1.540   5.679   5.170
 8046TIP3    H224084   1.466   5.759   5.065
 8047TIP3   OH224085   5.953   2.286   3.962
 8047TIP3    H124086   5.952   2.198   4.000
 8047TIP3    H224087   5.874   2.290   3.909
 8048TIP3   OH224088   0.193   0.851   1.187
 8048TIP3    H124089   0.226   0.762   1.172
 8048TIP3    H224090   0.105   0.850   1.148
 8049TIP3   OH224091   3.873   1.076   1.422
 8049TIP3    H124092   3.826   1.062   1.340
 8049TIP3    H224093   3.957   1.032   1.410
 8050TIP3   OH224094   7.796   4.356   5.224
 8050TIP3    H124095   7.753   4.304   5.292
 8050TIP3    H224096   7.745   4.339   5.145
 8051TIP3   OH224097   5.024   3.996   0.784
 8051TIP3    H124098   4.965   4.024   0.714
 8051TIP3    H224099   4.966   3.961   0.852
 8052TIP3   OH224100   2.407   2.141   0.964
 8052TIP3    H124101   2.405   2.197   0.886
 8052TIP3    H224102   2.412   2.201   1.037
 8053TIP3   OH224103   3.279   6.967   5.918
 8053TIP3    H124104   3.271   6.904   5.989
 8053TIP3    H224105   3.294   6.914   5.840
 8054TIP3   OH224106   4.827   5.992   2.980
 8054TIP3    H124107   4.827   6.039   2.897
 8054TIP3    H224108   4.907   6.022   3.025
 8055TIP3   OH224109   0.531   6.564   3.005
 8055TIP3    H124110   0.492   6.480   2.983
 8055TIP3    H224111   0.485   6.593   3.083
 8056TIP3   OH224112   1.615   7.639   5.669
 8056TIP3    H124113   1.683   7.687   5.717
 8056TIP3    H224114   1.609   7.554   5.713
 8057TIP3   OH224115   8.036   3.913   2.063
 8057TIP3    H124116   8.059   3.983   2.124
 8057TIP3    H224117   7.982   3.853   2.114
 8058TIP3   OH224118   3.824   0.585   1.054
 8058TIP3    H124119   3.872   0.641   0.994
 8058TIP3    H224120   3.877   0.583   1.133
 8059TIP3   OH224121   7.823   6.157   4.838
 8059TIP3    H124122   7.730   6.147   4.856
 8059TIP3    H224123   7.861   6.189   4.920
 8060TIP3   OH224124   5.125   3.807   4.573
 8060TIP3    H124125   5.078   3.804   4.657
 8060TIP3    H224126   5.184   3.882   4.581
 8061TIP3   OH224127   4.786   5.769   2.170
 8061TIP3    H124128   4.878   5.744   2.176
 8061TIP3    H224129   4.777   5.841   2.233
 8062TIP3   OH224130   5.054   3.145   2.135
 8062TIP3    H124131   5.079   3.119   2.224
 8062TIP3    H224132   5.136   3.136   2.085
 8063TIP3   OH224133   4.569   3.968   5.958
 8063TIP3    H124134   4.643   3.951   6.016
 8063TIP3    H224135   4.545   4.059   5.976
 8064TIP3   OH224136   5.034   0.586   2.365
 8064TIP3    H124137   5.075   0.519   2.311
 8064TIP3    H224138   5.078   0.668   2.341
 8065TIP3   OH224139   1.707   6.346   6.388
 8065TIP3    H124140   1.755   6.290   6.449
 8065TIP3    H224141   1.734   6.435   6.411
 8066TIP3   OH224142   7.244   6.126   1.034
 8066TIP3    H124143   7.300   6.156   1.105
 8066TIP3    H224144   7.260   6.188   0.963
 8067TIP3   OH224145   2.896   3.796   4.114
 8067TIP3    H124146   2.947   3.715   4.105
 8067TIP3    H224147   2.958   3.866   4.098
 8068TIP3   OH224148   2.419   6.653   0.398
 8068TIP3    H124149   2.380   6.661   0.485
 8068TIP3    H224150   2.347   6.673   0.337
 8069TIP3   OH224151   3.533   7.519   2.935
 8069TIP3    H124152   3.541   7.600   2.985
 8069TIP3    H224153   3.619   7.507   2.895
 8070TIP3   OH224154   2.729   2.708   3.581
 8070TIP3    H124155   2.663   2.648   3.545
 8070TIP3    H224156   2.801   2.651   3.609
 8071TIP3   OH224157   1.622   6.026   3.870
 8071TIP3    H124158   1.665   6.003   3.787
 8071TIP3    H224159   1.533   6.048   3.845
 8072TIP3   OH224160   1.568   4.138   3.496
 8072TIP3    H124161   1.653   4.127   3.454
 8072TIP3    H224162   1.516   4.064   3.466
 8073TIP3   OH224163   1.749   6.541   4.074
 8073TIP3    H124164   1.835   6.564   4.038
 8073TIP3    H224165   1.739   6.448   4.054
 8074TIP3   OH224166   8.137   2.993   4.053
 8074TIP3    H124167   8.149   2.898   4.047
 8074TIP3    H224168   8.062   3.011   3.996
 8075TIP3   OH224169   6.086   0.762   6.476
 8075TIP3    H124170   6.038   0.820   6.416
 8075TIP3    H224171   6.178   0.782   6.460
 8076TIP3   OH224172   4.160   0.701   3.100
 8076TIP3    H124173   4.215   0.729   3.174
 8076TIP3    H224174   4.091   0.768   3.095
 8077TIP3   OH224175   5.520   5.723   5.586
 8077TIP3    H124176   5.449   5.740   5.649
 8077TIP3    H224177   5.576   5.800   5.592
 8078TIP3   OH224178   5.806   5.751   4.050
 8078TIP3    H124179   5.719   5.726   4.080
 8078TIP3    H224180   5.858   5.671   4.055
 8079TIP3   OH224181   4.405   4.069   5.417
 8079TIP3    H124182   4.476   4.024   5.373
 8079TIP3    H224183   4.418   4.051   5.510
 8080TIP3   OH224184   2.865   6.109   1.455
 8080TIP3    H124185   2.770   6.109   1.470
 8080TIP3    H224186   2.902   6.073   1.536
 8081TIP3   OH224187   1.813   4.381   6.096
 8081TIP3    H124188   1.719   4.400   6.098
 8081TIP3    H224189   1.818   4.286   6.091
 8082TIP3   OH224190   0.498   3.367   0.428
 8082TIP3    H124191   0.418   3.385   0.478
 8082TIP3    H224192   0.485   3.280   0.391
 8083TIP3   OH224193   4.025   1.367   0.448
 8083TIP3    H124194   4.046   1.420   0.525
 8083TIP3    H224195   4.068   1.411   0.376
 8084TIP3   OH224196   0.848   5.151   6.036
 8084TIP3    H124197   0.802   5.100   5.969
 8084TIP3    H224198   0.939   5.153   6.007
 8085TIP3   OH224199   4.847   6.730   5.102
 8085TIP3    H124200   4.936   6.701   5.123
 8085TIP3    H224201   4.804   6.739   5.187
 8086TIP3   OH224202   1.938   2.396   1.762
 8086TIP3    H124203   1.948   2.434   1.674
 8086TIP3    H224204   2.028   2.384   1.793
 8087TIP3   OH224205   3.383   2.023   3.328
 8087TIP3    H124206   3.387   1.993   3.238
 8087TIP3    H224207   3.445   1.967   3.376
 8088TIP3   OH224208   7.126   2.909   2.885
 8088TIP3    H124209   7.175   2.846   2.939
 8088TIP3    H224210   7.034   2.896   2.910
 8089TIP3   OH224211   3.823   0.767   1.360
 8089TIP3    H124212   3.915   0.792   1.372
 8089TIP3    H224213   3.774   0.832   1.410
 8090TIP3   OH224214   5.356   7.587   1.897
 8090TIP3    H124215   5.288   7.538   1.942
 8090TIP3    H224216   5.360   7.671   1.943
 8091TIP3   OH224217   5.890   3.558   0.522
 8091TIP3    H124218   5.934   3.527   0.442
 8091TIP3    H224219   5.958   3.554   0.589
 8092TIP3   OH224220   6.192   6.566   0.138
 8092TIP3    H124221   6.106   6.591   0.173
 8092TIP3    H224222   6.194   6.606   0.051
 8093TIP3   OH224223   2.218   6.260   4.541
 8093TIP3    H124224   2.203   6.167   4.523
 8093TIP3    H224225   2.193   6.271   4.633
 8094TIP3   OH224226   0.838   5.651   4.062
 8094TIP3    H124227   0.918   5.608   4.033
 8094TIP3    H224228   0.841   5.645   4.157
 8095TIP3   OH224229   4.779   3.490   1.278
 8095TIP3    H124230   4.815   3.546   1.347
 8095TIP3    H224231   4.792   3.540   1.198
 8096TIP3   OH224232   3.103   2.163   0.623
 8096TIP3    H124233   3.139   2.076   0.636
 8096TIP3    H224234   3.101   2.202   0.711
 8097TIP3   OH224235   4.140   2.394   2.131
 8097TIP3    H124236   4.180   2.468   2.177
 8097TIP3    H224237   4.047   2.415   2.127
 8098TIP3   OH224238   3.033   2.367   4.745
 8098TIP3    H124239   3.065   2.315   4.671
 8098TIP3    H224240   2.938   2.351   4.745
 8099TIP3   OH224241   4.975   1.551   2.839
 8099TIP3    H124242   4.908   1.521   2.901
 8099TIP3    H224243   4.925   1.588   2.766
 8100TIP3   OH224244   4.665   6.810   0.304
 8100TIP3    H124245   4.689   6.892   0.260
 8100TIP3    H224246   4.579   6.789   0.269
 8101TIP3   OH224247   1.946   7.200   1.703
 8101TIP3    H124248   1.949   7.135   1.773
 8101TIP3    H224249   1.858   7.189   1.665
 8102TIP3   OH224250   2.637   3.147   5.299
 8102TIP3    H124251   2.668   3.219   5.245
 8102TIP3    H224252   2.683   3.070   5.265
 8103TIP3   OH224253   3.292   6.829   6.540
 8103TIP3    H124254   3.217   6.826   6.600
 8103TIP3    H224255   3.348   6.756   6.569
 8104TIP3   OH224256   5.266   4.570   4.909
 8104TIP3    H124257   5.311   4.631   4.851
 8104TIP3    H224258   5.283   4.484   4.871
 8105TIP3   OH224259   7.149   0.362   2.074
 8105TIP3    H124260   7.224   0.389   2.127
 8105TIP3    H224261   7.185   0.297   2.014
 8106TIP3   OH224262   2.818   5.919   3.582
 8106TIP3    H124263   2.742   5.909   3.638
 8106TIP3    H224264   2.815   5.843   3.523
 8107TIP3   OH224265   7.851   7.631   4.708
 8107TIP3    H124266   7.760   7.615   4.682
 8107TIP3    H224267   7.850   7.629   4.804
 8108TIP3   OH224268   3.144   0.408   3.951
 8108TIP3    H124269   3.078   0.368   4.008
 8108TIP3    H224270   3.177   0.336   3.898
 8109TIP3   OH224271   7.947   0.661   1.717
 8109TIP3    H124272   8.025   0.606   1.709
 8109TIP3    H224273   7.923   0.656   1.810
 8110TIP3   OH224274   7.871   4.627   1.566
 8110TIP3    H124275   7.938   4.564   1.593
 8110TIP3    H224276   7.825   4.585   1.494
 8111TIP3   OH224277   0.647   0.423   4.931
 8111TIP3    H124278   0.735   0.456   4.949
 8111TIP3    H224279   0.610   0.403   5.018
 8112TIP3   OH224280   6.851   1.648   5.717
 8112TIP3    H124281   6.772   1.619   5.762
 8112TIP3    H224282   6.923   1.617   5.773
 8113TIP3   OH224283   5.075   6.387   2.682
 8113TIP3    H124284   5.168   6.401   2.700
 8113TIP3    H224285   5.071   6.365   2.589
 8114TIP3   OH224286   1.285   0.484   3.878
 8114TIP3    H124287   1.248   0.561   3.922
 8114TIP3    H224288   1.259   0.410   3.934
 8115TIP3   OH224289   3.407   5.491   5.495
 8115TIP3    H124290   3.397   5.437   5.417
 8115TIP3    H224291   3.467   5.561   5.470
 8116TIP3   OH224292   0.955   1.910   6.264
 8116TIP3    H124293   0.866   1.902   6.299
 8116TIP3    H224294   0.993   1.983   6.313
 8117TIP3   OH224295   6.283   0.551   4.087
 8117TIP3    H124296   6.329   0.467   4.090
 8117TIP3    H224297   6.216   0.538   4.020
 8118TIP3   OH224298   5.887   2.346   5.855
 8118TIP3    H124299   5.798   2.312   5.859
 8118TIP3    H224300   5.881   2.435   5.890
 8119TIP3   OH224301   0.602   3.880   4.043
 8119TIP3    H124302   0.559   3.801   4.011
 8119TIP3    H224303   0.577   3.948   3.980
 8120TIP3   OH224304   1.804   6.169   0.302
 8120TIP3    H124305   1.792   6.120   0.220
 8120TIP3    H224306   1.757   6.251   0.288
 8121TIP3   OH224307   3.172   2.284   0.103
 8121TIP3    H124308   3.203   2.199   0.070
 8121TIP3    H224309   3.250   2.324   0.142
 8122TIP3   OH224310   8.108   4.370   2.044
 8122TIP3    H124311   8.097   4.295   1.986
 8122TIP3    H224312   8.061   4.441   2.001
 8123TIP3   OH224313   0.627   4.662   6.019
 8123TIP3    H124314   0.615   4.570   5.995
 8123TIP3    H224315   0.539   4.693   6.040
 8124TIP3   OH224316   6.274   2.905   5.328
 8124TIP3    H124317   6.320   2.821   5.333
 8124TIP3    H224318   6.339   2.966   5.293
 8125TIP3   OH224319   1.155   7.008   0.042
 8125TIP3    H124320   1.246   7.011   0.011
 8125TIP3    H224321   1.115   7.088   0.008
 8126TIP3   OH224322   2.183   7.137   3.940
 8126TIP3    H124323   2.202   7.112   4.031
 8126TIP3    H224324   2.093   7.108   3.926
 8127TIP3   OH224325   4.222   4.029   0.527
 8127TIP3    H124326   4.137   4.071   0.520
 8127TIP3    H224327   4.229   4.003   0.619
 8128TIP3   OH224328   8.121   0.462   1.993
 8128TIP3    H124329   8.164   0.497   1.915
 8128TIP3    H224330   8.112   0.537   2.051
 8129TIP3   OH224331   2.581   2.088   4.672
 8129TIP3    H124332   2.662   2.036   4.672
 8129TIP3    H224333   2.604   2.169   4.717
 8130TIP3   OH224334   4.277   4.466   2.895
 8130TIP3    H124335   4.287   4.387   2.842
 8130TIP3    H224336   4.210   4.517   2.850
 8131TIP3   OH224337   3.859   6.926   4.082
 8131TIP3    H124338   3.877   6.904   4.173
 8131TIP3    H224339   3.768   6.954   4.081
 8132TIP3   OH224340   4.894   1.114   1.333
 8132TIP3    H124341   4.988   1.124   1.341
 8132TIP3    H224342   4.869   1.174   1.263
 8133TIP3   OH224343   7.618   6.845   3.287
 8133TIP3    H124344   7.658   6.762   3.313
 8133TIP3    H224345   7.606   6.837   3.192
 8134TIP3   OH224346   4.473   0.634   4.197
 8134TIP3    H124347   4.559   0.631   4.155
 8134TIP3    H224348   4.437   0.719   4.172
 8135TIP3   OH224349   8.129   7.362   2.596
 8135TIP3    H124350   8.219   7.333   2.584
 8135TIP3    H224351   8.078   7.280   2.599
 8136TIP3   OH224352   4.414   4.537   1.708
 8136TIP3    H124353   4.480   4.549   1.777
 8136TIP3    H224354   4.458   4.485   1.641
 8137TIP3   OH224355   3.147   1.735   5.141
 8137TIP3    H124356   3.080   1.740   5.074
 8137TIP3    H224357   3.147   1.822   5.181
 8138TIP3   OH224358   7.726   0.565   1.289
 8138TIP3    H124359   7.687   0.540   1.373
 8138TIP3    H224360   7.767   0.650   1.306
 8139TIP3   OH224361   4.888   7.333   3.311
 8139TIP3    H124362   4.810   7.354   3.361
 8139TIP3    H224363   4.961   7.356   3.368
 8140TIP3   OH224364   0.870   5.623   0.345
 8140TIP3    H124365   0.841   5.623   0.254
 8140TIP3    H224366   0.791   5.634   0.396
 8141TIP3   OH224367   1.023   4.194   4.301
 8141TIP3    H124368   1.105   4.145   4.300
 8141TIP3    H224369   0.967   4.147   4.240
 8142TIP3   OH224370   5.916   7.597   0.463
 8142TIP3    H124371   5.905   7.509   0.425
 8142TIP3    H224372   5.987   7.587   0.527
 8143TIP3   OH224373   2.985   6.888   1.302
 8143TIP3    H124374   2.894   6.861   1.308
 8143TIP3    H224375   3.034   6.815   1.340
 8144TIP3   OH224376   5.820   7.320   6.671
 8144TIP3    H124377   5.725   7.323   6.688
 8144TIP3    H224378   5.829   7.348   6.580
 8145TIP3   OH224379   1.477   3.440   0.312
 8145TIP3    H124380   1.501   3.530   0.334
 8145TIP3    H224381   1.386   3.431   0.339
 8146TIP3   OH224382   6.554   1.091   4.563
 8146TIP3    H124383   6.637   1.104   4.517
 8146TIP3    H224384   6.486   1.114   4.500
 8147TIP3   OH224385   2.822   6.798   4.557
 8147TIP3    H124386   2.823   6.764   4.468
 8147TIP3    H224387   2.749   6.861   4.558
 8148TIP3   OH224388   8.329   4.887   2.766
 8148TIP3    H124389   8.290   4.909   2.850
 8148TIP3    H224390   8.259   4.901   2.702
 8149TIP3   OH224391   0.216   6.329   6.077
 8149TIP3    H124392   0.293   6.311   6.131
 8149TIP3    H224393   0.237   6.290   5.992
 8150TIP3   OH224394   6.545   3.012   6.166
 8150TIP3    H124395   6.584   2.930   6.196
 8150TIP3    H224396   6.462   3.017   6.213
 8151TIP3   OH224397   3.475   6.226   6.715
 8151TIP3    H124398   3.541   6.242   6.648
 8151TIP3    H224399   3.461   6.131   6.713
 8152TIP3   OH224400   2.450   6.332   5.153
 8152TIP3    H124401   2.538   6.356   5.125
 8152TIP3    H224402   2.393   6.357   5.080
 8153TIP3   OH224403   6.997   7.692   2.936
 8153TIP3    H124404   7.017   7.703   3.029
 8153TIP3    H224405   6.916   7.743   2.923
 8154TIP3   OH224406   5.562   4.256   5.045
 8154TIP3    H124407   5.480   4.305   5.050
 8154TIP3    H224408   5.609   4.279   5.125
 8155TIP3   OH224409   6.999   1.229   5.507
 8155TIP3    H124410   7.053   1.279   5.569
 8155TIP3    H224411   6.973   1.293   5.442
 8156TIP3   OH224412   0.870   1.267   1.815
 8156TIP3    H124413   0.816   1.265   1.736
 8156TIP3    H224414   0.814   1.305   1.882
 8157TIP3   OH224415   2.083   1.956   0.888
 8157TIP3    H124416   1.992   1.927   0.879
 8157TIP3    H224417   2.114   1.967   0.798
 8158TIP3   OH224418   6.983   4.519   2.636
 8158TIP3    H124419   7.077   4.539   2.636
 8158TIP3    H224420   6.974   4.446   2.698
 8159TIP3   OH224421   3.884   1.204   3.466
 8159TIP3    H124422   3.835   1.271   3.513
 8159TIP3    H224423   3.960   1.186   3.522
 8160TIP3   OH224424   0.433   1.285   5.744
 8160TIP3    H124425   0.446   1.380   5.742
 8160TIP3    H224426   0.371   1.268   5.673
 8161TIP3   OH224427   1.546   2.539   2.363
 8161TIP3    H124428   1.573   2.472   2.425
 8161TIP3    H224429   1.553   2.497   2.277
 8162TIP3   OH224430   4.488   5.257   4.808
 8162TIP3    H124431   4.531   5.333   4.847
 8162TIP3    H224432   4.533   5.245   4.724
 8163TIP3   OH224433   1.041   4.663   3.541
 8163TIP3    H124434   1.034   4.759   3.540
 8163TIP3    H224435   0.951   4.632   3.542
 8164TIP3   OH224436   4.310   1.862   6.329
 8164TIP3    H124437   4.223   1.829   6.349
 8164TIP3    H224438   4.295   1.938   6.273
 8165TIP3   OH224439   5.108   7.020   5.575
 8165TIP3    H124440   5.077   7.048   5.662
 8165TIP3    H224441   5.095   7.097   5.520
 8166TIP3   OH224442   7.683   6.324   4.166
 8166TIP3    H124443   7.674   6.254   4.231
 8166TIP3    H224444   7.628   6.395   4.199
 8167TIP3   OH224445   0.090   0.979   1.439
 8167TIP3    H124446   0.156   0.911   1.423
 8167TIP3    H224447   0.042   0.948   1.515
 8168TIP3   OH224448   7.696   5.790   3.181
 8168TIP3    H124449   7.601   5.791   3.190
 8168TIP3    H224450   7.727   5.858   3.240
 8169TIP3   OH224451   6.220   0.747   2.005
 8169TIP3    H124452   6.214   0.714   2.095
 8169TIP3    H224453   6.145   0.806   1.996
 8170TIP3   OH224454   2.578   0.917   0.691
 8170TIP3    H124455   2.506   0.965   0.733
 8170TIP3    H224456   2.576   0.831   0.734
 8171TIP3   OH224457   3.356   2.552   2.444
 8171TIP3    H124458   3.306   2.609   2.503
 8171TIP3    H224459   3.445   2.552   2.480
 8172TIP3   OH224460   5.363   2.671   1.791
 8172TIP3    H124461   5.297   2.683   1.722
 8172TIP3    H224462   5.340   2.736   1.857
 8173TIP3   OH224463   3.287   4.866   1.032
 8173TIP3    H124464   3.258   4.775   1.028
 8173TIP3    H224465   3.239   4.909   0.962
 8174TIP3   OH224466   0.017   3.007   6.367
 8174TIP3    H124467  -0.062   3.061   6.358
 8174TIP3    H224468   0.020   2.954   6.287
 8175TIP3   OH224469   3.024   2.658   5.490
 8175TIP3    H124470   3.011   2.733   5.548
 8175TIP3    H224471   3.024   2.583   5.549
 8176TIP3   OH224472   4.531   3.947   4.985
 8176TIP3    H124473   4.623   3.965   5.008
 8176TIP3    H224474   4.533   3.861   4.943
 8177TIP3   OH224475   6.710   6.208   3.837
 8177TIP3    H124476   6.677   6.297   3.843
 8177TIP3    H224477   6.753   6.203   3.752
 8178TIP3   OH224478   5.163   0.255   5.745
 8178TIP3    H124479   5.087   0.219   5.699
 8178TIP3    H224480   5.127   0.303   5.819
 8179TIP3   OH224481   1.670   2.852   0.167
 8179TIP3    H124482   1.724   2.929   0.150
 8179TIP3    H224483   1.643   2.861   0.258
 8180TIP3   OH224484   7.047   7.035   2.437
 8180TIP3    H124485   7.020   6.944   2.451
 8180TIP3    H224486   7.000   7.062   2.358
 8181TIP3   OH224487   2.003   2.962   2.630
 8181TIP3    H124488   1.928   3.022   2.623
 8181TIP3    H224489   2.061   3.004   2.693
 8182TIP3   OH224490   3.975   7.321   4.447
 8182TIP3    H124491   3.940   7.240   4.484
 8182TIP3    H224492   4.033   7.355   4.515
 8183TIP3   OH224493   2.046   1.839   5.487
 8183TIP3    H124494   1.972   1.792   5.526
 8183TIP3    H224495   2.056   1.918   5.540
 8184TIP3   OH224496   4.341   4.214   6.585
 8184TIP3    H124497   4.349   4.236   6.492
 8184TIP3    H224498   4.432   4.207   6.615
 8185TIP3   OH224499   7.698   3.063   5.672
 8185TIP3    H124500   7.649   3.030   5.596
 8185TIP3    H224501   7.732   3.148   5.643
 8186TIP3   OH224502   1.744   4.740   6.285
 8186TIP3    H124503   1.828   4.729   6.329
 8186TIP3    H224504   1.766   4.765   6.195
 8187TIP3   OH224505   3.041   7.529   4.126
 8187TIP3    H124506   3.125   7.539   4.081
 8187TIP3    H224507   3.014   7.440   4.107
 8188TIP3   OH224508   4.099   0.744   0.574
 8188TIP3    H124509   4.065   0.656   0.593
 8188TIP3    H224510   4.051   0.801   0.633
 8189TIP3   OH224511   4.821   2.102   5.465
 8189TIP3    H124512   4.827   2.012   5.499
 8189TIP3    H224513   4.727   2.122   5.468
 8190TIP3   OH224514   4.057   1.827   0.411
 8190TIP3    H124515   3.997   1.900   0.398
 8190TIP3    H224516   4.144   1.864   0.399
 8191TIP3   OH224517   4.668   3.764   4.122
 8191TIP3    H124518   4.749   3.720   4.096
 8191TIP3    H224519   4.698   3.845   4.165
 8192TIP3   OH224520   5.784   3.233   4.602
 8192TIP3    H124521   5.807   3.310   4.550
 8192TIP3    H224522   5.843   3.236   4.677
 8193TIP3   OH224523   3.554   2.547   2.963
 8193TIP3    H124524   3.649   2.549   2.979
 8193TIP3    H224525   3.536   2.627   2.914
 8194TIP3   OH224526   7.219   0.450   6.128
 8194TIP3    H124527   7.239   0.498   6.048
 8194TIP3    H224528   7.132   0.414   6.113
 8195TIP3   OH224529   1.736   0.885   0.900
 8195TIP3    H124530   1.707   0.903   0.990
 8195TIP3    H224531   1.658   0.851   0.856
 8196TIP3   OH224532   0.917   6.269   2.223
 8196TIP3    H124533   0.854   6.336   2.248
 8196TIP3    H224534   0.995   6.290   2.274
 8197TIP3   OH224535   5.695   3.024   0.202
 8197TIP3    H124536   5.775   3.073   0.185
 8197TIP3    H224537   5.683   2.969   0.124
 8198TIP3   OH224538   5.560   7.694   2.342
 8198TIP3    H124539   5.620   7.769   2.339
 8198TIP3    H224540   5.617   7.618   2.333
 8199TIP3   OH224541   2.422   6.382   0.633
 8199TIP3    H124542   2.343   6.338   0.664
 8199TIP3    H224543   2.393   6.470   0.610
 8200TIP3   OH224544   0.117   2.756   6.508
 8200TIP3    H124545   0.059   2.833   6.509
 8200TIP3    H224546   0.057   2.682   6.503
 8201TIP3   OH224547   5.612   4.729   1.024
 8201TIP3    H124548   5.564   4.809   1.046
 8201TIP3    H224549   5.553   4.681   0.966
 8202TIP3   OH224550   2.188   3.726   5.720
 8202TIP3    H124551   2.237   3.808   5.725
 8202TIP3    H224552   2.169   3.704   5.811
 8203TIP3   OH224553   5.679   0.828   1.515
 8203TIP3    H124554   5.685   0.736   1.489
 8203TIP3    H224555   5.620   0.867   1.451
 8204TIP3   OH224556   0.893   1.534   6.084
 8204TIP3    H124557   0.964   1.573   6.134
 8204TIP3    H224558   0.852   1.607   6.039
 8205TIP3   OH224559   6.954   3.423   6.774
 8205TIP3    H124560   6.930   3.432   6.866
 8205TIP3    H224561   6.907   3.493   6.730
 8206TIP3   OH224562   0.874   5.201   3.343
 8206TIP3    H124563   0.796   5.230   3.295
 8206TIP3    H224564   0.841   5.163   3.424
 8207TIP3   OH224565   1.324   6.794   3.757
 8207TIP3    H124566   1.326   6.839   3.842
 8207TIP3    H224567   1.357   6.859   3.695
 8208TIP3   OH224568   8.039   4.527   0.451
 8208TIP3    H124569   8.120   4.561   0.489
 8208TIP3    H224570   8.068   4.474   0.377
 8209TIP3   OH224571   1.486   2.200   5.017
 8209TIP3    H124572   1.397   2.174   4.991
 8209TIP3    H224573   1.500   2.156   5.101
 8210TIP3   OH224574   2.161   7.167   2.362
 8210TIP3    H124575   2.106   7.241   2.336
 8210TIP3    H224576   2.130   7.094   2.307
 8211TIP3   OH224577   3.785   3.133   2.017
 8211TIP3    H124578   3.774   3.166   2.106
 8211TIP3    H224579   3.723   3.184   1.965
 8212TIP3   OH224580   7.079   0.457   5.635
 8212TIP3    H124581   7.086   0.363   5.622
 8212TIP3    H224582   7.000   0.483   5.586
 8213TIP3   OH224583   5.179   5.380   5.745
 8213TIP3    H124584   5.153   5.298   5.788
 8213TIP3    H224585   5.153   5.369   5.654
 8214TIP3   OH224586   0.855   5.897   0.917
 8214TIP3    H124587   0.884   5.933   1.001
 8214TIP3    H224588   0.878   5.964   0.853
 8215TIP3   OH224589   0.524   0.860   3.051
 8215TIP3    H124590   0.432   0.860   3.024
 8215TIP3    H224591   0.566   0.796   2.993
 8216TIP3   OH224592   3.114   1.241   0.972
 8216TIP3    H124593   3.179   1.180   0.937
 8216TIP3    H224594   3.154   1.327   0.959
 8217TIP3   OH224595   3.749   2.841   3.612
 8217TIP3    H124596   3.721   2.931   3.622
 8217TIP3    H224597   3.737   2.821   3.519
 8218TIP3   OH224598   1.704   6.213   1.818
 8218TIP3    H124599   1.700   6.163   1.737
 8218TIP3    H224600   1.658   6.158   1.882
 8219TIP3   OH224601   5.668   1.341   0.436
 8219TIP3    H124602   5.755   1.302   0.442
 8219TIP3    H224603   5.677   1.428   0.474
 8220TIP3   OH224604   8.017   4.071   4.091
 8220TIP3    H124605   8.101   4.116   4.092
 8220TIP3    H224606   7.961   4.125   4.035
 8221TIP3   OH224607   0.808   5.844   6.482
 8221TIP3    H124608   0.825   5.892   6.564
 8221TIP3    H224609   0.895   5.832   6.443
 8222TIP3   OH224610   6.527   5.562   5.604
 8222TIP3    H124611   6.524   5.596   5.515
 8222TIP3    H224612   6.465   5.489   5.604
 8223TIP3   OH224613   4.585   5.966   5.013
 8223TIP3    H124614   4.533   6.026   5.066
 8223TIP3    H224615   4.663   5.948   5.066
 8224TIP3   OH224616   0.476   5.278   3.862
 8224TIP3    H124617   0.566   5.311   3.869
 8224TIP3    H224618   0.445   5.313   3.778
 8225TIP3   OH224619   7.827   4.147   5.801
 8225TIP3    H124620   7.757   4.084   5.818
 8225TIP3    H224621   7.822   4.208   5.875
 8226TIP3   OH224622   6.364   6.894   2.206
 8226TIP3    H124623   6.436   6.853   2.157
 8226TIP3    H224624   6.311   6.821   2.236
 8227TIP3   OH224625   5.802   6.425   5.885
 8227TIP3    H124626   5.862   6.497   5.865
 8227TIP3    H224627   5.858   6.347   5.888
 8228TIP3   OH224628   3.059   2.208   1.968
 8228TIP3    H124629   3.072   2.119   1.936
 8228TIP3    H224630   3.099   2.209   2.054
 8229TIP3   OH224631   0.143   1.827   5.153
 8229TIP3    H124632   0.087   1.757   5.187
 8229TIP3    H224633   0.192   1.785   5.081
 8230TIP3   OH224634   5.663   2.279   6.294
 8230TIP3    H124635   5.744   2.314   6.256
 8230TIP3    H224636   5.609   2.255   6.219
 8231TIP3   OH224637   2.158   2.344   2.354
 8231TIP3    H124638   2.242   2.390   2.345
 8231TIP3    H224639   2.175   2.279   2.422
 8232TIP3   OH224640   2.916   6.409   4.520
 8232TIP3    H124641   2.845   6.392   4.581
 8232TIP3    H224642   2.886   6.372   4.437
 8233TIP3   OH224643   0.312   5.885   3.802
 8233TIP3    H124644   0.288   5.892   3.894
 8233TIP3    H224645   0.295   5.972   3.766
 8234TIP3   OH224646   1.547   0.392   2.719
 8234TIP3    H124647   1.634   0.431   2.721
 8234TIP3    H224648   1.490   0.462   2.687
 8235TIP3   OH224649   0.331   6.163   2.165
 8235TIP3    H124650   0.300   6.246   2.128
 8235TIP3    H224651   0.425   6.162   2.147
 8236TIP3   OH224652   3.256   4.399   6.158
 8236TIP3    H124653   3.283   4.308   6.168
 8236TIP3    H224654   3.336   4.446   6.135
 8237TIP3   OH224655   8.017   6.298   1.312
 8237TIP3    H124656   8.063   6.222   1.350
 8237TIP3    H224657   8.036   6.370   1.372
 8238TIP3   OH224658   3.536   0.347   0.678
 8238TIP3    H124659   3.497   0.433   0.662
 8238TIP3    H224660   3.508   0.324   0.766
 8239TIP3   OH224661   1.187   4.201   0.238
 8239TIP3    H124662   1.095   4.204   0.263
 8239TIP3    H224663   1.192   4.257   0.161
 8240TIP3   OH224664   7.023   1.726   4.933
 8240TIP3    H124665   7.070   1.759   4.856
 8240TIP3    H224666   6.959   1.795   4.953
 8241TIP3   OH224667   3.290   3.876   6.124
 8241TIP3    H124668   3.222   3.813   6.147
 8241TIP3    H224669   3.299   3.868   6.029
 8242TIP3   OH224670   6.795   2.551   5.981
 8242TIP3    H124671   6.718   2.608   5.990
 8242TIP3    H224672   6.804   2.510   6.067
 8243TIP3   OH224673   6.739   1.180   3.438
 8243TIP3    H124674   6.791   1.196   3.360
 8243TIP3    H224675   6.758   1.089   3.461
 8244TIP3   OH224676   5.816   0.627   2.439
 8244TIP3    H124677   5.828   0.550   2.494
 8244TIP3    H224678   5.804   0.591   2.350
 8245TIP3   OH224679   1.333   3.744   1.913
 8245TIP3    H124680   1.389   3.816   1.883
 8245TIP3    H224681   1.352   3.738   2.007
 8246TIP3   OH224682   5.340   6.689   1.039
 8246TIP3    H124683   5.332   6.683   0.943
 8246TIP3    H224684   5.293   6.612   1.072
 8247TIP3   OH224685   7.456   6.431   2.267
 8247TIP3    H124686   7.480   6.517   2.301
 8247TIP3    H224687   7.371   6.444   2.226
 8248TIP3   OH224688   7.085   5.358   3.574
 8248TIP3    H124689   7.166   5.311   3.551
 8248TIP3    H224690   7.095   5.444   3.532
 8249TIP3   OH224691   6.880   0.506   3.407
 8249TIP3    H124692   6.833   0.549   3.337
 8249TIP3    H224693   6.818   0.503   3.480
 8250TIP3   OH224694   2.310   1.305   0.698
 8250TIP3    H124695   2.297   1.341   0.611
 8250TIP3    H224696   2.253   1.357   0.755
 8251TIP3   OH224697   6.802   2.254   5.555
 8251TIP3    H124698   6.809   2.243   5.649
 8251TIP3    H224699   6.806   2.348   5.541
 8252TIP3   OH224700   8.265   7.452   1.830
 8252TIP3    H124701   8.186   7.439   1.776
 8252TIP3    H224702   8.305   7.365   1.834
 8253TIP3   OH224703   0.660   6.357   0.241
 8253TIP3    H124704   0.755   6.361   0.250
 8253TIP3    H224705   0.640   6.423   0.174
 8254TIP3   OH224706   2.382   2.677   3.433
 8254TIP3    H124707   2.374   2.656   3.340
 8254TIP3    H224708   2.422   2.599   3.472
 8255TIP3   OH224709   1.900   0.723   0.068
 8255TIP3    H124710   1.952   0.646   0.045
 8255TIP3    H224711   1.956   0.773   0.127
 8256TIP3   OH224712   7.471   4.670   0.198
 8256TIP3    H124713   7.555   4.716   0.206
 8256TIP3    H224714   7.466   4.645   0.106
 8257TIP3   OH224715   1.526   7.124   5.271
 8257TIP3    H124716   1.586   7.195   5.248
 8257TIP3    H224717   1.578   7.045   5.266
 8258TIP3   OH224718   8.004   1.064   3.951
 8258TIP3    H124719   7.924   1.035   3.908
 8258TIP3    H224720   8.006   1.017   4.034
 8259TIP3   OH224721   2.875   6.269   1.702
 8259TIP3    H124722   2.831   6.217   1.770
 8259TIP3    H224723   2.804   6.310   1.654
 8260TIP3   OH224724   7.652   0.661   6.115
 8260TIP3    H124725   7.636   0.756   6.122
 8260TIP3    H224726   7.701   0.638   6.194
 8261TIP3   OH224727   3.051   4.152   4.487
 8261TIP3    H124728   2.996   4.230   4.487
 8261TIP3    H224729   3.073   4.138   4.395
 8262TIP3   OH224730   3.610   1.337   4.584
 8262TIP3    H124731   3.603   1.258   4.637
 8262TIP3    H224732   3.645   1.403   4.645
 8263TIP3   OH224733   1.420   2.832   3.767
 8263TIP3    H124734   1.471   2.901   3.725
 8263TIP3    H224735   1.442   2.840   3.860
 8264TIP3   OH224736   4.711   1.483   2.675
 8264TIP3    H124737   4.718   1.572   2.640
 8264TIP3    H224738   4.771   1.431   2.621
 8265TIP3   OH224739   2.395   3.924   0.263
 8265TIP3    H124740   2.419   3.889   0.349
 8265TIP3    H224741   2.474   3.967   0.231
 8266TIP3   OH224742   3.193   4.718   5.056
 8266TIP3    H124743   3.220   4.670   4.978
 8266TIP3    H224744   3.161   4.802   5.022
 8267TIP3   OH224745   6.030   3.524   0.299
 8267TIP3    H124746   6.079   3.508   0.219
 8267TIP3    H224747   5.971   3.596   0.278
 8268TIP3   OH224748   8.251   5.910   2.607
 8268TIP3    H124749   8.323   5.941   2.662
 8268TIP3    H224750   8.176   5.965   2.631
 8269TIP3   OH224751   2.389   7.449   5.604
 8269TIP3    H124752   2.405   7.367   5.652
 8269TIP3    H224753   2.446   7.443   5.527
 8270TIP3   OH224754   0.135   5.365   3.041
 8270TIP3    H124755   0.057   5.414   3.013
 8270TIP3    H224756   0.176   5.421   3.107
 8271TIP3   OH224757   4.135   2.336   3.214
 8271TIP3    H124758   4.046   2.343   3.180
 8271TIP3    H224759   4.145   2.244   3.238
 8272TIP3   OH224760   1.120   3.332   2.605
 8272TIP3    H124761   1.210   3.310   2.580
 8272TIP3    H224762   1.077   3.247   2.616
 8273TIP3   OH224763   1.986   2.530   3.670
 8273TIP3    H124764   1.929   2.477   3.614
 8273TIP3    H224765   2.013   2.470   3.740
 8274TIP3   OH224766   2.724   1.110   0.256
 8274TIP3    H124767   2.686   1.039   0.204
 8274TIP3    H224768   2.751   1.067   0.337
 8275TIP3   OH224769   1.141   0.579   0.821
 8275TIP3    H124770   1.078   0.626   0.766
 8275TIP3    H224771   1.197   0.533   0.759
 8276TIP3   OH224772   4.877   2.370   5.525
 8276TIP3    H124773   4.877   2.274   5.533
 8276TIP3    H224774   4.800   2.389   5.472
 8277TIP3   OH224775   3.451   6.400   0.060
 8277TIP3    H124776   3.454   6.481   0.010
 8277TIP3    H224777   3.543   6.382   0.082
 8278TIP3   OH224778   1.787   3.226   6.199
 8278TIP3    H124779   1.864   3.183   6.163
 8278TIP3    H224780   1.716   3.163   6.186
 8279TIP3   OH224781   5.094   3.002   5.886
 8279TIP3    H124782   5.163   3.030   5.825
 8279TIP3    H224783   5.126   2.918   5.921
 8280TIP3   OH224784   7.677   3.853   5.107
 8280TIP3    H124785   7.746   3.879   5.169
 8280TIP3    H224786   7.724   3.827   5.028
 8281TIP3   OH224787   7.390   3.241   1.581
 8281TIP3    H124788   7.401   3.289   1.499
 8281TIP3    H224789   7.305   3.271   1.615
 8282TIP3   OH224790   7.923   7.759   1.940
 8282TIP3    H124791   7.907   7.853   1.927
 8282TIP3    H224792   7.917   7.721   1.853
 8283TIP3   OH224793   0.876   0.783   4.919
 8283TIP3    H124794   0.876   0.834   5.000
 8283TIP3    H224795   0.917   0.700   4.944
 8284TIP3   OH224796   4.436   6.749   0.678
 8284TIP3    H124797   4.421   6.843   0.685
 8284TIP3    H224798   4.430   6.731   0.585
 8285TIP3   OH224799   0.897   6.020   1.162
 8285TIP3    H124800   0.823   5.987   1.212
 8285TIP3    H224801   0.974   5.978   1.201
 8286TIP3   OH224802   0.355   1.614   5.244
 8286TIP3    H124803   0.334   1.701   5.209
 8286TIP3    H224804   0.295   1.555   5.197
 8287TIP3   OH224805   6.085   1.239   4.016
 8287TIP3    H124806   6.083   1.296   3.940
 8287TIP3    H224807   5.999   1.251   4.057
 8288TIP3   OH224808   2.098   5.164   5.653
 8288TIP3    H124809   2.091   5.223   5.727
 8288TIP3    H224810   2.150   5.090   5.686
 8289TIP3   OH224811   3.495   1.706   6.178
 8289TIP3    H124812   3.555   1.632   6.191
 8289TIP3    H224813   3.552   1.778   6.150
 8290TIP3   OH224814   0.104   6.156   2.904
 8290TIP3    H124815   0.080   6.149   2.812
 8290TIP3    H224816   0.169   6.086   2.917
 8291TIP3   OH224817   8.313   4.376   1.790
 8291TIP3    H124818   8.331   4.460   1.832
 8291TIP3    H224819   8.234   4.391   1.738
 8292TIP3   OH224820   6.303   0.791   3.434
 8292TIP3    H124821   6.263   0.706   3.413
 8292TIP3    H224822   6.397   0.773   3.437
 8293TIP3   OH224823   3.563   4.993   1.160
 8293TIP3    H124824   3.478   4.998   1.116
 8293TIP3    H224825   3.546   4.943   1.240
 8294TIP3   OH224826   5.672   2.904   0.932
 8294TIP3    H124827   5.742   2.966   0.954
 8294TIP3    H224828   5.616   2.904   1.010
 8295TIP3   OH224829   7.987   1.244   0.741
 8295TIP3    H124830   8.046   1.299   0.792
 8295TIP3    H224831   8.044   1.189   0.688
 8296TIP3   OH224832   5.943   5.286   1.977
 8296TIP3    H124833   5.942   5.231   1.898
 8296TIP3    H224834   5.862   5.337   1.971
 8297TIP3   OH224835   4.848   3.690   4.843
 8297TIP3    H124836   4.878   3.729   4.925
 8297TIP3    H224837   4.863   3.596   4.854
 8298TIP3   OH224838   2.137   5.541   5.887
 8298TIP3    H124839   2.041   5.542   5.884
 8298TIP3    H224840   2.164   5.566   5.798
 8299TIP3   OH224841   0.159   4.084   6.559
 8299TIP3    H124842   0.185   4.023   6.628
 8299TIP3    H224843   0.201   4.050   6.480
 8300TIP3   OH224844   4.133   1.931   6.718
 8300TIP3    H124845   4.126   1.992   6.792
 8300TIP3    H224846   4.098   1.849   6.751
 8301TIP3   OH224847   4.199   0.354   5.475
 8301TIP3    H124848   4.149   0.404   5.538
 8301TIP3    H224849   4.144   0.351   5.397
 8302TIP3   OH224850   5.701   1.963   5.396
 8302TIP3    H124851   5.638   2.029   5.427
 8302TIP3    H224852   5.691   1.964   5.301
 8303TIP3   OH224853   7.220   4.867   6.138
 8303TIP3    H124854   7.240   4.775   6.151
 8303TIP3    H224855   7.275   4.914   6.200
 8304TIP3   OH224856   7.612   2.469   0.311
 8304TIP3    H124857   7.640   2.399   0.369
 8304TIP3    H224858   7.536   2.433   0.265
 8305TIP3   OH224859   0.896   6.818   6.690
 8305TIP3    H124860   0.847   6.778   6.761
 8305TIP3    H224861   0.964   6.870   6.733
 8306TIP3   OH224862   4.189   3.344   4.125
 8306TIP3    H124863   4.218   3.429   4.159
 8306TIP3    H224864   4.261   3.316   4.068
 8307TIP3   OH224865   5.747   0.618   3.376
 8307TIP3    H124866   5.721   0.625   3.284
 8307TIP3    H224867   5.822   0.677   3.384
 8308TIP3   OH224868   7.297   4.731   0.414
 8308TIP3    H124869   7.343   4.812   0.436
 8308TIP3    H224870   7.344   4.696   0.338
 8309TIP3   OH224871   8.132   0.610   5.898
 8309TIP3    H124872   8.200   0.630   5.834
 8309TIP3    H224873   8.109   0.518   5.882
 8310TIP3   OH224874   4.702   7.712   5.459
 8310TIP3    H124875   4.659   7.629   5.478
 8310TIP3    H224876   4.795   7.693   5.464
 8311TIP3   OH224877   7.752   4.654   3.265
 8311TIP3    H124878   7.704   4.596   3.207
 8311TIP3    H224879   7.842   4.622   3.262
 8312TIP3   OH224880   7.599   7.245   3.309
 8312TIP3    H124881   7.530   7.184   3.282
 8312TIP3    H224882   7.561   7.332   3.299
 8313TIP3   OH224883   4.714   5.236   0.731
 8313TIP3    H124884   4.769   5.194   0.664
 8313TIP3    H224885   4.626   5.231   0.695
 8314TIP3   OH224886   5.731   2.281   3.773
 8314TIP3    H124887   5.757   2.190   3.760
 8314TIP3    H224888   5.759   2.325   3.693
 8315TIP3   OH224889   7.371   4.062   5.602
 8315TIP3    H124890   7.428   4.077   5.527
 8315TIP3    H224891   7.293   4.115   5.584
 8316TIP3   OH224892   6.542   7.145   0.463
 8316TIP3    H124893   6.555   7.083   0.391
 8316TIP3    H224894   6.559   7.231   0.425
 8317TIP3   OH224895   3.310   0.272   1.319
 8317TIP3    H124896   3.395   0.303   1.289
 8317TIP3    H224897   3.301   0.185   1.280
 8318TIP3   OH224898   1.647   1.902   5.616
 8318TIP3    H124899   1.562   1.944   5.630
 8318TIP3    H224900   1.701   1.930   5.689
 8319TIP3   OH224901   6.592   4.570   2.745
 8319TIP3    H124902   6.585   4.647   2.688
 8319TIP3    H224903   6.638   4.602   2.822
 8320TIP3   OH224904   5.205   4.218   6.000
 8320TIP3    H124905   5.203   4.266   5.917
 8320TIP3    H224906   5.155   4.272   6.060
 8321TIP3   OH224907   0.723   0.299   3.055
 8321TIP3    H124908   0.759   0.225   3.105
 8321TIP3    H224909   0.711   0.368   3.121
 8322TIP3   OH224910   0.803   4.648   4.022
 8322TIP3    H124911   0.728   4.703   3.999
 8322TIP3    H224912   0.764   4.562   4.041
 8323TIP3   OH224913   3.740   3.015   5.446
 8323TIP3    H124914   3.678   2.991   5.378
 8323TIP3    H224915   3.695   2.993   5.528
 8324TIP3   OH224916   2.181   7.078   1.166
 8324TIP3    H124917   2.233   7.040   1.236
 8324TIP3    H224918   2.245   7.125   1.111
 8325TIP3   OH224919   6.898   7.391   5.549
 8325TIP3    H124920   6.979   7.423   5.589
 8325TIP3    H224921   6.924   7.312   5.501
 8326TIP3   OH224922   1.113   0.977   2.663
 8326TIP3    H124923   1.055   1.053   2.665
 8326TIP3    H224924   1.166   0.989   2.584
 8327TIP3   OH224925   6.128   3.434   6.560
 8327TIP3    H124926   6.204   3.397   6.514
 8327TIP3    H224927   6.166   3.500   6.619
 8328TIP3   OH224928   2.849   6.921   2.709
 8328TIP3    H124929   2.767   6.902   2.663
 8328TIP3    H224930   2.827   6.992   2.769
 8329TIP3   OH224931   7.327   1.630   1.411
 8329TIP3    H124932   7.391   1.701   1.406
 8329TIP3    H224933   7.242   1.674   1.408
 8330TIP3   OH224934   2.888   6.337   4.252
 8330TIP3    H124935   2.866   6.306   4.164
 8330TIP3    H224936   2.978   6.307   4.266
 8331TIP3   OH224937   1.982   0.821   2.043
 8331TIP3    H124938   1.969   0.729   2.020
 8331TIP3    H224939   1.927   0.870   1.981
 8332TIP3   OH224940   1.827   2.129   1.856
 8332TIP3    H124941   1.912   2.108   1.817
 8332TIP3    H224942   1.838   2.219   1.889
 8333TIP3   OH224943   3.492   3.701   5.267
 8333TIP3    H124944   3.560   3.634   5.255
 8333TIP3    H224945   3.512   3.766   5.199
 8334TIP3   OH224946   0.757   0.451   2.835
 8334TIP3    H124947   0.724   0.393   2.767
 8334TIP3    H224948   0.744   0.402   2.916
 8335TIP3   OH224949   7.358   6.025   4.995
 8335TIP3    H124950   7.372   6.062   5.082
 8335TIP3    H224951   7.352   5.930   5.010
 8336TIP3   OH224952   7.697   4.221   0.158
 8336TIP3    H124953   7.767   4.254   0.102
 8336TIP3    H224954   7.711   4.266   0.242
 8337TIP3   OH224955   3.604   3.525   5.026
 8337TIP3    H124956   3.545   3.454   5.048
 8337TIP3    H224957   3.565   3.566   4.948
 8338TIP3   OH224958   4.309   1.505   0.974
 8338TIP3    H124959   4.311   1.574   1.040
 8338TIP3    H224960   4.369   1.535   0.906
 8339TIP3   OH224961   7.174   3.702   6.050
 8339TIP3    H124962   7.137   3.618   6.078
 8339TIP3    H224963   7.154   3.761   6.122
 8340TIP3   OH224964   5.012   4.630   4.792
 8340TIP3    H124965   5.104   4.642   4.813
 8340TIP3    H224966   4.982   4.716   4.764
 8341TIP3   OH224967   8.209   2.638   5.075
 8341TIP3    H124968   8.169   2.636   4.989
 8341TIP3    H224969   8.270   2.564   5.075
 8342TIP3   OH224970   4.792   3.523   3.188
 8342TIP3    H124971   4.866   3.530   3.127
 8342TIP3    H224972   4.718   3.496   3.133
 8343TIP3   OH224973   3.141   5.179   5.424
 8343TIP3    H124974   3.113   5.106   5.479
 8343TIP3    H224975   3.106   5.257   5.468
 8344TIP3   OH224976   7.102   1.783   4.521
 8344TIP3    H124977   7.074   1.809   4.609
 8344TIP3    H224978   7.141   1.697   4.532
 8345TIP3   OH224979   1.269   5.966   0.567
 8345TIP3    H124980   1.281   6.061   0.561
 8345TIP3    H224981   1.290   5.933   0.479
 8346TIP3   OH224982   4.998   7.305   3.792
 8346TIP3    H124983   4.988   7.303   3.887
 8346TIP3    H224984   4.945   7.380   3.764
 8347TIP3   OH224985   0.585   1.500   0.767
 8347TIP3    H124986   0.643   1.555   0.821
 8347TIP3    H224987   0.574   1.420   0.817
 8348TIP3   OH224988   6.236   2.419   2.504
 8348TIP3    H124989   6.247   2.325   2.487
 8348TIP3    H224990   6.159   2.424   2.560
 8349TIP3   OH224991   4.875   4.475   1.477
 8349TIP3    H124992   4.890   4.568   1.466
 8349TIP3    H224993   4.960   4.439   1.503
 8350TIP3   OH224994   7.369   6.799   0.873
 8350TIP3    H124995   7.325   6.719   0.902
 8350TIP3    H224996   7.319   6.869   0.914
 8351TIP3   OH224997   5.264   5.531   2.942
 8351TIP3    H124998   5.272   5.436   2.952
 8351TIP3    H224999   5.204   5.557   3.011
 8352TIP3   OH225000   5.899   5.477   4.112
 8352TIP3    H125001   5.871   5.421   4.040
 8352TIP3    H225002   5.917   5.416   4.184
 8353TIP3   OH225003   1.070   7.753   5.858
 8353TIP3    H125004   1.109   7.806   5.789
 8353TIP3    H225005   1.137   7.688   5.878
 8354TIP3   OH225006   7.891   5.666   1.596
 8354TIP3    H125007   7.861   5.604   1.662
 8354TIP3    H225008   7.958   5.719   1.640
 8355TIP3   OH225009   6.008   1.156   6.647
 8355TIP3    H125010   5.917   1.172   6.674
 8355TIP3    H225011   6.039   1.089   6.708
 8356TIP3   OH225012   3.333   2.916   4.026
 8356TIP3    H125013   3.338   2.934   4.120
 8356TIP3    H225014   3.416   2.874   4.006
 8357TIP3   OH225015   3.952   5.472   1.200
 8357TIP3    H125016   4.024   5.528   1.228
 8357TIP3    H225017   3.873   5.524   1.214
 8358TIP3   OH225018   5.089   6.979   0.789
 8358TIP3    H125019   5.171   6.962   0.743
 8358TIP3    H225020   5.110   6.965   0.882
 8359TIP3   OH225021   0.302   6.161   5.275
 8359TIP3    H125022   0.341   6.198   5.196
 8359TIP3    H225023   0.360   6.089   5.299
 8360TIP3   OH225024   0.972   3.790   1.479
 8360TIP3    H125025   0.896   3.845   1.499
 8360TIP3    H225026   1.042   3.825   1.534
 8361TIP3   OH225027   6.157   4.725   4.534
 8361TIP3    H125028   6.220   4.696   4.468
 8361TIP3    H225029   6.125   4.644   4.574
 8362TIP3   OH225030   1.758   2.613   6.167
 8362TIP3    H125031   1.713   2.627   6.250
 8362TIP3    H225032   1.760   2.518   6.157
 8363TIP3   OH225033   6.044   3.061   2.573
 8363TIP3    H125034   5.968   3.117   2.558
 8363TIP3    H225035   6.014   2.974   2.548
 8364TIP3   OH225036   6.077   3.617   2.299
 8364TIP3    H125037   6.049   3.527   2.315
 8364TIP3    H225038   6.171   3.616   2.313
 8365TIP3   OH225039   4.256   3.165   2.462
 8365TIP3    H125040   4.204   3.132   2.389
 8365TIP3    H225041   4.210   3.244   2.490
 8366TIP3   OH225042   2.092   2.731   1.112
 8366TIP3    H125043   2.147   2.706   1.186
 8366TIP3    H225044   2.085   2.650   1.060
 8367TIP3   OH225045   4.662   1.957   6.537
 8367TIP3    H125046   4.707   1.880   6.503
 8367TIP3    H225047   4.572   1.927   6.552
 8368TIP3   OH225048   6.516   1.465   5.468
 8368TIP3    H125049   6.582   1.533   5.456
 8368TIP3    H225050   6.563   1.383   5.460
 8369TIP3   OH225051   6.895   7.166   2.226
 8369TIP3    H125052   6.904   7.169   2.131
 8369TIP3    H225053   6.877   7.256   2.253
 8370TIP3   OH225054   3.605   1.730   4.102
 8370TIP3    H125055   3.520   1.688   4.085
 8370TIP3    H225056   3.617   1.723   4.196
 8371TIP3   OH225057   2.588   5.392   5.322
 8371TIP3    H125058   2.493   5.379   5.320
 8371TIP3    H225059   2.612   5.387   5.414
 8372TIP3   OH225060   2.775   5.331   5.116
 8372TIP3    H125061   2.756   5.414   5.072
 8372TIP3    H225062   2.717   5.330   5.192
 8373TIP3   OH225063   3.565   0.999   0.515
 8373TIP3    H125064   3.632   0.933   0.497
 8373TIP3    H225065   3.611   1.083   0.503
 8374TIP3   OH225066   1.956   2.996   6.088
 8374TIP3    H125067   1.963   2.957   6.175
 8374TIP3    H225068   2.040   2.977   6.046
 8375TIP3   OH225069   7.421   7.117   5.798
 8375TIP3    H125070   7.426   7.050   5.866
 8375TIP3    H225071   7.329   7.116   5.770
 8376TIP3   OH225072   1.209   3.449   0.392
 8376TIP3    H125073   1.206   3.394   0.470
 8376TIP3    H225074   1.118   3.453   0.362
 8377TIP3   OH225075   4.077   1.206   6.193
 8377TIP3    H125076   4.104   1.153   6.268
 8377TIP3    H225077   4.118   1.165   6.118
 8378TIP3   OH225078   2.842   0.947   3.665
 8378TIP3    H125079   2.921   0.947   3.719
 8378TIP3    H225080   2.774   0.983   3.722
 8379TIP3   OH225081   4.348   3.380   4.434
 8379TIP3    H125082   4.277   3.429   4.393
 8379TIP3    H225083   4.427   3.409   4.387
 8380TIP3   OH225084   4.374   0.522   6.159
 8380TIP3    H125085   4.363   0.427   6.172
 8380TIP3    H225086   4.460   0.530   6.118
 8381TIP3   OH225087   5.800   1.925   4.033
 8381TIP3    H125088   5.824   1.848   3.982
 8381TIP3    H225089   5.711   1.907   4.063
 8382TIP3   OH225090   5.619   5.911   2.082
 8382TIP3    H125091   5.714   5.920   2.088
 8382TIP3    H225092   5.596   5.956   2.001
 8383TIP3   OH225093   6.188   1.306   2.575
 8383TIP3    H125094   6.112   1.320   2.632
 8383TIP3    H225095   6.227   1.393   2.566
 8384TIP3   OH225096   1.519   5.623   1.680
 8384TIP3    H125097   1.601   5.598   1.723
 8384TIP3    H225098   1.499   5.549   1.622
 8385TIP3   OH225099   0.920   2.374   4.137
 8385TIP3    H125100   0.943   2.414   4.054
 8385TIP3    H225101   0.851   2.431   4.173
 8386TIP3   OH225102   8.321   5.633   4.935
 8386TIP3    H125103   8.355   5.721   4.946
 8386TIP3    H225104   8.247   5.628   4.995
 8387TIP3   OH225105   2.393   2.321   0.775
 8387TIP3    H125106   2.481   2.349   0.750
 8387TIP3    H225107   2.336   2.390   0.743
 8388TIP3   OH225108   1.879   2.838   0.419
 8388TIP3    H125109   1.788   2.869   0.423
 8388TIP3    H225110   1.887   2.800   0.331
 8389TIP3   OH225111   6.621   3.333   1.927
 8389TIP3    H125112   6.552   3.268   1.921
 8389TIP3    H225113   6.676   3.318   1.849
 8390TIP3   OH225114   2.370   6.127   5.708
 8390TIP3    H125115   2.451   6.175   5.693
 8390TIP3    H225116   2.345   6.094   5.621
 8391TIP3   OH225117   1.055   2.843   6.599
 8391TIP3    H125118   0.973   2.891   6.586
 8391TIP3    H225119   1.034   2.752   6.575
 8392TIP3   OH225120   3.563   6.715   0.536
 8392TIP3    H125121   3.633   6.737   0.475
 8392TIP3    H225122   3.483   6.716   0.483
 8393TIP3   OH225123   2.581   2.076   2.231
 8393TIP3    H125124   2.652   2.098   2.171
 8393TIP3    H225125   2.591   2.136   2.304
 8394TIP3   OH225126   2.222   7.042   5.550
 8394TIP3    H125127   2.201   6.950   5.566
 8394TIP3    H225128   2.217   7.052   5.455
 8395TIP3   OH225129   5.024   5.758   4.485
 8395TIP3    H125130   5.094   5.773   4.422
 8395TIP3    H225131   4.944   5.767   4.434
 8396TIP3   OH225132   7.820   0.798   3.641
 8396TIP3    H125133   7.763   0.722   3.628
 8396TIP3    H225134   7.782   0.844   3.716
 8397TIP3   OH225135   3.888   0.214   2.395
 8397TIP3    H125136   3.810   0.267   2.379
 8397TIP3    H225137   3.884   0.192   2.488
 8398TIP3   OH225138   4.070   0.914   2.199
 8398TIP3    H125139   4.135   0.952   2.140
 8398TIP3    H225140   3.987   0.920   2.152
 8399TIP3   OH225141   2.559   3.400   3.394
 8399TIP3    H125142   2.626   3.349   3.439
 8399TIP3    H225143   2.510   3.336   3.343
 8400TIP3   OH225144   5.351   4.276   3.015
 8400TIP3    H125145   5.262   4.311   3.022
 8400TIP3    H225146   5.396   4.310   3.093
 8401TIP3   OH225147   4.260   4.443   5.897
 8401TIP3    H125148   4.263   4.435   5.802
 8401TIP3    H225149   4.302   4.363   5.929
 8402TIP3   OH225150   1.993   5.411   6.350
 8402TIP3    H125151   2.086   5.407   6.325
 8402TIP3    H225152   1.948   5.364   6.280
 8403TIP3   OH225153   3.818   3.668   5.573
 8403TIP3    H125154   3.911   3.652   5.561
 8403TIP3    H225155   3.799   3.742   5.515
 8404TIP3   OH225156   3.203   0.853   1.943
 8404TIP3    H125157   3.257   0.827   1.869
 8404TIP3    H225158   3.241   0.936   1.972
 8405TIP3   OH225159   2.198   3.183   3.791
 8405TIP3    H125160   2.256   3.152   3.721
 8405TIP3    H225161   2.135   3.240   3.746
 8406TIP3   OH225162   7.850   2.299   4.916
 8406TIP3    H125163   7.942   2.319   4.900
 8406TIP3    H225164   7.815   2.277   4.830
 8407TIP3   OH225165   4.290   4.296   3.176
 8407TIP3    H125166   4.276   4.355   3.102
 8407TIP3    H225167   4.288   4.208   3.138
 8408TIP3   OH225168   1.450   6.104   5.349
 8408TIP3    H125169   1.392   6.117   5.274
 8408TIP3    H225170   1.403   6.040   5.403
 8409TIP3   OH225171   0.749   0.473   0.617
 8409TIP3    H125172   0.843   0.466   0.600
 8409TIP3    H225173   0.743   0.534   0.690
 8410TIP3   OH225174   6.021   2.900   1.982
 8410TIP3    H125175   6.021   2.820   1.929
 8410TIP3    H225176   6.064   2.965   1.927
 8411TIP3   OH225177   3.012   2.536   6.056
 8411TIP3    H125178   3.049   2.586   5.983
 8411TIP3    H225179   2.950   2.597   6.097
 8412TIP3   OH225180   5.898   5.362   3.395
 8412TIP3    H125181   5.916   5.453   3.375
 8412TIP3    H225182   5.833   5.365   3.466
 8413TIP3   OH225183   0.449   6.331   1.312
 8413TIP3    H125184   0.523   6.341   1.252
 8413TIP3    H225185   0.481   6.271   1.380
 8414TIP3   OH225186   6.178   4.012   4.185
 8414TIP3    H125187   6.094   3.969   4.198
 8414TIP3    H225188   6.235   3.944   4.150
 8415TIP3   OH225189   4.348   4.723   4.001
 8415TIP3    H125190   4.296   4.644   3.988
 8415TIP3    H225191   4.438   4.691   4.014
 8416TIP3   OH225192   7.478   5.386   4.231
 8416TIP3    H125193   7.410   5.393   4.164
 8416TIP3    H225194   7.430   5.366   4.311
 8417TIP3   OH225195   7.182   0.076   0.289
 8417TIP3    H125196   7.260   0.021   0.274
 8417TIP3    H225197   7.202   0.124   0.369
 8418TIP3   OH225198   2.034   6.563   3.446
 8418TIP3    H125199   1.948   6.541   3.482
 8418TIP3    H225200   2.089   6.487   3.467
 8419TIP3   OH225201   2.680   1.069   3.852
 8419TIP3    H125202   2.636   1.112   3.926
 8419TIP3    H225203   2.609   1.034   3.799
 8420TIP3   OH225204   1.854   1.531   4.644
 8420TIP3    H125205   1.847   1.483   4.726
 8420TIP3    H225206   1.779   1.502   4.592
 8421TIP3   OH225207   5.217   5.162   4.483
 8421TIP3    H125208   5.234   5.071   4.507
 8421TIP3    H225209   5.160   5.155   4.406
 8422TIP3   OH225210   5.728   6.334   3.641
 8422TIP3    H125211   5.753   6.426   3.634
 8422TIP3    H225212   5.644   6.337   3.688
 8423TIP3   OH225213   5.165   0.036   0.798
 8423TIP3    H125214   5.146   0.125   0.827
 8423TIP3    H225215   5.080  -0.008   0.799
 8424TIP3   OH225216   6.806   5.863   1.273
 8424TIP3    H125217   6.755   5.804   1.328
 8424TIP3    H225218   6.792   5.950   1.312
 8425TIP3   OH225219   4.686   7.427   5.515
 8425TIP3    H125220   4.686   7.334   5.538
 8425TIP3    H225221   4.762   7.463   5.560
 8426TIP3   OH225222   6.914   1.850   5.942
 8426TIP3    H125223   7.005   1.863   5.914
 8426TIP3    H225224   6.908   1.757   5.961
 8427TIP3   OH225225   0.522   5.656   3.594
 8427TIP3    H125226   0.494   5.740   3.557
 8427TIP3    H225227   0.452   5.632   3.654
 8428TIP3   OH225228   0.353   3.316   2.348
 8428TIP3    H125229   0.360   3.246   2.412
 8428TIP3    H225230   0.331   3.394   2.400
 8429TIP3   OH225231   7.676   5.403   5.403
 8429TIP3    H125232   7.742   5.354   5.453
 8429TIP3    H225233   7.728   5.454   5.340
 8430TIP3   OH225234   3.948   1.263   1.087
 8430TIP3    H125235   3.995   1.286   1.007
 8430TIP3    H225236   3.967   1.170   1.100
 8431TIP3   OH225237   5.623   3.847   1.965
 8431TIP3    H125238   5.693   3.851   2.030
 8431TIP3    H225239   5.610   3.754   1.950
 8432TIP3   OH225240   5.692   0.102   4.611
 8432TIP3    H125241   5.761   0.108   4.546
 8432TIP3    H225242   5.624   0.161   4.580
 8433TIP3   OH225243   3.734   0.434   1.884
 8433TIP3    H125244   3.780   0.461   1.804
 8433TIP3    H225245   3.734   0.513   1.939
 8434TIP3   OH225246   3.814   6.769   4.725
 8434TIP3    H125247   3.719   6.761   4.733
 8434TIP3    H225248   3.834   6.852   4.768
 8435TIP3   OH225249   3.913   2.357   5.459
 8435TIP3    H125250   3.979   2.427   5.458
 8435TIP3    H225251   3.830   2.402   5.476
 8436TIP3   OH225252   3.180   3.008   3.482
 8436TIP3    H125253   3.091   2.992   3.512
 8436TIP3    H225254   3.199   2.934   3.424
 8437TIP3   OH225255   7.547   3.361   6.423
 8437TIP3    H125256   7.505   3.353   6.337
 8437TIP3    H225257   7.640   3.348   6.405
 8438TIP3   OH225258   6.921   3.503   1.905
 8438TIP3    H125259   6.992   3.509   1.841
 8438TIP3    H225260   6.851   3.556   1.868
 8439TIP3   OH225261   4.564   2.727   4.415
 8439TIP3    H125262   4.536   2.635   4.413
 8439TIP3    H225263   4.651   2.727   4.376
 8440TIP3   OH225264   7.321   0.229   5.061
 8440TIP3    H125265   7.306   0.253   4.969
 8440TIP3    H225266   7.401   0.275   5.085
 8441TIP3   OH225267   4.856   0.833   6.049
 8441TIP3    H125268   4.882   0.853   5.959
 8441TIP3    H225269   4.762   0.851   6.051
 8442TIP3   OH225270   2.178   1.109   5.535
 8442TIP3    H125271   2.146   1.187   5.488
 8442TIP3    H225272   2.260   1.086   5.492
 8443TIP3   OH225273   2.244   4.278   6.696
 8443TIP3    H125274   2.195   4.358   6.713
 8443TIP3    H225275   2.190   4.229   6.634
 8444TIP3   OH225276   2.209   6.331   3.516
 8444TIP3    H125277   2.296   6.371   3.520
 8444TIP3    H225278   2.226   6.238   3.496
 8445TIP3   OH225279   5.327   2.546   3.632
 8445TIP3    H125280   5.298   2.524   3.720
 8445TIP3    H225281   5.400   2.488   3.614
 8446TIP3   OH225282   3.536   5.393   5.736
 8446TIP3    H125283   3.517   5.411   5.644
 8446TIP3    H225284   3.608   5.331   5.734
 8447TIP3   OH225285   2.857   2.447   3.365
 8447TIP3    H125286   2.881   2.354   3.369
 8447TIP3    H225287   2.909   2.481   3.292
 8448TIP3   OH225288   5.047   5.000   5.207
 8448TIP3    H125289   5.135   5.035   5.196
 8448TIP3    H225290   4.994   5.049   5.145
 8449TIP3   OH225291   0.852   0.961   2.104
 8449TIP3    H125292   0.762   0.935   2.083
 8449TIP3    H225293   0.897   0.963   2.019
 8450TIP3   OH225294   1.199   2.181   0.916
 8450TIP3    H125295   1.241   2.263   0.940
 8450TIP3    H225296   1.173   2.141   0.999
 8451TIP3   OH225297   5.553   5.637   3.489
 8451TIP3    H125298   5.600   5.556   3.507
 8451TIP3    H225299   5.525   5.630   3.398
 8452TIP3   OH225300   2.985   3.749   1.789
 8452TIP3    H125301   2.982   3.843   1.804
 8452TIP3    H225302   3.078   3.727   1.787
 8453TIP3   OH225303   7.560   2.960   3.187
 8453TIP3    H125304   7.610   2.896   3.137
 8453TIP3    H225305   7.480   2.973   3.136
 8454TIP3   OH225306   3.691   3.264   3.839
 8454TIP3    H125307   3.704   3.358   3.836
 8454TIP3    H225308   3.777   3.228   3.859
 8455TIP3   OH225309   3.373   6.385   6.072
 8455TIP3    H125310   3.467   6.403   6.074
 8455TIP3    H225311   3.355   6.341   6.155
 8456TIP3   OH225312   5.644   6.217   0.149
 8456TIP3    H125313   5.645   6.185   0.059
 8456TIP3    H225314   5.693   6.152   0.199
 8457TIP3   OH225315   0.892   6.934   3.071
 8457TIP3    H125316   0.863   6.895   3.154
 8457TIP3    H225317   0.987   6.928   3.073
 8458TIP3   OH225318   4.820   5.427   5.589
 8458TIP3    H125319   4.767   5.452   5.514
 8458TIP3    H225320   4.844   5.336   5.573
 8459TIP3   OH225321   3.300   7.446   4.462
 8459TIP3    H125322   3.378   7.483   4.504
 8459TIP3    H225323   3.304   7.477   4.372
 8460TIP3   OH225324   0.913   2.542   5.630
 8460TIP3    H125325   0.824   2.518   5.606
 8460TIP3    H225326   0.957   2.459   5.648
 8461TIP3   OH225327   7.943   2.933   4.679
 8461TIP3    H125328   7.981   2.980   4.754
 8461TIP3    H225329   8.017   2.891   4.636
 8462TIP3   OH225330   7.482   2.737   5.567
 8462TIP3    H125331   7.388   2.726   5.579
 8462TIP3    H225332   7.521   2.689   5.640
 8463TIP3   OH225333   2.605   2.757   1.976
 8463TIP3    H125334   2.613   2.836   1.924
 8463TIP3    H225335   2.634   2.687   1.918
 8464TIP3   OH225336   5.304   1.767   1.130
 8464TIP3    H125337   5.387   1.812   1.116
 8464TIP3    H225338   5.276   1.795   1.217
 8465TIP3   OH225339   2.723   0.773   5.167
 8465TIP3    H125340   2.682   0.689   5.185
 8465TIP3    H225341   2.754   0.766   5.076
 8466TIP3   OH225342   3.534   1.875   5.443
 8466TIP3    H125343   3.511   1.927   5.520
 8466TIP3    H225344   3.484   1.794   5.452
 8467TIP3   OH225345   4.094   2.655   2.270
 8467TIP3    H125346   4.077   2.600   2.346
 8467TIP3    H225347   4.018   2.713   2.265
 8468TIP3   OH225348   0.227   2.574   5.829
 8468TIP3    H125349   0.304   2.522   5.808
 8468TIP3    H225350   0.155   2.526   5.788
 8469TIP3   OH225351   6.428   0.666   6.134
 8469TIP3    H125352   6.348   0.624   6.101
 8469TIP3    H225353   6.465   0.710   6.057
 8470TIP3   OH225354   7.111   5.904   2.449
 8470TIP3    H125355   7.137   5.833   2.391
 8470TIP3    H225356   7.172   5.975   2.429
 8471TIP3   OH225357   4.901   3.357   4.082
 8471TIP3    H125358   4.908   3.443   4.122
 8471TIP3    H225359   4.977   3.309   4.114
 8472TIP3   OH225360   5.978   1.050   4.994
 8472TIP3    H125361   5.997   1.125   5.050
 8472TIP3    H225362   5.978   1.086   4.905
 8473TIP3   OH225363   0.131   3.854   1.198
 8473TIP3    H125364   0.117   3.845   1.292
 8473TIP3    H225365   0.112   3.946   1.179
 8474TIP3   OH225366   4.725   0.204   6.700
 8474TIP3    H125367   4.724   0.282   6.756
 8474TIP3    H225368   4.644   0.210   6.650
 8475TIP3   OH225369   4.799   3.364   3.698
 8475TIP3    H125370   4.861   3.424   3.739
 8475TIP3    H225371   4.827   3.360   3.607
 8476TIP3   OH225372   4.222   5.056   1.656
 8476TIP3    H125373   4.289   5.113   1.694
 8476TIP3    H225374   4.139   5.103   1.671
 8477TIP3   OH225375   4.609   7.004   0.495
 8477TIP3    H125376   4.619   6.940   0.425
 8477TIP3    H225377   4.693   7.002   0.541
 8478TIP3   OH225378   4.025   1.704   3.707
 8478TIP3    H125379   3.958   1.698   3.775
 8478TIP3    H225380   4.107   1.717   3.755
 8479TIP3   OH225381   4.617   1.274   3.297
 8479TIP3    H125382   4.629   1.247   3.388
 8479TIP3    H225383   4.590   1.365   3.303
 8480TIP3   OH225384   6.088   0.087   4.839
 8480TIP3    H125385   6.143   0.124   4.908
 8480TIP3    H225386   6.123   0.124   4.758
 8481TIP3   OH225387   5.902   0.302   5.142
 8481TIP3    H125388   5.898   0.357   5.063
 8481TIP3    H225389   5.853   0.351   5.208
 8482TIP3   OH225390   5.410   7.201   3.493
 8482TIP3    H125391   5.502   7.206   3.519
 8482TIP3    H225392   5.405   7.256   3.414
 8483TIP3   OH225393   6.670   2.444   4.486
 8483TIP3    H125394   6.727   2.413   4.557
 8483TIP3    H225395   6.623   2.366   4.457
 8484TIP3   OH225396   4.824   1.694   3.319
 8484TIP3    H125397   4.810   1.777   3.365
 8484TIP3    H225398   4.863   1.720   3.235
 8485TIP3   OH225399   4.037   3.719   2.889
 8485TIP3    H125400   3.980   3.795   2.879
 8485TIP3    H225401   4.022   3.667   2.810
 8486TIP3   OH225402   3.841   2.215   5.667
 8486TIP3    H125403   3.753   2.247   5.646
 8486TIP3    H225404   3.893   2.233   5.588
 8487TIP3   OH225405   5.559   2.657   6.755
 8487TIP3    H125406   5.483   2.702   6.792
 8487TIP3    H225407   5.630   2.677   6.815
 8488TIP3   OH225408   3.118   7.257   6.535
 8488TIP3    H125409   3.082   7.170   6.523
 8488TIP3    H225410   3.163   7.276   6.453
 8489TIP3   OH225411   3.702   5.739   0.488
 8489TIP3    H125412   3.792   5.771   0.483
 8489TIP3    H225413   3.669   5.773   0.571
 8490TIP3   OH225414   0.363   4.319   6.497
 8490TIP3    H125415   0.293   4.374   6.463
 8490TIP3    H225416   0.350   4.234   6.455
 8491TIP3   OH225417   7.358   5.425   2.889
 8491TIP3    H125418   7.422   5.457   2.953
 8491TIP3    H225419   7.407   5.419   2.807
 8492TIP3   OH225420   3.108   7.121   1.160
 8492TIP3    H125421   3.137   7.177   1.089
 8492TIP3    H225422   3.166   7.045   1.156
 8493TIP3   OH225423   2.046   5.543   2.877
 8493TIP3    H125424   2.098   5.603   2.930
 8493TIP3    H225425   1.989   5.599   2.825
 8494TIP3   OH225426   8.091   7.731   5.764
 8494TIP3    H125427   8.113   7.661   5.703
 8494TIP3    H225428   8.021   7.780   5.720
 8495TIP3   OH225429   5.027   1.335   1.643
 8495TIP3    H125430   5.052   1.412   1.694
 8495TIP3    H225431   5.028   1.263   1.706
 8496TIP3   OH225432   7.389   3.784   0.795
 8496TIP3    H125433   7.295   3.779   0.780
 8496TIP3    H225434   7.399   3.859   0.854
 8497TIP3   OH225435   5.034   1.058   5.729
 8497TIP3    H125436   5.103   1.080   5.667
 8497TIP3    H225437   5.062   1.096   5.812
 8498TIP3   OH225438   4.741   4.703   1.664
 8498TIP3    H125439   4.735   4.614   1.698
 8498TIP3    H225440   4.666   4.748   1.703
 8499TIP3   OH225441   0.755   2.540   0.083
 8499TIP3    H125442   0.754   2.451   0.048
 8499TIP3    H225443   0.703   2.535   0.163
 8500TIP3   OH225444   4.704   3.034   2.027
 8500TIP3    H125445   4.684   2.940   2.036
 8500TIP3    H225446   4.776   3.048   2.088
 8501TIP3   OH225447   3.244   4.484   3.749
 8501TIP3    H125448   3.311   4.419   3.772
 8501TIP3    H225449   3.163   4.447   3.784
 8502TIP3   OH225450   2.306   0.691   0.037
 8502TIP3    H125451   2.377   0.754   0.028
 8502TIP3    H225452   2.243   0.734   0.095
 8503TIP3   OH225453   6.206   5.933   0.950
 8503TIP3    H125454   6.175   6.023   0.945
 8503TIP3    H225455   6.280   5.936   1.012
 8504TIP3   OH225456   1.230   3.177   5.638
 8504TIP3    H125457   1.248   3.086   5.615
 8504TIP3    H225458   1.203   3.173   5.730
 8505TIP3   OH225459   2.136   0.428   0.301
 8505TIP3    H125460   2.230   0.449   0.300
 8505TIP3    H225461   2.124   0.365   0.230
 8506TIP3   OH225462   2.184   5.254   1.461
 8506TIP3    H125463   2.181   5.330   1.403
 8506TIP3    H225464   2.145   5.285   1.543
 8507TIP3   OH225465   7.009   1.017   2.481
 8507TIP3    H125466   7.030   1.110   2.492
 8507TIP3    H225467   6.983   0.988   2.568
 8508TIP3   OH225468   2.419   6.058   4.610
 8508TIP3    H125469   2.362   6.114   4.661
 8508TIP3    H225470   2.466   6.118   4.552
 8509TIP3   OH225471   2.316   5.300   4.336
 8509TIP3    H125472   2.284   5.369   4.278
 8509TIP3    H225473   2.397   5.335   4.374
 8510TIP3   OH225474   0.411   1.633   3.256
 8510TIP3    H125475   0.474   1.606   3.322
 8510TIP3    H225476   0.429   1.726   3.243
 8511TIP3   OH225477   8.194   6.282   3.962
 8511TIP3    H125478   8.164   6.211   4.020
 8511TIP3    H225479   8.289   6.280   3.970
 8512TIP3   OH225480   3.755   5.523   2.075
 8512TIP3    H125481   3.670   5.559   2.100
 8512TIP3    H225482   3.818   5.582   2.114
 8513TIP3   OH225483   1.737   7.437   0.072
 8513TIP3    H125484   1.652   7.404   0.045
 8513TIP3    H225485   1.793   7.426  -0.005
 8514TIP3   OH225486   2.366   3.218   2.561
 8514TIP3    H125487   2.302   3.175   2.503
 8514TIP3    H225488   2.371   3.160   2.637
 8515TIP3   OH225489   0.321   4.476   1.834
 8515TIP3    H125490   0.261   4.547   1.858
 8515TIP3    H225491   0.312   4.468   1.739
 8516TIP3   OH225492   7.358   0.227   1.641
 8516TIP3    H125493   7.386   0.162   1.578
 8516TIP3    H225494   7.372   0.311   1.597
 8517TIP3   OH225495   7.227   3.115   4.514
 8517TIP3    H125496   7.322   3.103   4.517
 8517TIP3    H225497   7.194   3.037   4.468
 8518TIP3   OH225498   5.456   2.415   6.648
 8518TIP3    H125499   5.474   2.491   6.703
 8518TIP3    H225500   5.452   2.449   6.559
 8519TIP3   OH225501   8.100   1.542   6.419
 8519TIP3    H125502   8.096   1.483   6.344
 8519TIP3    H225503   8.127   1.626   6.383
 8520TIP3   OH225504   0.977   2.461   0.820
 8520TIP3    H125505   0.984   2.548   0.782
 8520TIP3    H225506   1.021   2.468   0.904
 8521TIP3   OH225507   8.255   6.277   2.507
 8521TIP3    H125508   8.331   6.322   2.469
 8521TIP3    H225509   8.183   6.301   2.449
 8522TIP3   OH225510   2.809   5.921   5.941
 8522TIP3    H125511   2.867   5.956   5.873
 8522TIP3    H225512   2.721   5.944   5.911
 8523TIP3   OH225513   5.400   7.208   6.409
 8523TIP3    H125514   5.305   7.224   6.404
 8523TIP3    H225515   5.407   7.121   6.449
 8524TIP3   OH225516   2.043   6.879   0.065
 8524TIP3    H125517   2.049   6.827  -0.015
 8524TIP3    H225518   1.996   6.958   0.039
 8525TIP3   OH225519   2.874   2.177   3.445
 8525TIP3    H125520   2.939   2.116   3.482
 8525TIP3    H225521   2.799   2.122   3.423
 8526TIP3   OH225522   3.089   2.850   1.604
 8526TIP3    H125523   3.079   2.820   1.695
 8526TIP3    H225524   3.184   2.858   1.592
 8527TIP3   OH225525   0.025   0.694   4.885
 8527TIP3    H125526   0.071   0.719   4.804
 8527TIP3    H225527   0.092   0.653   4.939
 8528TIP3   OH225528   7.856   4.135   3.321
 8528TIP3    H125529   7.875   4.047   3.287
 8528TIP3    H225530   7.762   4.145   3.309
 8529TIP3   OH225531   0.496   5.042   3.564
 8529TIP3    H125532   0.494   4.950   3.541
 8529TIP3    H225533   0.428   5.052   3.630
 8530TIP3   OH225534   2.568   2.330   3.140
 8530TIP3    H125535   2.513   2.252   3.132
 8530TIP3    H225536   2.657   2.298   3.125
 8531TIP3   OH225537   4.483   5.926   2.274
 8531TIP3    H125538   4.414   5.860   2.273
 8531TIP3    H225539   4.517   5.923   2.364
 8532TIP3   OH225540   6.435   3.678   6.137
 8532TIP3    H125541   6.476   3.732   6.069
 8532TIP3    H225542   6.348   3.659   6.103
 8533TIP3   OH225543   7.863   7.774   1.165
 8533TIP3    H125544   7.866   7.739   1.076
 8533TIP3    H225545   7.770   7.785   1.183
 8534TIP3   OH225546   5.198   5.224   3.358
 8534TIP3    H125547   5.235   5.258   3.440
 8534TIP3    H225548   5.241   5.139   3.347
 8535TIP3   OH225549   4.565   3.408   3.046
 8535TIP3    H125550   4.620   3.336   3.015
 8535TIP3    H225551   4.583   3.480   2.985
 8536TIP3   OH225552   7.963   4.080   1.696
 8536TIP3    H125553   7.992   4.002   1.744
 8536TIP3    H225554   7.899   4.121   1.754
 8537TIP3   OH225555   7.649   1.617   4.944
 8537TIP3    H125556   7.694   1.538   4.914
 8537TIP3    H225557   7.720   1.676   4.971
 8538TIP3   OH225558   3.875   3.836   4.717
 8538TIP3    H125559   3.823   3.808   4.641
 8538TIP3    H225560   3.823   3.809   4.793
 8539TIP3   OH225561   1.460   1.516   4.028
 8539TIP3    H125562   1.511   1.439   4.054
 8539TIP3    H225563   1.479   1.528   3.935
 8540TIP3   OH225564   0.131   4.917   5.162
 8540TIP3    H125565   0.203   4.919   5.224
 8540TIP3    H225566   0.060   4.965   5.207
 8541TIP3   OH225567   0.345   2.276   3.671
 8541TIP3    H125568   0.330   2.313   3.759
 8541TIP3    H225569   0.398   2.342   3.626
 8542TIP3   OH225570   3.328   2.805   0.082
 8542TIP3    H125571   3.258   2.868   0.099
 8542TIP3    H225572   3.283   2.729   0.045
 8543TIP3   OH225573   2.498   5.091   4.156
 8543TIP3    H125574   2.531   5.113   4.069
 8543TIP3    H225575   2.409   5.128   4.157
 8544TIP3   OH225576   0.048   7.220   5.920
 8544TIP3    H125577   0.051   7.127   5.899
 8544TIP3    H225578   0.107   7.261   5.857
 8545TIP3   OH225579   8.163   5.414   3.031
 8545TIP3    H125580   8.187   5.342   3.088
 8545TIP3    H225581   8.069   5.427   3.046
 8546TIP3   OH225582   1.855   7.338   2.936
 8546TIP3    H125583   1.918   7.409   2.930
 8546TIP3    H225584   1.899   7.264   2.893
 8547TIP3   OH225585   6.316   1.823   2.925
 8547TIP3    H125586   6.281   1.880   2.857
 8547TIP3    H225587   6.362   1.754   2.878
 8548TIP3   OH225588   6.892   1.621   4.136
 8548TIP3    H125589   6.856   1.567   4.067
 8548TIP3    H225590   6.829   1.615   4.207
 8549TIP3   OH225591   5.656   3.441   4.003
 8549TIP3    H125592   5.594   3.493   3.952
 8549TIP3    H225593   5.614   3.429   4.088
 8550TIP3   OH225594   1.253   5.887   0.047
 8550TIP3    H125595   1.234   5.871  -0.045
 8550TIP3    H225596   1.340   5.928   0.046
 8551TIP3   OH225597   7.886   7.705   0.892
 8551TIP3    H125598   7.975   7.681   0.920
 8551TIP3    H225599   7.899   7.778   0.832
 8552TIP3   OH225600   6.467   7.652   1.194
 8552TIP3    H125601   6.474   7.577   1.253
 8552TIP3    H225602   6.554   7.660   1.155
 8553TIP3   OH225603   4.030   1.057   0.340
 8553TIP3    H125604   4.124   1.075   0.335
 8553TIP3    H225605   4.003   1.091   0.425
 8554TIP3   OH225606   4.229   2.483   4.001
 8554TIP3    H125607   4.136   2.465   3.985
 8554TIP3    H225608   4.270   2.477   3.914
 8555TIP3   OH225609   6.962   6.789   2.521
 8555TIP3    H125610   6.900   6.781   2.448
 8555TIP3    H225611   6.908   6.817   2.595
 8556TIP3   OH225612   5.397   3.691   5.180
 8556TIP3    H125613   5.401   3.785   5.198
 8556TIP3    H225614   5.486   3.668   5.152
 8557TIP3   OH225615   4.531   7.638   1.742
 8557TIP3    H125616   4.539   7.543   1.728
 8557TIP3    H225617   4.463   7.647   1.808
 8558TIP3   OH225618   1.943   4.436   5.706
 8558TIP3    H125619   1.894   4.455   5.626
 8558TIP3    H225620   1.910   4.351   5.735
 8559TIP3   OH225621   5.214   4.555   0.228
 8559TIP3    H125622   5.270   4.489   0.268
 8559TIP3    H225623   5.157   4.506   0.169
 8560TIP3   OH225624   0.749   4.531   4.931
 8560TIP3    H125625   0.735   4.557   4.840
 8560TIP3    H225626   0.806   4.454   4.926
 8561TIP3   OH225627   0.202   5.756   1.608
 8561TIP3    H125628   0.180   5.799   1.690
 8561TIP3    H225629   0.295   5.775   1.594
 8562TIP3   OH225630   4.688   3.607   2.895
 8562TIP3    H125631   4.761   3.618   2.836
 8562TIP3    H225632   4.670   3.695   2.929
 8563TIP3   OH225633   1.626   3.023   3.665
 8563TIP3    H125634   1.594   2.984   3.584
 8563TIP3    H225635   1.663   3.107   3.637
 8564TIP3   OH225636   7.752   5.132   5.472
 8564TIP3    H125637   7.702   5.120   5.552
 8564TIP3    H225638   7.688   5.119   5.401
 8565TIP3   OH225639   0.884   0.283   1.600
 8565TIP3    H125640   0.950   0.310   1.665
 8565TIP3    H225641   0.906   0.334   1.522
 8566TIP3   OH225642   6.098   5.794   3.563
 8566TIP3    H125643   6.118   5.884   3.536
 8566TIP3    H225644   6.018   5.772   3.517
 8567TIP3   OH225645   4.794   4.111   5.305
 8567TIP3    H125646   4.835   4.195   5.285
 8567TIP3    H225647   4.736   4.129   5.378
 8568TIP3   OH225648   2.145   3.922   5.396
 8568TIP3    H125649   2.187   3.904   5.480
 8568TIP3    H225650   2.194   3.869   5.333
 8569TIP3   OH225651   3.721   3.147   3.166
 8569TIP3    H125652   3.746   3.060   3.198
 8569TIP3    H225653   3.697   3.196   3.244
 8570TIP3   OH225654   7.306   6.468   1.227
 8570TIP3    H125655   7.367   6.468   1.154
 8570TIP3    H225656   7.297   6.560   1.251
 8571TIP3   OH225657   2.978   5.406   0.667
 8571TIP3    H125658   2.998   5.350   0.742
 8571TIP3    H225659   3.034   5.374   0.597
 8572TIP3   OH225660   4.329   0.089   1.023
 8572TIP3    H125661   4.372   0.045   1.096
 8572TIP3    H225662   4.358   0.180   1.028
 8573TIP3   OH225663   1.133   1.683   1.284
 8573TIP3    H125664   1.092   1.630   1.352
 8573TIP3    H225665   1.170   1.758   1.331
 8574TIP3   OH225666   4.453   1.084   5.861
 8574TIP3    H125667   4.468   1.178   5.870
 8574TIP3    H225668   4.519   1.055   5.798
 8575TIP3   OH225669   7.265   4.173   0.954
 8575TIP3    H125670   7.298   4.134   1.034
 8575TIP3    H225671   7.335   4.162   0.890
 8576TIP3   OH225672   7.405   2.332   0.974
 8576TIP3    H125673   7.351   2.264   0.935
 8576TIP3    H225674   7.495   2.299   0.966
 8577TIP3   OH225675   0.449   4.520   4.949
 8577TIP3    H125676   0.539   4.518   4.979
 8577TIP3    H225677   0.455   4.536   4.855
 8578TIP3   OH225678   6.655   6.366   5.718
 8578TIP3    H125679   6.714   6.383   5.645
 8578TIP3    H225680   6.572   6.343   5.677
 8579TIP3   OH225681   4.286   0.753   4.430
 8579TIP3    H125682   4.210   0.753   4.373
 8579TIP3    H225683   4.351   0.808   4.384
 8580TIP3   OH225684   5.095   1.716   0.685
 8580TIP3    H125685   5.123   1.748   0.770
 8580TIP3    H225686   5.007   1.753   0.674
 8581TIP3   OH225687   4.198   1.506   1.359
 8581TIP3    H125688   4.128   1.481   1.298
 8581TIP3    H225689   4.217   1.427   1.408
 8582TIP3   OH225690   1.375   4.489   2.504
 8582TIP3    H125691   1.298   4.480   2.448
 8582TIP3    H225692   1.424   4.562   2.465
 8583TIP3   OH225693   2.058   3.998   6.197
 8583TIP3    H125694   2.143   4.015   6.237
 8583TIP3    H225695   2.049   3.902   6.202
 8584TIP3   OH225696   7.561   2.201   1.595
 8584TIP3    H125697   7.513   2.201   1.678
 8584TIP3    H225698   7.650   2.178   1.619
 8585TIP3   OH225699   4.732   4.191   3.343
 8585TIP3    H125700   4.665   4.158   3.402
 8585TIP3    H225701   4.795   4.235   3.400
 8586TIP3   OH225702   7.711   3.263   2.490
 8586TIP3    H125703   7.704   3.224   2.577
 8586TIP3    H225704   7.745   3.193   2.434
 8587TIP3   OH225705   3.557   6.180   2.310
 8587TIP3    H125706   3.579   6.203   2.220
 8587TIP3    H225707   3.477   6.229   2.328
 8588TIP3   OH225708   0.910   2.147   5.497
 8588TIP3    H125709   0.887   2.182   5.411
 8588TIP3    H225710   1.006   2.145   5.497
 8589TIP3   OH225711   4.016   4.282   4.391
 8589TIP3    H125712   3.989   4.299   4.481
 8589TIP3    H225713   4.073   4.356   4.369
 8590TIP3   OH225714   5.340   2.035   6.702
 8590TIP3    H125715   5.415   2.044   6.761
 8590TIP3    H225716   5.293   1.959   6.736
 8591TIP3   OH225717   6.605   4.948   4.468
 8591TIP3    H125718   6.519   4.989   4.460
 8591TIP3    H225719   6.597   4.892   4.545
 8592TIP3   OH225720   0.450   7.584   6.467
 8592TIP3    H125721   0.381   7.586   6.401
 8592TIP3    H225722   0.530   7.565   6.418
 8593TIP3   OH225723   2.216   4.490   2.895
 8593TIP3    H125724   2.135   4.444   2.920
 8593TIP3    H225725   2.186   4.568   2.849
 8594TIP3   OH225726   2.672   5.222   4.339
 8594TIP3    H125727   2.664   5.315   4.320
 8594TIP3    H225728   2.631   5.178   4.264
 8595TIP3   OH225729   1.258   1.865   5.472
 8595TIP3    H125730   1.297   1.783   5.440
 8595TIP3    H225731   1.182   1.879   5.416
 8596TIP3   OH225732   2.052   2.081   1.713
 8596TIP3    H125733   2.109   2.005   1.703
 8596TIP3    H225734   2.098   2.152   1.669
 8597TIP3   OH225735   6.059   6.248   5.952
 8597TIP3    H125736   6.130   6.228   5.891
 8597TIP3    H225737   6.041   6.165   5.996
 8598TIP3   OH225738   2.921   5.123   2.909
 8598TIP3    H125739   2.981   5.067   2.859
 8598TIP3    H225740   2.834   5.095   2.881
 8599TIP3   OH225741   0.301   0.332   4.347
 8599TIP3    H125742   0.335   0.397   4.407
 8599TIP3    H225743   0.375   0.309   4.290
 8600TIP3   OH225744   6.914   1.316   0.735
 8600TIP3    H125745   6.826   1.293   0.767
 8600TIP3    H225746   6.914   1.412   0.734
 8601TIP3   OH225747   8.167   4.169   0.761
 8601TIP3    H125748   8.119   4.087   0.749
 8601TIP3    H225749   8.258   4.146   0.740
 8602TIP3   OH225750   4.147   4.198   1.554
 8602TIP3    H125751   4.178   4.221   1.642
 8602TIP3    H225752   4.198   4.253   1.495
 8603TIP3   OH225753   2.421   7.584   3.284
 8603TIP3    H125754   2.382   7.538   3.210
 8603TIP3    H225755   2.436   7.516   3.350
 8604TIP3   OH225756   4.975   4.016   1.506
 8604TIP3    H125757   4.945   3.962   1.433
 8604TIP3    H225758   5.043   4.071   1.469
 8605TIP3   OH225759   2.730   1.466   5.612
 8605TIP3    H125760   2.730   1.375   5.642
 8605TIP3    H225761   2.649   1.503   5.647
 8606TIP3   OH225762   1.461   1.189   4.649
 8606TIP3    H125763   1.499   1.254   4.590
 8606TIP3    H225764   1.479   1.223   4.736
 8607TIP3   OH225765   5.477   5.356  -0.001
 8607TIP3    H125766   5.467   5.346   0.094
 8607TIP3    H225767   5.427   5.435  -0.022
 8608TIP3   OH225768   0.604   2.424   0.282
 8608TIP3    H125769   0.634   2.417   0.373
 8608TIP3    H225770   0.564   2.339   0.264
 8609TIP3   OH225771   2.686   1.505   0.753
 8609TIP3    H125772   2.615   1.512   0.688
 8609TIP3    H225773   2.762   1.545   0.710
 8610TIP3   OH225774   3.823   0.960   2.108
 8610TIP3    H125775   3.819   0.909   2.027
 8610TIP3    H225776   3.797   1.048   2.081
 8611TIP3   OH225777   0.186   2.014   0.621
 8611TIP3    H125778   0.174   1.936   0.675
 8611TIP3    H225779   0.113   2.010   0.559
 8612TIP3   OH225780   4.190   0.385   0.344
 8612TIP3    H125781   4.279   0.400   0.313
 8612TIP3    H225782   4.192   0.298   0.384
 8613TIP3   OH225783   6.924   6.152   0.788
 8613TIP3    H125784   6.953   6.187   0.873
 8613TIP3    H225785   6.848   6.098   0.810
 8614TIP3   OH225786   6.494   1.332   2.694
 8614TIP3    H125787   6.508   1.291   2.609
 8614TIP3    H225788   6.434   1.273   2.740
 8615TIP3   OH225789   1.020   4.772   5.892
 8615TIP3    H125790   1.048   4.687   5.926
 8615TIP3    H225791   1.096   4.804   5.842
 8616TIP3   OH225792   2.871   3.333   4.668
 8616TIP3    H125793   2.965   3.319   4.658
 8616TIP3    H225794   2.832   3.290   4.592
 8617TIP3   OH225795   3.715   4.270   0.356
 8617TIP3    H125796   3.722   4.299   0.265
 8617TIP3    H225797   3.622   4.282   0.377
 8618TIP3   OH225798   1.895   6.315   2.169
 8618TIP3    H125799   1.927   6.340   2.255
 8618TIP3    H225800   1.960   6.350   2.108
 8619TIP3   OH225801   2.512   1.138   2.095
 8619TIP3    H125802   2.504   1.083   2.173
 8619TIP3    H225803   2.444   1.205   2.106
 8620TIP3   OH225804   4.952   7.359   1.861
 8620TIP3    H125805   5.010   7.287   1.836
 8620TIP3    H225806   4.909   7.385   1.780
 8621TIP3   OH225807   0.320   0.818   5.828
 8621TIP3    H125808   0.371   0.766   5.766
 8621TIP3    H225809   0.275   0.883   5.774
 8622TIP3   OH225810   2.445   0.625   2.406
 8622TIP3    H125811   2.388   0.617   2.482
 8622TIP3    H225812   2.457   0.536   2.374
 8623TIP3   OH225813   7.450   5.471   6.126
 8623TIP3    H125814   7.360   5.500   6.107
 8623TIP3    H225815   7.495   5.550   6.155
 8624TIP3   OH225816   0.386   6.651   1.125
 8624TIP3    H125817   0.370   6.566   1.084
 8624TIP3    H225818   0.355   6.640   1.215
 8625TIP3   OH225819   3.533   1.771   4.996
 8625TIP3    H125820   3.515   1.701   4.933
 8625TIP3    H225821   3.548   1.848   4.942
 8626TIP3   OH225822   3.516   3.321   4.791
 8626TIP3    H125823   3.578   3.268   4.740
 8626TIP3    H225824   3.522   3.287   4.880
 8627TIP3   OH225825   3.994   1.898   4.095
 8627TIP3    H125826   4.003   1.898   4.190
 8627TIP3    H225827   3.997   1.991   4.070
 8628TIP3   OH225828   3.591   4.103   4.651
 8628TIP3    H125829   3.671   4.079   4.698
 8628TIP3    H225830   3.521   4.066   4.704
 8629TIP3   OH225831   1.360   0.066   3.863
 8629TIP3    H125832   1.452   0.044   3.871
 8629TIP3    H225833   1.347   0.079   3.769
 8630TIP3   OH225834   7.527   6.354   4.418
 8630TIP3    H125835   7.489   6.442   4.425
 8630TIP3    H225836   7.462   6.297   4.458
 8631TIP3   OH225837   1.437   5.643   0.358
 8631TIP3    H125838   1.422   5.556   0.320
 8631TIP3    H225839   1.358   5.692   0.337
 8632TIP3   OH225840   5.913   5.087   1.400
 8632TIP3    H125841   5.839   5.133   1.440
 8632TIP3    H225842   5.981   5.154   1.393
 8633TIP3   OH225843   3.290   5.076   4.068
 8633TIP3    H125844   3.323   5.076   3.978
 8633TIP3    H225845   3.229   5.002   4.071
 8634TIP3   OH225846   5.814   1.990   2.086
 8634TIP3    H125847   5.749   1.939   2.038
 8634TIP3    H225848   5.781   1.991   2.176
 8635TIP3   OH225849   7.249   4.529   5.403
 8635TIP3    H125850   7.282   4.542   5.314
 8635TIP3    H225851   7.198   4.608   5.421
 8636TIP3   OH225852   7.259   4.366   0.730
 8636TIP3    H125853   7.281   4.458   0.722
 8636TIP3    H225854   7.267   4.347   0.823
 8637TIP3   OH225855   6.077   7.571   1.209
 8637TIP3    H125856   6.166   7.551   1.180
 8637TIP3    H225857   6.060   7.509   1.279
 8638TIP3   OH225858   7.374   5.559   0.029
 8638TIP3    H125859   7.334   5.485   0.074
 8638TIP3    H225860   7.303   5.621   0.016
 8639TIP3   OH225861   4.335   2.662   2.090
 8639TIP3    H125862   4.267   2.681   2.155
 8639TIP3    H225863   4.406   2.723   2.112
 8640TIP3   OH225864   1.435   6.318   4.971
 8640TIP3    H125865   1.404   6.231   4.999
 8640TIP3    H225866   1.505   6.299   4.909
 8641TIP3   OH225867   7.493   4.498   0.916
 8641TIP3    H125868   7.459   4.506   0.827
 8641TIP3    H225869   7.574   4.447   0.906
 8642TIP3   OH225870   1.134   4.549   6.007
 8642TIP3    H125871   1.178   4.623   6.049
 8642TIP3    H225872   1.189   4.473   6.027
 8643TIP3   OH225873   0.460   6.880   2.108
 8643TIP3    H125874   0.366   6.899   2.103
 8643TIP3    H225875   0.490   6.926   2.186
 8644TIP3   OH225876   3.353   3.336   6.217
 8644TIP3    H125877   3.259   3.351   6.224
 8644TIP3    H225878   3.373   3.346   6.124
 8645TIP3   OH225879   4.038   4.994   2.332
 8645TIP3    H125880   4.036   5.003   2.237
 8645TIP3    H225881   4.107   5.054   2.360
 8646TIP3   OH225882   5.152   4.290   5.722
 8646TIP3    H125883   5.118   4.380   5.725
 8646TIP3    H225884   5.087   4.242   5.671
 8647TIP3   OH225885   8.219   0.244   3.650
 8647TIP3    H125886   8.219   0.164   3.703
 8647TIP3    H225887   8.283   0.226   3.581
 8648TIP3   OH225888   0.021   5.919   3.683
 8648TIP3    H125889   0.103   5.877   3.658
 8648TIP3    H225890   0.041   5.965   3.764
 8649TIP3   OH225891   0.625   2.428   6.247
 8649TIP3    H125892   0.622   2.509   6.196
 8649TIP3    H225893   0.695   2.443   6.310
 8650TIP3   OH225894   6.190   6.281   4.121
 8650TIP3    H125895   6.206   6.211   4.057
 8650TIP3    H225896   6.170   6.235   4.202
 8651TIP3   OH225897   2.190   6.114   6.554
 8651TIP3    H125898   2.234   6.197   6.569
 8651TIP3    H225899   2.242   6.071   6.486
 8652TIP3   OH225900   1.291   5.747   1.301
 8652TIP3    H125901   1.384   5.748   1.320
 8652TIP3    H225902   1.251   5.795   1.373
 8653TIP3   OH225903   0.589   1.165   0.442
 8653TIP3    H125904   0.624   1.213   0.367
 8653TIP3    H225905   0.601   1.225   0.516
 8654TIP3   OH225906   7.282   7.755   1.488
 8654TIP3    H125907   7.302   7.736   1.396
 8654TIP3    H225908   7.194   7.720   1.500
 8655TIP3   OH225909   3.862   7.435   6.465
 8655TIP3    H125910   3.892   7.417   6.554
 8655TIP3    H225911   3.880   7.354   6.417
 8656TIP3   OH225912   7.304   3.111   4.007
 8656TIP3    H125913   7.336   3.174   3.943
 8656TIP3    H225914   7.382   3.079   4.051
 8657TIP3   OH225915   1.813   6.550   1.168
 8657TIP3    H125916   1.832   6.465   1.208
 8657TIP3    H225917   1.781   6.528   1.080
 8658TIP3   OH225918   8.209   4.082   2.526
 8658TIP3    H125919   8.303   4.077   2.546
 8658TIP3    H225920   8.176   4.149   2.587
 8659TIP3   OH225921   4.917   7.117   2.825
 8659TIP3    H125922   4.848   7.058   2.857
 8659TIP3    H225923   4.981   7.058   2.785
 8660TIP3   OH225924   3.972   2.071   3.100
 8660TIP3    H125925   3.900   2.046   3.157
 8660TIP3    H225926   3.953   2.161   3.074
 8661TIP3   OH225927   3.139   5.401   2.275
 8661TIP3    H125928   3.182   5.365   2.353
 8661TIP3    H225929   3.138   5.329   2.213
 8662TIP3   OH225930   3.379   3.792   2.419
 8662TIP3    H125931   3.364   3.716   2.363
 8662TIP3    H225932   3.467   3.778   2.455
 8663TIP3   OH225933   3.812   7.374   1.886
 8663TIP3    H125934   3.808   7.283   1.859
 8663TIP3    H225935   3.854   7.373   1.972
 8664TIP3   OH225936   6.450   3.884   5.682
 8664TIP3    H125937   6.475   3.922   5.598
 8664TIP3    H225938   6.398   3.807   5.659
 8665TIP3   OH225939   0.838   5.491   0.767
 8665TIP3    H125940   0.923   5.481   0.726
 8665TIP3    H225941   0.811   5.581   0.747
 8666TIP3   OH225942   6.421   7.073   3.154
 8666TIP3    H125943   6.417   7.076   3.249
 8666TIP3    H225944   6.343   7.121   3.125
 8667TIP3   OH225945   2.410   6.479   1.065
 8667TIP3    H125946   2.429   6.408   1.004
 8667TIP3    H225947   2.437   6.558   1.019
 8668TIP3   OH225948   6.344   0.864   2.323
 8668TIP3    H125949   6.348   0.770   2.345
 8668TIP3    H225950   6.420   0.902   2.368
 8669TIP3   OH225951   7.497   2.756   4.511
 8669TIP3    H125952   7.571   2.790   4.462
 8669TIP3    H225953   7.481   2.821   4.580
 8670TIP3   OH225954   3.869   2.515   1.126
 8670TIP3    H125955   3.840   2.591   1.175
 8670TIP3    H225956   3.793   2.489   1.074
 8671TIP3   OH225957   1.353   5.718   4.343
 8671TIP3    H125958   1.295   5.761   4.406
 8671TIP3    H225959   1.410   5.787   4.311
 8672TIP3   OH225960   2.195   0.904   2.836
 8672TIP3    H125961   2.142   0.879   2.912
 8672TIP3    H225962   2.254   0.972   2.870
 8673TIP3   OH225963   2.896   1.160   5.818
 8673TIP3    H125964   2.804   1.138   5.828
 8673TIP3    H225965   2.923   1.195   5.903
 8674TIP3   OH225966   2.843   5.403   3.449
 8674TIP3    H125967   2.867   5.336   3.385
 8674TIP3    H225968   2.758   5.376   3.482
 8675TIP3   OH225969   1.528   5.256   3.057
 8675TIP3    H125970   1.452   5.217   3.015
 8675TIP3    H225971   1.599   5.193   3.042
 8676TIP3   OH225972   1.691   6.916   5.280
 8676TIP3    H125973   1.611   6.867   5.298
 8676TIP3    H225974   1.761   6.852   5.292
 8677TIP3   OH225975   1.133   3.381   6.531
 8677TIP3    H125976   1.103   3.383   6.622
 8677TIP3    H225977   1.066   3.429   6.482
 8678TIP3   OH225978   4.484   5.959   4.463
 8678TIP3    H125979   4.416   5.954   4.530
 8678TIP3    H225980   4.523   6.045   4.474
 8679TIP3   OH225981   4.766   4.307   1.294
 8679TIP3    H125982   4.749   4.242   1.362
 8679TIP3    H225983   4.821   4.373   1.338
 8680TIP3   OH225984   1.276   6.232   0.759
 8680TIP3    H125985   1.231   6.264   0.837
 8680TIP3    H225986   1.368   6.254   0.773
 8681TIP3   OH225987   6.916   2.997   2.332
 8681TIP3    H125988   6.970   3.050   2.272
 8681TIP3    H225989   6.875   2.932   2.276
 8682TIP3   OH225990   0.721   1.195   0.041
 8682TIP3    H125991   0.662   1.125   0.012
 8682TIP3    H225992   0.797   1.187  -0.017
 8683TIP3   OH225993   3.733   3.815   3.867
 8683TIP3    H125994   3.684   3.744   3.826
 8683TIP3    H225995   3.706   3.894   3.818
 8684TIP3   OH225996   2.371   1.627   5.406
 8684TIP3    H125997   2.357   1.710   5.361
 8684TIP3    H225998   2.466   1.615   5.405
 8685TIP3   OH225999   8.246   6.365   5.424
 8685TIP3    H126000   8.235   6.348   5.517
 8685TIP3    H226001   8.251   6.460   5.417
 8686TIP3   OH226002   3.948   2.008   1.510
 8686TIP3    H126003   3.955   1.950   1.586
 8686TIP3    H226004   4.016   2.074   1.524
 8687TIP3   OH226005   5.598   7.764   1.708
 8687TIP3    H126006   5.623   7.772   1.616
 8687TIP3    H226007   5.637   7.681   1.736
 8688TIP3   OH226008   7.810   0.456   5.470
 8688TIP3    H126009   7.745   0.518   5.435
 8688TIP3    H226010   7.889   0.472   5.417
 8689TIP3   OH226011   7.269   6.883   6.518
 8689TIP3    H126012   7.184   6.840   6.524
 8689TIP3    H226013   7.304   6.854   6.433
 8690TIP3   OH226014   1.646   2.878   2.678
 8690TIP3    H126015   1.619   2.810   2.616
 8690TIP3    H226016   1.720   2.839   2.724
 8691TIP3   OH226017   6.249   7.506   6.160
 8691TIP3    H126018   6.189   7.435   6.139
 8691TIP3    H226019   6.336   7.470   6.142
 8692TIP3   OH226020   5.564   2.474   1.953
 8692TIP3    H126021   5.470   2.456   1.952
 8692TIP3    H226022   5.604   2.387   1.952
 8693TIP3   OH226023   3.864   3.735   2.439
 8693TIP3    H126024   3.940   3.732   2.497
 8693TIP3    H226025   3.838   3.643   2.430
 8694TIP3   OH226026   6.837   5.210   6.147
 8694TIP3    H126027   6.919   5.164   6.166
 8694TIP3    H226028   6.863   5.303   6.146
 8695TIP3   OH226029   5.347   6.962   4.248
 8695TIP3    H126030   5.324   6.894   4.312
 8695TIP3    H226031   5.349   7.043   4.299
 8696TIP3   OH226032   5.292   5.980   5.846
 8696TIP3    H126033   5.263   5.988   5.755
 8696TIP3    H226034   5.225   5.925   5.887
 8697TIP3   OH226035   2.300   4.659   6.650
 8697TIP3    H126036   2.246   4.738   6.643
 8697TIP3    H226037   2.286   4.628   6.739
 8698TIP3   OH226038   3.546   0.796   4.247
 8698TIP3    H126039   3.451   0.802   4.243
 8698TIP3    H226040   3.568   0.716   4.199
 8699TIP3   OH226041   7.639   7.415   0.800
 8699TIP3    H126042   7.708   7.423   0.865
 8699TIP3    H226043   7.683   7.383   0.721
 8700TIP3   OH226044   2.902   1.204   2.187
 8700TIP3    H126045   2.908   1.149   2.108
 8700TIP3    H226046   2.917   1.293   2.155
 8701TIP3   OH226047   2.954   3.911   5.360
 8701TIP3    H126048   2.950   3.919   5.455
 8701TIP3    H226049   3.023   3.846   5.344
 8702TIP3   OH226050   1.583   7.796   2.053
 8702TIP3    H126051   1.524   7.736   2.098
 8702TIP3    H226052   1.598   7.866   2.116
 8703TIP3   OH226053   7.287   3.807   4.040
 8703TIP3    H126054   7.237   3.803   3.958
 8703TIP3    H226055   7.232   3.763   4.104
 8704TIP3   OH226056   4.418   4.032   4.600
 8704TIP3    H126057   4.513   4.030   4.604
 8704TIP3    H226058   4.391   4.086   4.674
 8705TIP3   OH226059   7.517   2.746   1.354
 8705TIP3    H126060   7.535   2.725   1.263
 8705TIP3    H226061   7.576   2.690   1.404
 8706TIP3   OH226062   4.562   5.506   1.170
 8706TIP3    H126063   4.595   5.497   1.260
 8706TIP3    H226064   4.640   5.520   1.117
 8707TIP3   OH226065   7.218   3.455   4.008
 8707TIP3    H126066   7.160   3.437   4.083
 8707TIP3    H226067   7.304   3.425   4.037
 8708TIP3   OH226068   2.988   1.463   6.161
 8708TIP3    H126069   2.925   1.507   6.103
 8708TIP3    H226070   2.978   1.508   6.245
 8709TIP3   OH226071   6.634   7.780   0.720
 8709TIP3    H126072   6.687   7.779   0.641
 8709TIP3    H226073   6.636   7.871   0.749
 8710TIP3   OH226074   5.950   1.835   1.250
 8710TIP3    H126075   5.943   1.757   1.305
 8710TIP3    H226076   6.016   1.813   1.185
 8711TIP3   OH226077   6.442   5.197   1.085
 8711TIP3    H126078   6.490   5.139   1.026
 8711TIP3    H226079   6.362   5.218   1.036
 8712TIP3   OH226080   4.159   3.264   0.355
 8712TIP3    H126081   4.068   3.256   0.326
 8712TIP3    H226082   4.155   3.249   0.450
 8713TIP3   OH226083   5.219   6.933   4.500
 8713TIP3    H126084   5.147   6.875   4.477
 8713TIP3    H226085   5.176   7.013   4.530
 8714TIP3   OH226086   0.154   1.259   4.570
 8714TIP3    H126087   0.076   1.309   4.544
 8714TIP3    H226088   0.218   1.276   4.501
 8715TIP3   OH226089   3.507   1.957   6.397
 8715TIP3    H126090   3.515   1.932   6.305
 8715TIP3    H226091   3.522   2.051   6.398
 8716TIP3   OH226092   3.346   2.895   2.382
 8716TIP3    H126093   3.297   2.858   2.455
 8716TIP3    H226094   3.289   2.883   2.306
 8717TIP3   OH226095   5.144   4.164   0.490
 8717TIP3    H126096   5.089   4.231   0.531
 8717TIP3    H226097   5.209   4.141   0.557
 8718TIP3   OH226098   2.341   4.513   6.001
 8718TIP3    H126099   2.377   4.475   6.081
 8718TIP3    H226100   2.258   4.466   5.988
 8719TIP3   OH226101   2.939   2.005   6.792
 8719TIP3    H126102   2.919   2.079   6.734
 8719TIP3    H226103   2.853   1.965   6.809
 8720TIP3   OH226104   0.938   1.873   5.742
 8720TIP3    H126105   0.993   1.842   5.670
 8720TIP3    H226106   0.877   1.935   5.701
 8721TIP3   OH226107   1.337   3.974   4.958
 8721TIP3    H126108   1.395   3.934   4.893
 8721TIP3    H226109   1.340   3.915   5.033
 8722TIP3   OH226110   4.161   5.763   2.769
 8722TIP3    H126111   4.080   5.780   2.817
 8722TIP3    H226112   4.158   5.670   2.748
 8723TIP3   OH226113   0.006   6.006   0.114
 8723TIP3    H126114   0.042   6.089   0.084
 8723TIP3    H226115   0.057   5.984   0.192
 8724TIP3   OH226116   3.674   0.485   5.609
 8724TIP3    H126117   3.718   0.472   5.525
 8724TIP3    H226118   3.609   0.416   5.613
 8725TIP3   OH226119   3.638   2.276   2.324
 8725TIP3    H126120   3.703   2.231   2.377
 8725TIP3    H226121   3.670   2.365   2.316
 8726TIP3   OH226122   2.251   6.417   4.974
 8726TIP3    H126123   2.157   6.418   4.953
 8726TIP3    H226124   2.293   6.394   4.891
 8727TIP3   OH226125   3.485   0.916   6.396
 8727TIP3    H126126   3.512   0.832   6.359
 8727TIP3    H226127   3.449   0.965   6.321
 8728TIP3   OH226128   5.076   2.349   0.855
 8728TIP3    H126129   5.006   2.369   0.916
 8728TIP3    H226130   5.131   2.427   0.855
 8729TIP3   OH226131   1.343   1.377   2.634
 8729TIP3    H126132   1.406   1.391   2.563
 8729TIP3    H226133   1.260   1.363   2.589
 8730TIP3   OH226134   3.778   0.229   5.464
 8730TIP3    H126135   3.741   0.277   5.389
 8730TIP3    H226136   3.709   0.169   5.490
 8731TIP3   OH226137   6.730   0.293   6.470
 8731TIP3    H126138   6.708   0.342   6.391
 8731TIP3    H226139   6.673   0.330   6.537
 8732TIP3   OH226140   5.844   4.018   5.201
 8732TIP3    H126141   5.788   4.001   5.277
 8732TIP3    H226142   5.791   3.992   5.125
 8733TIP3   OH226143   4.351   7.687   0.052
 8733TIP3    H126144   4.387   7.756   0.108
 8733TIP3    H226145   4.389   7.703  -0.034
 8734TIP3   OH226146   3.766   6.321   4.616
 8734TIP3    H126147   3.772   6.406   4.572
 8734TIP3    H226148   3.764   6.342   4.709
 8735TIP3   OH226149   0.858   6.067   2.814
 8735TIP3    H126150   0.921   6.001   2.842
 8735TIP3    H226151   0.827   6.036   2.729
 8736TIP3   OH226152   5.793   0.887   0.731
 8736TIP3    H126153   5.744   0.840   0.664
 8736TIP3    H226154   5.876   0.840   0.737
 8737TIP3   OH226155   4.526   7.717   3.747
 8737TIP3    H126156   4.463   7.646   3.738
 8737TIP3    H226157   4.549   7.741   3.657
 8738TIP3   OH226158   5.142   0.081   5.996
 8738TIP3    H126159   5.173   0.111   5.910
 8738TIP3    H226160   5.072   0.143   6.019
 8739TIP3   OH226161   8.085   1.940   4.394
 8739TIP3    H126162   8.133   1.888   4.329
 8739TIP3    H226163   8.121   2.028   4.386
 8740TIP3   OH226164   5.417   4.940   1.760
 8740TIP3    H126165   5.489   4.878   1.742
 8740TIP3    H226166   5.393   4.922   1.850
 8741TIP3   OH226167   6.315   0.115   6.159
 8741TIP3    H126168   6.237   0.106   6.105
 8741TIP3    H226169   6.381   0.060   6.116
 8742TIP3   OH226170   6.324   1.556   4.758
 8742TIP3    H126171   6.403   1.503   4.754
 8742TIP3    H226172   6.272   1.518   4.829
 8743TIP3   OH226173   4.338   6.826   3.651
 8743TIP3    H126174   4.328   6.731   3.647
 8743TIP3    H226175   4.428   6.842   3.621
 8744TIP3   OH226176   5.659   3.900   4.116
 8744TIP3    H126177   5.633   3.991   4.128
 8744TIP3    H226178   5.597   3.866   4.051
 8745TIP3   OH226179   4.104   4.715   3.449
 8745TIP3    H126180   4.074   4.678   3.532
 8745TIP3    H226181   4.055   4.796   3.440
 8746TIP3   OH226182   2.553   7.774   5.413
 8746TIP3    H126183   2.644   7.746   5.401
 8746TIP3    H226184   2.521   7.722   5.486
 8747TIP3   OH226185   5.812   3.623   1.020
 8747TIP3    H126186   5.748   3.554   1.004
 8747TIP3    H226187   5.797   3.686   0.950
 8748TIP3   OH226188   6.179   6.479   6.006
 8748TIP3    H126189   6.202   6.505   5.917
 8748TIP3    H226190   6.128   6.400   5.995
 8749TIP3   OH226191   0.268   0.047   4.547
 8749TIP3    H126192   0.206   0.079   4.614
 8749TIP3    H226193   0.348   0.096   4.563
 8750TIP3   OH226194   2.702   5.495   4.248
 8750TIP3    H126195   2.794   5.523   4.254
 8750TIP3    H226196   2.652   5.572   4.274
 8751TIP3   OH226197   5.938   6.744   1.479
 8751TIP3    H126198   5.853   6.748   1.435
 8751TIP3    H226199   5.954   6.651   1.493
 8752TIP3   OH226200   5.641   3.846   0.522
 8752TIP3    H126201   5.698   3.840   0.598
 8752TIP3    H226202   5.697   3.878   0.452
 8753TIP3   OH226203   3.247   5.665   6.627
 8753TIP3    H126204   3.241   5.582   6.579
 8753TIP3    H226205   3.329   5.659   6.675
 8754TIP3   OH226206   1.344   2.884   1.222
 8754TIP3    H126207   1.277   2.906   1.157
 8754TIP3    H226208   1.356   2.790   1.214
 8755TIP3   OH226209   0.437   2.866   4.105
 8755TIP3    H126210   0.352   2.821   4.113
 8755TIP3    H226211   0.415   2.954   4.074
 8756TIP3   OH226212   7.984   4.617   6.468
 8756TIP3    H126213   8.030   4.646   6.547
 8756TIP3    H226214   7.927   4.690   6.445
 8757TIP3   OH226215   1.026   0.459   3.280
 8757TIP3    H126216   1.117   0.482   3.299
 8757TIP3    H226217   1.028   0.426   3.190
 8758TIP3   OH226218   7.617   2.331   4.441
 8758TIP3    H126219   7.666   2.262   4.398
 8758TIP3    H226220   7.586   2.387   4.370
 8759TIP3   OH226221   2.047   4.286   5.118
 8759TIP3    H126222   2.098   4.366   5.133
 8759TIP3    H226223   2.020   4.259   5.205
 8760TIP3   OH226224   0.511   0.674   5.358
 8760TIP3    H126225   0.542   0.764   5.365
 8760TIP3    H226226   0.591   0.621   5.363
 8761TIP3   OH226227   5.451   3.461   2.120
 8761TIP3    H126228   5.426   3.472   2.212
 8761TIP3    H226229   5.370   3.479   2.072
 8762TIP3   OH226230   0.392   0.396   0.740
 8762TIP3    H126231   0.424   0.443   0.663
 8762TIP3    H226232   0.387   0.305   0.712
 8763TIP3   OH226233   6.823   2.510   5.028
 8763TIP3    H126234   6.775   2.560   4.962
 8763TIP3    H226235   6.902   2.480   4.983
 8764TIP3   OH226236   5.150   7.502   0.427
 8764TIP3    H126237   5.154   7.444   0.351
 8764TIP3    H226238   5.209   7.574   0.406
 8765TIP3   OH226239   5.158   0.651   5.478
 8765TIP3    H126240   5.160   0.625   5.570
 8765TIP3    H226241   5.199   0.737   5.477
 8766TIP3   OH226242   1.909   2.042   6.198
 8766TIP3    H126243   1.924   1.959   6.153
 8766TIP3    H226244   1.832   2.025   6.253
 8767TIP3   OH226245   7.456   1.729   1.970
 8767TIP3    H126246   7.462   1.720   1.875
 8767TIP3    H226247   7.439   1.822   1.985
 8768TIP3   OH226248   2.181   4.495   4.407
 8768TIP3    H126249   2.194   4.589   4.419
 8768TIP3    H226250   2.177   4.461   4.496
 8769TIP3   OH226251   5.983   2.132   2.353
 8769TIP3    H126252   6.005   2.142   2.260
 8769TIP3    H226253   6.068   2.131   2.397
 8770TIP3   OH226254   8.291   6.289   0.169
 8770TIP3    H126255   8.201   6.258   0.181
 8770TIP3    H226256   8.316   6.325   0.254
 8771TIP3   OH226257   2.097   1.485   3.868
 8771TIP3    H126258   2.078   1.483   3.774
 8771TIP3    H226259   2.113   1.394   3.892
 8772TIP3   OH226260   1.411   7.239   6.581
 8772TIP3    H126261   1.394   7.195   6.664
 8772TIP3    H226262   1.333   7.221   6.528
 8773TIP3   OH226263   6.579   7.699   2.446
 8773TIP3    H126264   6.647   7.641   2.483
 8773TIP3    H226265   6.627   7.777   2.419
 8774TIP3   OH226266   3.944   1.177   3.184
 8774TIP3    H126267   3.915   1.186   3.275
 8774TIP3    H226268   3.944   1.083   3.168
 8775TIP3   OH226269   5.379   5.614   1.024
 8775TIP3    H126270   5.423   5.695   1.052
 8775TIP3    H226271   5.375   5.621   0.929
 8776TIP3   OH226272   5.546   1.514   3.457
 8776TIP3    H126273   5.533   1.604   3.426
 8776TIP3    H226274   5.457   1.478   3.464
 8777TIP3   OH226275   7.190   4.979   0.059
 8777TIP3    H126276   7.182   4.885   0.043
 8777TIP3    H226277   7.106   5.005   0.097
 8778TIP3   OH226278   7.237   3.819   5.618
 8778TIP3    H126279   7.317   3.871   5.625
 8778TIP3    H226280   7.234   3.794   5.525
 8779TIP3   OH226281   1.743   6.792   6.519
 8779TIP3    H126282   1.751   6.882   6.553
 8779TIP3    H226283   1.661   6.792   6.470
 8780TIP3   OH226284   2.861   6.185   2.465
 8780TIP3    H126285   2.929   6.163   2.528
 8780TIP3    H226286   2.860   6.111   2.404
 8781TIP3   OH226287   7.532   0.488   4.614
 8781TIP3    H126288   7.563   0.570   4.574
 8781TIP3    H226289   7.476   0.448   4.547
 8782TIP3   OH226290   4.461   6.684   6.679
 8782TIP3    H126291   4.538   6.637   6.648
 8782TIP3    H226292   4.470   6.683   6.774
 8783TIP3   OH226293   1.173   3.928   2.373
 8783TIP3    H126294   1.265   3.905   2.356
 8783TIP3    H226295   1.133   3.930   2.286
 8784TIP3   OH226296   1.074   0.368   6.651
 8784TIP3    H126297   1.125   0.449   6.640
 8784TIP3    H226298   1.035   0.376   6.738
 8785TIP3   OH226299   5.586   7.227   2.195
 8785TIP3    H126300   5.515   7.249   2.134
 8785TIP3    H226301   5.658   7.199   2.138
 8786TIP3   OH226302   2.308   6.743   3.098
 8786TIP3    H126303   2.352   6.671   3.143
 8786TIP3    H226304   2.351   6.747   3.012
 8787TIP3   OH226305   7.077   2.344   6.660
 8787TIP3    H126306   6.998   2.308   6.701
 8787TIP3    H226307   7.091   2.427   6.706
 8788TIP3   OH226308   2.950   1.231   4.987
 8788TIP3    H126309   2.936   1.231   4.892
 8788TIP3    H226310   2.976   1.320   5.007
 8789TIP3   OH226311   1.199   7.501   6.631
 8789TIP3    H126312   1.192   7.437   6.560
 8789TIP3    H226313   1.241   7.454   6.703
 8790TIP3   OH226314   7.228   5.183   1.882
 8790TIP3    H126315   7.261   5.158   1.796
 8790TIP3    H226316   7.285   5.136   1.944
 8791TIP3   OH226317   7.393   5.952   5.878
 8791TIP3    H126318   7.353   5.913   5.955
 8791TIP3    H226319   7.474   5.902   5.864
 8792TIP3   OH226320   5.479   6.341   6.518
 8792TIP3    H126321   5.456   6.407   6.452
 8792TIP3    H226322   5.563   6.371   6.553
 8793TIP3   OH226323   4.174   7.476   5.683
 8793TIP3    H126324   4.185   7.393   5.730
 8793TIP3    H226325   4.263   7.499   5.655
 8794TIP3   OH226326   7.505   6.512   6.740
 8794TIP3    H126327   7.586   6.464   6.755
 8794TIP3    H226328   7.528   6.579   6.676
 8795TIP3   OH226329   0.202   0.836   0.531
 8795TIP3    H126330   0.224   0.929   0.529
 8795TIP3    H226331   0.228   0.803   0.445
 8796TIP3   OH226332   7.988   2.537   5.651
 8796TIP3    H126333   7.928   2.522   5.578
 8796TIP3    H226334   8.074   2.542   5.610
 8797TIP3   OH226335   5.653   1.968   2.846
 8797TIP3    H126336   5.722   1.965   2.779
 8797TIP3    H226337   5.673   2.048   2.896
 8798TIP3   OH226338   0.229   4.372   2.725
 8798TIP3    H126339   0.313   4.415   2.745
 8798TIP3    H226340   0.163   4.438   2.744
 8799TIP3   OH226341   4.582   1.795   1.738
 8799TIP3    H126342   4.498   1.789   1.783
 8799TIP3    H226343   4.628   1.715   1.762
 8800TIP3   OH226344   8.017   3.677   6.494
 8800TIP3    H126345   7.924   3.679   6.472
 8800TIP3    H226346   8.038   3.585   6.503
 8801TIP3   OH226347   6.184   7.235   3.126
 8801TIP3    H126348   6.161   7.228   3.218
 8801TIP3    H226349   6.209   7.326   3.114
 8802TIP3   OH226350   4.198   3.906   4.976
 8802TIP3    H126351   4.267   3.955   5.021
 8802TIP3    H226352   4.188   3.825   5.026
 8803TIP3   OH226353   3.649   5.899   0.697
 8803TIP3    H126354   3.697   5.980   0.683
 8803TIP3    H226355   3.570   5.926   0.745
 8804TIP3   OH226356   7.134   1.021   1.150
 8804TIP3    H126357   7.068   1.091   1.150
 8804TIP3    H226358   7.179   1.030   1.234
 8805TIP3   OH226359   4.320   1.849   2.525
 8805TIP3    H126360   4.350   1.897   2.603
 8805TIP3    H226361   4.355   1.899   2.451
 8806TIP3   OH226362   1.553   3.855   2.547
 8806TIP3    H126363   1.476   3.801   2.531
 8806TIP3    H226364   1.627   3.800   2.521
 8807TIP3   OH226365   5.020   3.991   2.771
 8807TIP3    H126366   4.959   3.936   2.822
 8807TIP3    H226367   5.101   3.940   2.768
 8808TIP3   OH226368   4.801   7.724   4.867
 8808TIP3    H126369   4.820   7.682   4.783
 8808TIP3    H226370   4.804   7.818   4.848
 8809TIP3   OH226371   7.070   7.479   3.301
 8809TIP3    H126372   7.054   7.568   3.270
 8809TIP3    H226373   7.017   7.471   3.381
 8810TIP3   OH226374   7.577   5.716   5.506
 8810TIP3    H126375   7.537   5.678   5.585
 8810TIP3    H226376   7.583   5.643   5.444
 8811TIP3   OH226377   3.722   2.370   6.733
 8811TIP3    H126378   3.675   2.429   6.674
 8811TIP3    H226379   3.752   2.298   6.677
 8812TIP3   OH226380   7.756   0.296   1.279
 8812TIP3    H126381   7.749   0.391   1.282
 8812TIP3    H226382   7.689   0.268   1.217
 8813TIP3   OH226383   6.119   7.010   0.476
 8813TIP3    H126384   6.118   7.106   0.469
 8813TIP3    H226385   6.030   6.988   0.503
 8814TIP3   OH226386   6.528   2.678   4.559
 8814TIP3    H126387   6.436   2.658   4.540
 8814TIP3    H226388   6.574   2.595   4.542
 8815TIP3   OH226389   7.265   5.390   4.412
 8815TIP3    H126390   7.182   5.347   4.433
 8815TIP3    H226391   7.252   5.481   4.437
 8816TIP3   OH226392   4.370   3.969   4.351
 8816TIP3    H126393   4.400   3.975   4.441
 8816TIP3    H226394   4.399   3.883   4.321
 8817TIP3   OH226395   5.974   6.666   5.826
 8817TIP3    H126396   6.058   6.640   5.789
 8817TIP3    H226397   5.922   6.696   5.751
 8818TIP3   OH226398   0.883   7.304   4.786
 8818TIP3    H126399   0.826   7.362   4.735
 8818TIP3    H226400   0.830   7.278   4.862
 8819TIP3   OH226401   1.227   0.263   1.005
 8819TIP3    H126402   1.189   0.274   1.092
 8819TIP3    H226403   1.306   0.317   1.007
 8820TIP3   OH226404   7.431   2.765   4.959
 8820TIP3    H126405   7.401   2.725   5.041
 8820TIP3    H226406   7.463   2.851   4.985
 8821TIP3   OH226407   0.665   1.319   5.347
 8821TIP3    H126408   0.759   1.337   5.338
 8821TIP3    H226409   0.623   1.393   5.304
 8822TIP3   OH226410   1.536   1.760   6.200
 8822TIP3    H126411   1.625   1.753   6.232
 8822TIP3    H226412   1.545   1.770   6.106
 8823TIP3   OH226413   3.515   3.478   2.164
 8823TIP3    H126414   3.449   3.531   2.118
 8823TIP3    H226415   3.590   3.536   2.172
 8824TIP3   OH226416   5.872   5.042   6.122
 8824TIP3    H126417   5.813   5.074   6.053
 8824TIP3    H226418   5.864   5.105   6.193
 8825TIP3   OH226419   6.546   2.633   0.162
 8825TIP3    H126420   6.461   2.607   0.127
 8825TIP3    H226421   6.531   2.720   0.200
 8826TIP3   OH226422   6.048   1.386   4.660
 8826TIP3    H126423   5.992   1.394   4.737
 8826TIP3    H226424   6.022   1.459   4.603
 8827TIP3   OH226425   6.660   5.698   6.673
 8827TIP3    H126426   6.582   5.646   6.651
 8827TIP3    H226427   6.666   5.691   6.768
 8828TIP3   OH226428   1.647   1.645   2.056
 8828TIP3    H126429   1.714   1.712   2.067
 8828TIP3    H226430   1.596   1.675   1.981
 8829TIP3   OH226431   3.423   4.017   3.280
 8829TIP3    H126432   3.430   3.991   3.372
 8829TIP3    H226433   3.328   4.025   3.264
 8830TIP3   OH226434   7.812   0.811   2.236
 8830TIP3    H126435   7.823   0.802   2.331
 8830TIP3    H226436   7.718   0.821   2.224
 8831TIP3   OH226437   1.731   6.748   0.054
 8831TIP3    H126438   1.752   6.768   0.145
 8831TIP3    H226439   1.759   6.825   0.005
 8832TIP3   OH226440   2.007   6.027   1.497
 8832TIP3    H126441   2.012   5.941   1.540
 8832TIP3    H226442   2.044   6.088   1.561
 8833TIP3   OH226443   5.003   3.651   1.737
 8833TIP3    H126444   4.984   3.734   1.780
 8833TIP3    H226445   4.955   3.586   1.788
 8834TIP3   OH226446   4.013   7.169   3.548
 8834TIP3    H126447   3.918   7.169   3.548
 8834TIP3    H226448   4.038   7.078   3.561
 8835TIP3   OH226449   0.443   2.395   2.690
 8835TIP3    H126450   0.442   2.345   2.608
 8835TIP3    H226451   0.536   2.409   2.708
 8836TIP3   OH226452   7.120   0.413   3.041
 8836TIP3    H126453   7.116   0.319   3.026
 8836TIP3    H226454   7.068   0.451   2.970
 8837TIP3   OH226455   7.547   1.019   4.140
 8837TIP3    H126456   7.489   1.078   4.187
 8837TIP3    H226457   7.527   1.035   4.048
 8838TIP3   OH226458   3.983   7.223   4.972
 8838TIP3    H126459   4.076   7.247   4.979
 8838TIP3    H226460   3.937   7.306   4.964
 8839TIP3   OH226461   4.881   6.036   2.289
 8839TIP3    H126462   4.931   6.044   2.207
 8839TIP3    H226463   4.811   6.101   2.281
 8840TIP3   OH226464   7.687   0.925   6.219
 8840TIP3    H126465   7.616   0.962   6.272
 8840TIP3    H226466   7.754   0.900   6.283
 8841TIP3   OH226467   7.831   1.025   5.606
 8841TIP3    H126468   7.741   1.016   5.637
 8841TIP3    H226469   7.884   0.980   5.671
 8842TIP3   OH226470   6.018   0.608   2.968
 8842TIP3    H126471   6.025   0.558   3.049
 8842TIP3    H226472   6.105   0.605   2.930
 8843TIP3   OH226473   1.543   0.611   4.291
 8843TIP3    H126474   1.560   0.518   4.276
 8843TIP3    H226475   1.623   0.655   4.265
 8844TIP3   OH226476   0.064   7.279   3.317
 8844TIP3    H126477   0.133   7.295   3.381
 8844TIP3    H226478   0.105   7.224   3.250
 8845TIP3   OH226479   7.936   3.321   4.650
 8845TIP3    H126480   7.877   3.292   4.719
 8845TIP3    H226481   7.952   3.243   4.597
 8846TIP3   OH226482   3.022   1.572   6.443
 8846TIP3    H126483   3.113   1.550   6.424
 8846TIP3    H226484   3.022   1.667   6.452
 8847TIP3   OH226485   7.214   6.542   5.677
 8847TIP3    H126486   7.206   6.454   5.641
 8847TIP3    H226487   7.126   6.563   5.709
 8848TIP3   OH226488   2.797   5.761   1.785
 8848TIP3    H126489   2.884   5.754   1.824
 8848TIP3    H226490   2.737   5.740   1.857
 8849TIP3   OH226491   4.955   4.024   2.501
 8849TIP3    H126492   5.027   4.080   2.470
 8849TIP3    H226493   4.945   4.047   2.593
 8850TIP3   OH226494   3.287   0.563   2.276
 8850TIP3    H126495   3.305   0.470   2.289
 8850TIP3    H226496   3.272   0.572   2.182
 8851TIP3   OH226497   6.745   7.433   3.728
 8851TIP3    H126498   6.674   7.376   3.758
 8851TIP3    H226499   6.700   7.506   3.686
 8852TIP3   OH226500   3.368   0.481   3.677
 8852TIP3    H126501   3.426   0.419   3.633
 8852TIP3    H226502   3.427   0.549   3.711
 8853TIP3   OH226503   7.437   4.618   3.246
 8853TIP3    H126504   7.492   4.592   3.173
 8853TIP3    H226505   7.445   4.547   3.309
 8854TIP3   OH226506   2.239   6.425   4.016
 8854TIP3    H126507   2.172   6.466   4.071
 8854TIP3    H226508   2.200   6.423   3.929
 8855TIP3   OH226509   1.638   4.020   4.836
 8855TIP3    H126510   1.670   4.105   4.865
 8855TIP3    H226511   1.657   3.961   4.908
 8856TIP3   OH226512   6.848   2.839   3.403
 8856TIP3    H126513   6.874   2.784   3.329
 8856TIP3    H226514   6.889   2.799   3.479
 8857TIP3   OH226515   1.588   4.576   4.981
 8857TIP3    H126516   1.670   4.558   5.027
 8857TIP3    H226517   1.607   4.651   4.926
 8858TIP3   OH226518   1.557   0.330   4.330
 8858TIP3    H126519   1.629   0.318   4.392
 8858TIP3    H226520   1.480   0.347   4.385
 8859TIP3   OH226521   4.480   5.534   5.930
 8859TIP3    H126522   4.423   5.459   5.913
 8859TIP3    H226523   4.454   5.599   5.866
 8860TIP3   OH226524   0.493   3.561   4.208
 8860TIP3    H126525   0.468   3.570   4.116
 8860TIP3    H226526   0.569   3.503   4.207
 8861TIP3   OH226527   0.696   3.436   0.636
 8861TIP3    H126528   0.744   3.353   0.643
 8861TIP3    H226529   0.618   3.414   0.585
 8862TIP3   OH226530   5.742   3.199   0.821
 8862TIP3    H126531   5.747   3.173   0.913
 8862TIP3    H226532   5.691   3.280   0.821
 8863TIP3   OH226533   8.223   6.474   1.480
 8863TIP3    H126534   8.299   6.427   1.446
 8863TIP3    H226535   8.236   6.564   1.450
 8864TIP3   OH226536   6.793   0.226   3.022
 8864TIP3    H126537   6.876   0.239   2.977
 8864TIP3    H226538   6.733   0.289   2.981
 8865TIP3   OH226539   6.212   2.615   6.431
 8865TIP3    H126540   6.141   2.556   6.405
 8865TIP3    H226541   6.211   2.684   6.365
 8866TIP3   OH226542   6.715   7.226   0.155
 8866TIP3    H126543   6.672   7.309   0.177
 8866TIP3    H226544   6.786   7.218   0.218
 8867TIP3   OH226545   2.329   5.205   2.776
 8867TIP3    H126546   2.383   5.264   2.829
 8867TIP3    H226547   2.297   5.139   2.839
 8868TIP3   OH226548   1.965   6.931   1.419
 8868TIP3    H126549   2.005   7.017   1.407
 8868TIP3    H226550   2.039   6.872   1.434
 8869TIP3   OH226551   1.077   3.589   3.393
 8869TIP3    H126552   1.005   3.540   3.354
 8869TIP3    H226553   1.081   3.670   3.343
 8870TIP3   OH226554   3.145   6.986   0.746
 8870TIP3    H126555   3.189   6.910   0.709
 8870TIP3    H226556   3.060   6.989   0.702
 8871TIP3   OH226557   6.850   5.661   5.481
 8871TIP3    H126558   6.825   5.726   5.546
 8871TIP3    H226559   6.928   5.697   5.439
 8872TIP3   OH226560   0.306   1.523   3.017
 8872TIP3    H126561   0.227   1.574   3.001
 8872TIP3    H226562   0.336   1.552   3.103
 8873TIP3   OH226563   3.002   1.461   2.168
 8873TIP3    H126564   3.091   1.464   2.202
 8873TIP3    H226565   2.965   1.547   2.189
 8874TIP3   OH226566   5.954   3.372   1.648
 8874TIP3    H126567   5.896   3.428   1.700
 8874TIP3    H226568   5.975   3.299   1.706
 8875TIP3   OH226569   4.531   5.142   3.917
 8875TIP3    H126570   4.539   5.047   3.926
 8875TIP3    H226571   4.436   5.158   3.913
 8876TIP3   OH226572   0.009   1.409   1.142
 8876TIP3    H126573   0.095   1.450   1.130
 8876TIP3    H226574   0.029   1.320   1.173
 8877TIP3   OH226575   5.468   1.205   4.243
 8877TIP3    H126576   5.524   1.161   4.307
 8877TIP3    H226577   5.519   1.280   4.214
 8878TIP3   OH226578   0.860   7.069   5.635
 8878TIP3    H126579   0.787   7.091   5.577
 8878TIP3    H226580   0.937   7.108   5.592
 8879TIP3   OH226581   4.022   2.440   3.467
 8879TIP3    H126582   4.058   2.356   3.440
 8879TIP3    H226583   3.974   2.421   3.547
 8880TIP3   OH226584   6.884   5.997   4.309
 8880TIP3    H126585   6.856   6.082   4.274
 8880TIP3    H226586   6.804   5.945   4.312
 8881TIP3   OH226587   3.254   7.484   1.354
 8881TIP3    H126588   3.311   7.428   1.406
 8881TIP3    H226589   3.277   7.573   1.380
 8882TIP3   OH226590   0.540   1.866   3.171
 8882TIP3    H126591   0.500   1.952   3.186
 8882TIP3    H226592   0.521   1.846   3.079
 8883TIP3   OH226593   5.369   4.281   1.480
 8883TIP3    H126594   5.448   4.234   1.454
 8883TIP3    H226595   5.381   4.298   1.573
 8884TIP3   OH226596   6.750   1.784   1.143
 8884TIP3    H126597   6.793   1.699   1.140
 8884TIP3    H226598   6.815   1.843   1.181
 8885TIP3   OH226599   0.254   7.427   1.258
 8885TIP3    H126600   0.244   7.460   1.347
 8885TIP3    H226601   0.336   7.377   1.260
 8886TIP3   OH226602   3.207   4.652   2.327
 8886TIP3    H126603   3.285   4.604   2.356
 8886TIP3    H226604   3.238   4.742   2.314
 8887TIP3   OH226605   3.103   6.628   5.689
 8887TIP3    H126606   3.186   6.582   5.698
 8887TIP3    H226607   3.120   6.716   5.723
 8888TIP3   OH226608   1.083   6.496   6.670
 8888TIP3    H126609   1.129   6.571   6.708
 8888TIP3    H226610   1.015   6.535   6.614
 8889TIP3   OH226611   7.484   2.530   5.784
 8889TIP3    H126612   7.510   2.571   5.866
 8889TIP3    H226613   7.393   2.503   5.797
 8890TIP3   OH226614   4.955   7.612   3.823
 8890TIP3    H126615   5.049   7.619   3.840
 8890TIP3    H226616   4.916   7.683   3.873
 8891TIP3   OH226617   3.051   0.191   5.389
 8891TIP3    H126618   3.131   0.174   5.340
 8891TIP3    H226619   3.056   0.284   5.411
 8892TIP3   OH226620   7.648   4.548   5.916
 8892TIP3    H126621   7.567   4.506   5.943
 8892TIP3    H226622   7.623   4.638   5.894
 8893TIP3   OH226623   5.279   4.356   5.143
 8893TIP3    H126624   5.235   4.429   5.101
 8893TIP3    H226625   5.207   4.300   5.175
 8894TIP3   OH226626   4.451   3.640   4.617
 8894TIP3    H126627   4.440   3.707   4.550
 8894TIP3    H226628   4.535   3.599   4.597
 8895TIP3   OH226629   3.485   3.237   6.601
 8895TIP3    H126630   3.508   3.315   6.652
 8895TIP3    H226631   3.549   3.236   6.530
 8896TIP3   OH226632   8.265   3.414   6.314
 8896TIP3    H126633   8.176   3.425   6.350
 8896TIP3    H226634   8.275   3.487   6.253
 8897TIP3   OH226635   3.054   2.361   6.265
 8897TIP3    H126636   3.045   2.443   6.218
 8897TIP3    H226637   3.003   2.298   6.215
 8898TIP3   OH226638   3.319   5.217   0.754
 8898TIP3    H126639   3.299   5.162   0.678
 8898TIP3    H226640   3.389   5.275   0.722
 8899TIP3   OH226641   7.584   1.576   6.522
 8899TIP3    H126642   7.677   1.591   6.541
 8899TIP3    H226643   7.541   1.659   6.546
 8900TIP3   OH226644   5.320   1.750   3.629
 8900TIP3    H126645   5.232   1.755   3.589
 8900TIP3    H226646   5.380   1.754   3.554
 8901TIP3   OH226647   5.298   0.547   5.268
 8901TIP3    H126648   5.299   0.453   5.282
 8901TIP3    H226649   5.259   0.583   5.348
 8902TIP3   OH226650   3.139   0.266   4.986
 8902TIP3    H126651   3.219   0.235   4.946
 8902TIP3    H226652   3.089   0.187   5.005
 8903TIP3   OH226653   0.611   4.427   3.331
 8903TIP3    H126654   0.674   4.355   3.341
 8903TIP3    H226655   0.553   4.419   3.406
 8904TIP3   OH226656   2.323   0.705   1.966
 8904TIP3    H126657   2.366   0.634   2.013
 8904TIP3    H226658   2.370   0.711   1.882
 8905TIP3   OH226659   3.955   5.956   2.420
 8905TIP3    H126660   4.016   5.890   2.451
 8905TIP3    H226661   3.888   5.907   2.372
 8906TIP3   OH226662   2.326   6.561   5.667
 8906TIP3    H126663   2.234   6.587   5.675
 8906TIP3    H226664   2.354   6.543   5.757
 8907TIP3   OH226665   4.726   0.811   6.691
 8907TIP3    H126666   4.703   0.869   6.619
 8907TIP3    H226667   4.690   0.726   6.666
 8908TIP3   OH226668   7.017   7.546   1.017
 8908TIP3    H126669   7.077   7.526   0.946
 8908TIP3    H226670   6.991   7.637   1.003
 8909TIP3   OH226671   2.014   3.721   1.065
 8909TIP3    H126672   1.954   3.794   1.050
 8909TIP3    H226673   1.960   3.653   1.104
 8910TIP3   OH226674   2.293   7.150   0.588
 8910TIP3    H126675   2.283   7.163   0.493
 8910TIP3    H226676   2.337   7.229   0.618
 8911TIP3   OH226677   2.947   2.801   4.152
 8911TIP3    H126678   2.874   2.745   4.179
 8911TIP3    H226679   3.008   2.742   4.109
 8912TIP3   OH226680   3.481   0.980   5.707
 8912TIP3    H126681   3.426   0.956   5.632
 8912TIP3    H226682   3.570   0.962   5.678
 8913TIP3   OH226683   4.054   2.004   3.668
 8913TIP3    H126684   4.032   2.074   3.606
 8913TIP3    H226685   3.984   1.939   3.658
 8914TIP3   OH226686   5.614   2.196   6.569
 8914TIP3    H126687   5.556   2.261   6.609
 8914TIP3    H226688   5.647   2.240   6.490
 8915TIP3   OH226689  -0.018   1.845   5.887
 8915TIP3    H126690   0.014   1.834   5.976
 8915TIP3    H226691   0.060   1.855   5.833
 8916TIP3   OH226692   3.394   2.449   5.090
 8916TIP3    H126693   3.344   2.495   5.157
 8916TIP3    H226694   3.416   2.517   5.026
 8917TIP3   OH226695   1.309   2.583   2.103
 8917TIP3    H126696   1.284   2.651   2.041
 8917TIP3    H226697   1.383   2.621   2.151
 8918TIP3   OH226698   5.316   1.626   1.490
 8918TIP3    H126699   5.328   1.700   1.431
 8918TIP3    H226700   5.378   1.642   1.561
 8919TIP3   OH226701   4.586   3.661   6.585
 8919TIP3    H126702   4.678   3.681   6.567
 8919TIP3    H226703   4.588   3.580   6.635
 8920TIP3   OH226704   0.391   5.366   5.538
 8920TIP3    H126705   0.457   5.302   5.564
 8920TIP3    H226706   0.440   5.446   5.519
 8921TIP3   OH226707   5.834   4.488   4.974
 8921TIP3    H126708   5.902   4.497   5.040
 8921TIP3    H226709   5.758   4.532   5.011
 8922TIP3   OH226710   4.883   1.528   3.528
 8922TIP3    H126711   4.946   1.596   3.551
 8922TIP3    H226712   4.869   1.538   3.434
 8923TIP3   OH226713   2.598   0.736   6.476
 8923TIP3    H126714   2.606   0.803   6.543
 8923TIP3    H226715   2.653   0.767   6.404
 8924TIP3   OH226716   5.425   5.463   1.696
 8924TIP3    H126717   5.369   5.403   1.746
 8924TIP3    H226718   5.382   5.470   1.610
 8925TIP3   OH226719   6.562   2.898   3.447
 8925TIP3    H126720   6.657   2.902   3.435
 8925TIP3    H226721   6.527   2.894   3.357
 8926TIP3   OH226722   1.155   3.963   4.704
 8926TIP3    H126723   1.228   4.024   4.689
 8926TIP3    H226724   1.177   3.887   4.650
 8927TIP3   OH226725   6.841   3.024   5.705
 8927TIP3    H126726   6.845   2.945   5.652
 8927TIP3    H226727   6.782   3.082   5.658
 8928TIP3   OH226728   3.258   3.581   2.280
 8928TIP3    H126729   3.299   3.506   2.323
 8928TIP3    H226730   3.164   3.563   2.287
 8929TIP3   OH226731   2.899   5.280   1.736
 8929TIP3    H126732   2.880   5.236   1.654
 8929TIP3    H226733   2.981   5.240   1.767
 8930TIP3   OH226734   8.054   7.140   5.700
 8930TIP3    H126735   8.107   7.061   5.684
 8930TIP3    H226736   7.978   7.129   5.642
 8931TIP3   OH226737   2.556   5.999   0.565
 8931TIP3    H126738   2.589   6.054   0.494
 8931TIP3    H226739   2.621   6.009   0.635
 8932TIP3   OH226740   4.189   1.257   5.267
 8932TIP3    H126741   4.106   1.228   5.304
 8932TIP3    H226742   4.251   1.252   5.339
 8933TIP3   OH226743   4.016   5.056   2.645
 8933TIP3    H126744   3.970   4.973   2.660
 8933TIP3    H226745   4.020   5.098   2.730
 8934TIP3   OH226746   5.660   5.889   1.801
 8934TIP3    H126747   5.668   5.800   1.836
 8934TIP3    H226748   5.724   5.893   1.731
 8935TIP3   OH226749   4.403   3.508   4.972
 8935TIP3    H126750   4.439   3.585   4.927
 8935TIP3    H226751   4.310   3.507   4.947
 8936TIP3   OH226752   5.314   1.664   1.854
 8936TIP3    H126753   5.379   1.721   1.814
 8936TIP3    H226754   5.365   1.591   1.890
 8937TIP3   OH226755   4.788   5.871   3.293
 8937TIP3    H126756   4.853   5.821   3.342
 8937TIP3    H226757   4.730   5.805   3.255
 8938TIP3   OH226758   8.057   7.421   5.795
 8938TIP3    H126759   8.065   7.330   5.766
 8938TIP3    H226760   8.082   7.472   5.718
 8939TIP3   OH226761   2.772   4.354   6.014
 8939TIP3    H126762   2.863   4.361   6.043
 8939TIP3    H226763   2.752   4.261   6.018
 8940TIP3   OH226764   1.911   5.158   5.440
 8940TIP3    H126765   1.983   5.134   5.498
 8940TIP3    H226766   1.930   5.112   5.358
 8941TIP3   OH226767   3.500   1.370   1.497
 8941TIP3    H126768   3.589   1.370   1.462
 8941TIP3    H226769   3.452   1.311   1.439
 8942TIP3   OH226770   6.384   2.756   0.939
 8942TIP3    H126771   6.437   2.752   0.859
 8942TIP3    H226772   6.350   2.846   0.941
 8943TIP3   OH226773   6.211   5.248   0.896
 8943TIP3    H126774   6.179   5.339   0.895
 8943TIP3    H226775   6.209   5.221   0.805
 8944TIP3   OH226776   6.030   1.940   3.059
 8944TIP3    H126777   6.046   1.896   3.143
 8944TIP3    H226778   6.013   1.869   2.997
 8945TIP3   OH226779   1.633   3.466   4.396
 8945TIP3    H126780   1.690   3.429   4.463
 8945TIP3    H226781   1.556   3.498   4.444
 8946TIP3   OH226782   7.394   7.629   0.281
 8946TIP3    H126783   7.433   7.708   0.243
 8946TIP3    H226784   7.415   7.635   0.374
 8947TIP3   OH226785   2.252   3.404   4.823
 8947TIP3    H126786   2.188   3.334   4.809
 8947TIP3    H226787   2.321   3.386   4.760
 8948TIP3   OH226788   7.137   6.336   2.936
 8948TIP3    H126789   7.146   6.363   3.027
 8948TIP3    H226790   7.125   6.241   2.940
 8949TIP3   OH226791   2.025   5.272   3.598
 8949TIP3    H126792   2.029   5.330   3.674
 8949TIP3    H226793   1.967   5.201   3.624
 8950TIP3   OH226794   6.457   4.903   6.163
 8950TIP3    H126795   6.483   4.979   6.112
 8950TIP3    H226796   6.505   4.830   6.124
 8951TIP3   OH226797   0.044   5.775   1.371
 8951TIP3    H126798   0.105   5.767   1.444
 8951TIP3    H226799   0.083   5.841   1.313
 8952TIP3   OH226800   3.118   3.026   1.001
 8952TIP3    H126801   3.188   3.045   1.064
 8952TIP3    H226802   3.134   3.086   0.928
 8953TIP3   OH226803   3.232   1.923   2.252
 8953TIP3    H126804   3.194   1.864   2.187
 8953TIP3    H226805   3.286   1.866   2.308
 8954TIP3   OH226806   6.842   3.470   2.537
 8954TIP3    H126807   6.777   3.421   2.486
 8954TIP3    H226808   6.800   3.482   2.622
 8955TIP3   OH226809   1.282   5.872   2.843
 8955TIP3    H126810   1.358   5.924   2.870
 8955TIP3    H226811   1.214   5.893   2.907
 8956TIP3   OH226812   6.516   0.453   3.442
 8956TIP3    H126813   6.472   0.376   3.479
 8956TIP3    H226814   6.540   0.505   3.518
 8957TIP3   OH226815   4.055   6.728   0.325
 8957TIP3    H126816   4.044   6.792   0.254
 8957TIP3    H226817   4.081   6.647   0.281
 8958TIP3   OH226818   6.664   1.439   3.027
 8958TIP3    H126819   6.713   1.405   2.953
 8958TIP3    H226820   6.730   1.469   3.089
 8959TIP3   OH226821   0.115   0.348   0.840
 8959TIP3    H126822   0.204   0.355   0.805
 8959TIP3    H226823   0.091   0.438   0.863
 8960TIP3   OH226824   4.510   3.008   4.356
 8960TIP3    H126825   4.522   2.917   4.380
 8960TIP3    H226826   4.473   3.005   4.267
 8961TIP3   OH226827   1.729   2.604   5.554
 8961TIP3    H126828   1.790   2.642   5.617
 8961TIP3    H226829   1.725   2.511   5.578
 8962TIP3   OH226830   1.231   1.638   2.732
 8962TIP3    H126831   1.141   1.607   2.741
 8962TIP3    H226832   1.282   1.560   2.710
 8963TIP3   OH226833   7.086   6.133   5.384
 8963TIP3    H126834   7.040   6.181   5.316
 8963TIP3    H226835   7.025   6.065   5.411
 8964TIP3   OH226836   5.671   2.258   0.401
 8964TIP3    H126837   5.621   2.310   0.464
 8964TIP3    H226838   5.632   2.280   0.317
 8965TIP3   OH226839   5.237   5.966   2.842
 8965TIP3    H126840   5.182   6.022   2.788
 8965TIP3    H226841   5.210   5.986   2.932
 8966TIP3   OH226842   1.717   4.974   2.503
 8966TIP3    H126843   1.777   4.900   2.500
 8966TIP3    H226844   1.659   4.961   2.427
 8967TIP3   OH226845   5.739   2.132   5.688
 8967TIP3    H126846   5.738   2.196   5.617
 8967TIP3    H226847   5.657   2.084   5.678
 8968TIP3   OH226848   1.020   2.934   6.142
 8968TIP3    H126849   1.084   2.971   6.082
 8968TIP3    H226850   1.072   2.886   6.207
 8969TIP3   OH226851   2.939   4.184   5.213
 8969TIP3    H126852   3.026   4.199   5.176
 8969TIP3    H226853   2.954   4.130   5.290
 8970TIP3   OH226854   2.792   2.967   3.554
 8970TIP3    H126855   2.766   2.875   3.559
 8970TIP3    H226856   2.840   2.973   3.471
 8971TIP3   OH226857   6.751   4.073   4.825
 8971TIP3    H126858   6.833   4.069   4.777
 8971TIP3    H226859   6.725   4.165   4.821
 8972TIP3   OH226860   1.865   7.230   4.139
 8972TIP3    H126861   1.803   7.231   4.212
 8972TIP3    H226862   1.941   7.278   4.171
 8973TIP3   OH226863   7.277   2.837   5.839
 8973TIP3    H126864   7.229   2.871   5.763
 8973TIP3    H226865   7.342   2.905   5.859
 8974TIP3   OH226866   2.868   2.876   6.466
 8974TIP3    H126867   2.840   2.956   6.510
 8974TIP3    H226868   2.872   2.811   6.536
 8975TIP3   OH226869   6.753   5.477   3.879
 8975TIP3    H126870   6.796   5.485   3.964
 8975TIP3    H226871   6.673   5.529   3.888
 8976TIP3   OH226872   4.651   6.001   4.222
 8976TIP3    H126873   4.665   6.089   4.188
 8976TIP3    H226874   4.573   6.008   4.277
 8977TIP3   OH226875   1.904   0.271   2.224
 8977TIP3    H126876   1.866   0.304   2.143
 8977TIP3    H226877   1.886   0.177   2.222
 8978TIP3   OH226878   6.509   3.838   4.393
 8978TIP3    H126879   6.564   3.888   4.333
 8978TIP3    H226880   6.486   3.759   4.344
 8979TIP3   OH226881   7.575   1.249   0.413
 8979TIP3    H126882   7.636   1.190   0.457
 8979TIP3    H226883   7.504   1.263   0.476
 8980TIP3   OH226884   0.957   0.702   0.661
 8980TIP3    H126885   0.892   0.727   0.726
 8980TIP3    H226886   0.984   0.785   0.621
 8981TIP3   OH226887   8.096   2.677   4.827
 8981TIP3    H126888   8.024   2.634   4.781
 8981TIP3    H226889   8.162   2.692   4.759
 8982TIP3   OH226890   7.203   0.787   5.696
 8982TIP3    H126891   7.218   0.860   5.636
 8982TIP3    H226892   7.109   0.789   5.714
 8983TIP3   OH226893   0.321   6.411   1.013
 8983TIP3    H126894   0.285   6.354   0.945
 8983TIP3    H226895   0.373   6.353   1.068
 8984TIP3   OH226896   2.719   2.700   0.490
 8984TIP3    H126897   2.751   2.620   0.449
 8984TIP3    H226898   2.646   2.672   0.545
 8985TIP3   OH226899   4.398   7.033   3.960
 8985TIP3    H126900   4.484   7.049   4.000
 8985TIP3    H226901   4.349   7.114   3.975
 8986TIP3   OH226902   2.241   6.308   5.874
 8986TIP3    H126903   2.270   6.261   5.796
 8986TIP3    H226904   2.313   6.368   5.894
 8987TIP3   OH226905   6.083   3.547   1.458
 8987TIP3    H126906   6.066   3.518   1.547
 8987TIP3    H226907   6.000   3.588   1.430
 8988TIP3   OH226908   7.063   4.584   0.824
 8988TIP3    H126909   7.040   4.635   0.747
 8988TIP3    H226910   7.146   4.621   0.854
 8989TIP3   OH226911   6.182   1.668   4.237
 8989TIP3    H126912   6.116   1.599   4.236
 8989TIP3    H226913   6.211   1.673   4.146
 8990TIP3   OH226914   6.629   0.842   1.061
 8990TIP3    H126915   6.723   0.827   1.047
 8990TIP3    H226916   6.596   0.759   1.095
 8991TIP3   OH226917   0.491   5.668   6.131
 8991TIP3    H126918   0.490   5.759   6.102
 8991TIP3    H226919   0.403   5.635   6.112
 8992TIP3   OH226920   0.038   2.700   0.291
 8992TIP3    H126921  -0.024   2.646   0.242
 8992TIP3    H226922   0.090   2.636   0.341
 8993TIP3   OH226923   6.616   2.558   3.072
 8993TIP3    H126924   6.588   2.488   3.130
 8993TIP3    H226925   6.558   2.552   2.997
 8994TIP3   OH226926   0.693   6.171   4.281
 8994TIP3    H126927   0.678   6.200   4.191
 8994TIP3    H226928   0.643   6.232   4.335
 8995TIP3   OH226929   1.449   6.410   1.227
 8995TIP3    H126930   1.480   6.357   1.301
 8995TIP3    H226931   1.457   6.352   1.151
 8996TIP3   OH226932   6.072   2.795   2.490
 8996TIP3    H126933   6.031   2.709   2.483
 8996TIP3    H226934   6.079   2.825   2.400
 8997TIP3   OH226935   6.276   2.555   3.259
 8997TIP3    H126936   6.241   2.490   3.199
 8997TIP3    H226937   6.224   2.546   3.338
 8998TIP3   OH226938   2.795   5.735   3.413
 8998TIP3    H126939   2.876   5.691   3.386
 8998TIP3    H226940   2.738   5.664   3.443
 8999TIP3   OH226941   1.146   3.365   3.947
 8999TIP3    H126942   1.189   3.287   3.913
 8999TIP3    H226943   1.216   3.413   3.991
 9000TIP3   OH226944   3.927   0.970   1.097
 9000TIP3    H126945   3.940   0.902   1.031
 9000TIP3    H226946   4.005   0.966   1.152
 9001TIP3   OH226947   1.056   4.459   4.341
 9001TIP3    H126948   1.024   4.369   4.346
 9001TIP3    H226949   1.104   4.472   4.423
 9002TIP3   OH226950   4.708   5.531   3.603
 9002TIP3    H126951   4.692   5.582   3.682
 9002TIP3    H226952   4.664   5.447   3.619
 9003TIP3   OH226953   4.670   0.302   3.798
 9003TIP3    H126954   4.721   0.221   3.791
 9003TIP3    H226955   4.681   0.330   3.888
 9004TIP3   OH226956   5.287   3.632   3.341
 9004TIP3    H126957   5.359   3.689   3.311
 9004TIP3    H226958   5.284   3.562   3.277
 9005TIP3   OH226959   6.566   5.964   1.875
 9005TIP3    H126960   6.557   5.954   1.970
 9005TIP3    H226961   6.478   5.985   1.845
 9006TIP3   OH226962   5.277   3.541   1.382
 9006TIP3    H126963   5.232   3.512   1.303
 9006TIP3    H226964   5.231   3.497   1.454
 9007TIP3   OH226965   7.797   6.043   2.224
 9007TIP3    H126966   7.782   6.131   2.189
 9007TIP3    H226967   7.795   6.055   2.319
 9008TIP3   OH226968   2.228   5.493   6.152
 9008TIP3    H126969   2.315   5.461   6.125
 9008TIP3    H226970   2.186   5.521   6.071
 9009TIP3   OH226971   6.500   5.769   0.775
 9009TIP3    H126972   6.422   5.799   0.728
 9009TIP3    H226973   6.550   5.719   0.710
 9010TIP3   OH226974   5.681   1.824   0.881
 9010TIP3    H126975   5.648   1.737   0.905
 9010TIP3    H226976   5.765   1.831   0.925
 9011TIP3   OH226977   2.473   1.350   5.595
 9011TIP3    H126978   2.430   1.275   5.637
 9011TIP3    H226979   2.402   1.402   5.559
 9012TIP3   OH226980   5.757   3.873   3.151
 9012TIP3    H126981   5.755   3.965   3.178
 9012TIP3    H226982   5.711   3.873   3.067
 9013TIP3   OH226983   4.367   6.557   3.608
 9013TIP3    H126984   4.409   6.581   3.526
 9013TIP3    H226985   4.432   6.504   3.654
 9014TIP3   OH226986   0.355   2.040   2.068
 9014TIP3    H126987   0.356   2.133   2.089
 9014TIP3    H226988   0.275   2.006   2.108
 9015TIP3   OH226989   2.007   2.805   2.389
 9015TIP3    H126990   1.936   2.804   2.326
 9015TIP3    H226991   2.087   2.805   2.335
 9016TIP3   OH226992   0.549   6.905   0.084
 9016TIP3    H126993   0.536   6.852   0.005
 9016TIP3    H226994   0.507   6.989   0.064
 9017TIP3   OH226995   6.631   1.040   4.854
 9017TIP3    H126996   6.694   1.111   4.841
 9017TIP3    H226997   6.597   1.023   4.766
 9018TIP3   OH226998   8.228   2.747   2.194
 9018TIP3    H126999   8.279   2.797   2.258
 9018TIP3    H227000   8.138   2.772   2.210
 9019TIP3   OH227001   5.341   1.521   3.876
 9019TIP3    H127002   5.395   1.597   3.898
 9019TIP3    H227003   5.398   1.445   3.892
 9020TIP3   OH227004   5.352   0.696   3.486
 9020TIP3    H127005   5.270   0.742   3.466
 9020TIP3    H227006   5.374   0.723   3.575
 9021TIP3   OH227007   4.965   5.412   1.746
 9021TIP3    H127008   4.979   5.484   1.808
 9021TIP3    H227009   4.956   5.455   1.661
 9022TIP3   OH227010   4.888   2.901   0.555
 9022TIP3    H127011   4.898   2.996   0.567
 9022TIP3    H227012   4.852   2.871   0.639
 9023TIP3   OH227013   7.973   5.082   6.559
 9023TIP3    H127014   8.020   5.104   6.639
 9023TIP3    H227015   8.030   5.111   6.488
 9024TIP3   OH227016   3.380   1.040   3.182
 9024TIP3    H127017   3.317   0.968   3.188
 9024TIP3    H227018   3.428   1.036   3.265
 9025TIP3   OH227019   3.776   6.657   4.155
 9025TIP3    H127020   3.862   6.625   4.126
 9025TIP3    H227021   3.795   6.716   4.228
 9026TIP3   OH227022   3.636   5.090   0.752
 9026TIP3    H127023   3.634   5.018   0.815
 9026TIP3    H227024   3.588   5.057   0.676
 9027TIP3   OH227025   5.848   4.902   4.628
 9027TIP3    H127026   5.779   4.893   4.694
 9027TIP3    H227027   5.823   4.840   4.559
 9028TIP3   OH227028   2.101   2.855   1.981
 9028TIP3    H127029   2.068   2.771   2.014
 9028TIP3    H227030   2.022   2.908   1.968
 9029TIP3   OH227031   6.054   2.929   5.890
 9029TIP3    H127032   6.051   2.852   5.833
 9029TIP3    H227033   5.966   2.935   5.925
 9030TIP3   OH227034   2.668   2.925   2.651
 9030TIP3    H127035   2.635   3.013   2.634
 9030TIP3    H227036   2.594   2.868   2.634
 9031TIP3   OH227037   6.217   7.088   2.909
 9031TIP3    H127038   6.134   7.065   2.869
 9031TIP3    H227039   6.194   7.130   2.992
 9032TIP3   OH227040   4.641   1.437   0.420
 9032TIP3    H127041   4.627   1.513   0.364
 9032TIP3    H227042   4.733   1.413   0.407
 9033TIP3   OH227043   1.653   6.818   4.068
 9033TIP3    H127044   1.656   6.805   4.162
 9033TIP3    H227045   1.699   6.743   4.031
 9034TIP3   OH227046   1.136   0.673   1.229
 9034TIP3    H127047   1.047   0.705   1.216
 9034TIP3    H227048   1.139   0.649   1.321
 9035TIP3   OH227049   1.050   4.572   3.869
 9035TIP3    H127050   1.086   4.642   3.815
 9035TIP3    H227051   0.981   4.613   3.920
 9036TIP3   OH227052   0.584   4.039   6.148
 9036TIP3    H127053   0.630   4.063   6.068
 9036TIP3    H227054   0.534   3.961   6.125
 9037TIP3   OH227055   1.662   2.968   6.309
 9037TIP3    H127056   1.669   2.878   6.340
 9037TIP3    H227057   1.670   2.962   6.214
 9038TIP3   OH227058   1.744   0.027   1.748
 9038TIP3    H127059   1.784   0.112   1.729
 9038TIP3    H227060   1.726  -0.011   1.662
 9039TIP3   OH227061   1.845   4.785   4.066
 9039TIP3    H127062   1.915   4.766   4.128
 9039TIP3    H227063   1.780   4.834   4.116
 9040TIP3   OH227064   8.033   2.666   0.520
 9040TIP3    H127065   7.980   2.620   0.454
 9040TIP3    H227066   8.123   2.656   0.490
 9041TIP3   OH227067   2.712   5.319   0.676
 9041TIP3    H127068   2.694   5.285   0.763
 9041TIP3    H227069   2.805   5.342   0.678
 9042TIP3   OH227070   5.405   7.382   2.843
 9042TIP3    H127071   5.438   7.471   2.831
 9042TIP3    H227072   5.430   7.336   2.763
 9043TIP3   OH227073   4.090   7.563   6.674
 9043TIP3    H127074   4.168   7.546   6.726
 9043TIP3    H227075   4.119   7.627   6.608
 9044TIP3   OH227076   7.545   3.209   5.021
 9044TIP3    H127077   7.553   3.234   5.113
 9044TIP3    H227078   7.504   3.122   5.024
 9045TIP3   OH227079   3.615   6.878   3.027
 9045TIP3    H127080   3.535   6.846   2.985
 9045TIP3    H227081   3.584   6.948   3.085
 9046TIP3   OH227082   0.552   5.074   1.104
 9046TIP3    H127083   0.552   5.051   1.198
 9046TIP3    H227084   0.645   5.083   1.083
 9047TIP3   OH227085   1.108   6.449   5.774
 9047TIP3    H127086   1.120   6.389   5.847
 9047TIP3    H227087   1.028   6.498   5.795
 9048TIP3   OH227088   0.703   6.172   0.758
 9048TIP3    H127089   0.730   6.111   0.689
 9048TIP3    H227090   0.735   6.258   0.729
 9049TIP3   OH227091   2.462   3.800   0.820
 9049TIP3    H127092   2.400   3.747   0.870
 9049TIP3    H227093   2.546   3.786   0.865
 9050TIP3   OH227094   1.216   2.754   6.326
 9050TIP3    H127095   1.275   2.797   6.387
 9050TIP3    H227096   1.273   2.726   6.254
 9051TIP3   OH227097   5.982   1.757   2.875
 9051TIP3    H127098   5.948   1.816   2.807
 9051TIP3    H227099   5.955   1.670   2.846
 9052TIP3   OH227100   4.235   6.891   2.622
 9052TIP3    H127101   4.321   6.872   2.584
 9052TIP3    H227102   4.211   6.811   2.668
 9053TIP3   OH227103   3.603   5.994   3.289
 9053TIP3    H127104   3.541   5.984   3.361
 9053TIP3    H227105   3.604   6.088   3.270
 9054TIP3   OH227106   7.029   3.363   6.508
 9054TIP3    H127107   7.002   3.392   6.595
 9054TIP3    H227108   7.124   3.354   6.514
 9055TIP3   OH227109   1.660   1.547   5.789
 9055TIP3    H127110   1.739   1.504   5.821
 9055TIP3    H227111   1.594   1.532   5.857
 9056TIP3   OH227112   2.614   3.050   3.898
 9056TIP3    H127113   2.706   3.031   3.877
 9056TIP3    H227114   2.585   2.974   3.948
 9057TIP3   OH227115   2.602   0.747   0.037
 9057TIP3    H127116   2.621   0.654   0.050
 9057TIP3    H227117   2.682   0.782  -0.004
 9058TIP3   OH227118   3.788   6.279   6.544
 9058TIP3    H127119   3.811   6.186   6.536
 9058TIP3    H227120   3.864   6.319   6.585
 9059TIP3   OH227121   7.474   6.671   1.314
 9059TIP3    H127122   7.494   6.704   1.401
 9059TIP3    H227123   7.525   6.590   1.307
 9060TIP3   OH227124   2.619   1.623   5.214
 9060TIP3    H127125   2.540   1.670   5.186
 9060TIP3    H227126   2.615   1.539   5.168
 9061TIP3   OH227127   2.029   7.616   1.785
 9061TIP3    H127128   1.995   7.600   1.872
 9061TIP3    H227129   1.962   7.582   1.726
 9062TIP3   OH227130   4.151   4.988   0.133
 9062TIP3    H127131   4.187   5.020   0.216
 9062TIP3    H227132   4.056   5.002   0.141
 9063TIP3   OH227133   7.851   2.395   4.155
 9063TIP3    H127134   7.762   2.362   4.147
 9063TIP3    H227135   7.897   2.329   4.207
 9064TIP3   OH227136   4.331   5.455   4.638
 9064TIP3    H127137   4.301   5.447   4.547
 9064TIP3    H227138   4.418   5.494   4.631
 9065TIP3   OH227139   1.273   3.890   1.378
 9065TIP3    H127140   1.352   3.886   1.431
 9065TIP3    H227141   1.211   3.940   1.431
 9066TIP3   OH227142   4.595   0.970   0.391
 9066TIP3    H127143   4.611   0.999   0.301
 9066TIP3    H227144   4.532   0.900   0.382
 9067TIP3   OH227145   6.784   0.294   5.184
 9067TIP3    H127146   6.742   0.238   5.249
 9067TIP3    H227147   6.867   0.250   5.164
 9068TIP3   OH227148   4.727   6.194   4.043
 9068TIP3    H127149   4.805   6.231   4.003
 9068TIP3    H227150   4.658   6.259   4.024
 9069TIP3   OH227151   6.202   0.488   6.179
 9069TIP3    H127152   6.240   0.420   6.235
 9069TIP3    H227153   6.134   0.442   6.129
 9070TIP3   OH227154   0.110   4.997   3.594
 9070TIP3    H127155   0.203   5.004   3.614
 9070TIP3    H227156   0.084   4.911   3.628
 9071TIP3   OH227157   5.999   1.826   4.465
 9071TIP3    H127158   6.075   1.802   4.519
 9071TIP3    H227159   5.943   1.876   4.524
 9072TIP3   OH227160   5.882   1.263   5.908
 9072TIP3    H127161   5.894   1.288   6.000
 9072TIP3    H227162   5.968   1.276   5.868
 9073TIP3   OH227163   2.438   5.582   1.157
 9073TIP3    H127164   2.415   5.538   1.076
 9073TIP3    H227165   2.468   5.669   1.130
 9074TIP3   OH227166   3.029   0.455   6.408
 9074TIP3    H127167   3.087   0.409   6.469
 9074TIP3    H227168   3.084   0.476   6.333
 9075TIP3   OH227169   0.622   0.261   0.440
 9075TIP3    H127170   0.666   0.336   0.480
 9075TIP3    H227171   0.620   0.281   0.347
 9076TIP3   OH227172   0.649   4.744   4.522
 9076TIP3    H127173   0.686   4.755   4.609
 9076TIP3    H227174   0.722   4.712   4.469
 9077TIP3   OH227175   7.843   7.815   6.659
 9077TIP3    H127176   7.804   7.829   6.746
 9077TIP3    H227177   7.779   7.853   6.598
 9078TIP3   OH227178   5.575   0.769   4.882
 9078TIP3    H127179   5.626   0.823   4.943
 9078TIP3    H227180   5.585   0.680   4.914
 9079TIP3   OH227181   6.481   7.324   3.718
 9079TIP3    H127182   6.458   7.242   3.761
 9079TIP3    H227183   6.397   7.368   3.704
 9080TIP3   OH227184   6.973   6.068   1.425
 9080TIP3    H127185   6.889   6.110   1.444
 9080TIP3    H227186   7.029   6.139   1.395
 9081TIP3   OH227187   5.893   4.184   0.575
 9081TIP3    H127188   5.935   4.104   0.544
 9081TIP3    H227189   5.920   4.251   0.513
 9082TIP3   OH227190   4.775   2.565   5.726
 9082TIP3    H127191   4.819   2.502   5.668
 9082TIP3    H227192   4.697   2.519   5.757
 9083TIP3   OH227193   6.572   2.163   4.908
 9083TIP3    H127194   6.566   2.068   4.913
 9083TIP3    H227195   6.552   2.194   4.996
 9084TIP3   OH227196   4.798   1.836   1.972
 9084TIP3    H127197   4.775   1.918   1.929
 9084TIP3    H227198   4.864   1.797   1.915
 9085TIP3   OH227199   8.155   2.726   2.492
 9085TIP3    H127200   8.079   2.670   2.507
 9085TIP3    H227201   8.128   2.813   2.521
 9086TIP3   OH227202   3.191   5.728   4.563
 9086TIP3    H127203   3.221   5.646   4.603
 9086TIP3    H227204   3.147   5.774   4.635
 9087TIP3   OH227205   3.634   0.860   5.506
 9087TIP3    H127206   3.612   0.915   5.431
 9087TIP3    H227207   3.699   0.798   5.471
 9088TIP3   OH227208   2.028   7.038   2.590
 9088TIP3    H127209   2.044   7.113   2.533
 9088TIP3    H227210   2.087   6.970   2.557
 9089TIP3   OH227211   4.042   1.941   0.101
 9089TIP3    H127212   3.953   1.974   0.105
 9089TIP3    H227213   4.062   1.937   0.007
 9090TIP3   OH227214   4.220   5.734   3.115
 9090TIP3    H127215   4.280   5.670   3.076
 9090TIP3    H227216   4.144   5.734   3.057
 9091TIP3   OH227217   7.777   3.113   0.510
 9091TIP3    H127218   7.869   3.095   0.489
 9091TIP3    H227219   7.767   3.207   0.499
 9092TIP3   OH227220   5.115   1.340   6.419
 9092TIP3    H127221   5.166   1.258   6.417
 9092TIP3    H227222   5.147   1.390   6.344
 9093TIP3   OH227223   4.534   5.360   3.183
 9093TIP3    H127224   4.451   5.391   3.146
 9093TIP3    H227225   4.596   5.366   3.110
 9094TIP3   OH227226   6.705   5.879   2.573
 9094TIP3    H127227   6.613   5.878   2.599
 9094TIP3    H227228   6.726   5.788   2.555
 9095TIP3   OH227229   6.650   0.747   6.632
 9095TIP3    H127230   6.650   0.778   6.722
 9095TIP3    H227231   6.656   0.826   6.579
 9096TIP3   OH227232   1.105   7.579   3.277
 9096TIP3    H127233   1.139   7.531   3.354
 9096TIP3    H227234   1.063   7.511   3.224
 9097TIP3   OH227235   7.052   4.718   5.459
 9097TIP3    H127236   7.012   4.780   5.519
 9097TIP3    H227237   7.001   4.724   5.379
 9098TIP3   OH227238   4.958   1.043   4.065
 9098TIP3    H127239   4.953   1.136   4.086
 9098TIP3    H227240   4.978   1.040   3.972
 9099TIP3   OH227241   6.979   2.379   0.189
 9099TIP3    H127242   6.939   2.298   0.158
 9099TIP3    H227243   6.916   2.415   0.251
 9100TIP3   OH227244   4.744   3.640   4.476
 9100TIP3    H127245   4.782   3.552   4.472
 9100TIP3    H227246   4.814   3.698   4.444
 9101TIP3   OH227247   1.364   5.307   4.043
 9101TIP3    H127248   1.406   5.248   3.979
 9101TIP3    H227249   1.399   5.279   4.127
 9102TIP3   OH227250   0.852   6.088   2.042
 9102TIP3    H127251   0.879   6.158   2.102
 9102TIP3    H227252   0.870   6.124   1.955
 9103TIP3   OH227253   7.053   1.200   5.103
 9103TIP3    H127254   7.056   1.296   5.110
 9103TIP3    H227255   7.000   1.184   5.025
 9104TIP3   OH227256   4.569   7.729   3.458
 9104TIP3    H127257   4.639   7.663   3.459
 9104TIP3    H227258   4.582   7.776   3.376
 9105TIP3   OH227259   4.567   1.913   2.138
 9105TIP3    H127260   4.641   1.891   2.083
 9105TIP3    H227261   4.521   1.830   2.150
 9106TIP3   OH227262   0.620   2.901   4.457
 9106TIP3    H127263   0.640   2.831   4.394
 9106TIP3    H227264   0.528   2.921   4.442
 9107TIP3   OH227265   7.364   0.986   0.614
 9107TIP3    H127266   7.349   0.985   0.519
 9107TIP3    H227267   7.286   1.028   0.650
 9108TIP3   OH227268   6.434   4.331   2.799
 9108TIP3    H127269   6.433   4.303   2.891
 9108TIP3    H227270   6.500   4.400   2.796
 9109TIP3   OH227271   0.121   5.548   1.978
 9109TIP3    H127272   0.107   5.532   1.884
 9109TIP3    H227273   0.198   5.604   1.981
 9110TIP3   OH227274   1.462   1.598   2.937
 9110TIP3    H127275   1.410   1.674   2.963
 9110TIP3    H227276   1.418   1.523   2.976
 9111TIP3   OH227277   5.471   6.909   1.229
 9111TIP3    H127278   5.440   6.955   1.151
 9111TIP3    H227279   5.392   6.883   1.275
 9112TIP3   OH227280   6.935   2.002   1.964
 9112TIP3    H127281   6.873   1.989   1.892
 9112TIP3    H227282   6.956   2.095   1.960
 9113TIP3   OH227283   0.266   1.132   6.549
 9113TIP3    H127284   0.344   1.133   6.604
 9113TIP3    H227285   0.299   1.110   6.462
 9114TIP3   OH227286   5.567   3.898   6.141
 9114TIP3    H127287   5.550   3.878   6.049
 9114TIP3    H227288   5.639   3.962   6.138
 9115TIP3   OH227289   4.196   5.525   3.397
 9115TIP3    H127290   4.240   5.586   3.338
 9115TIP3    H227291   4.108   5.563   3.408
 9116TIP3   OH227292   7.130   5.566   2.449
 9116TIP3    H127293   7.104   5.609   2.530
 9116TIP3    H227294   7.136   5.473   2.472
 9117TIP3   OH227295   4.424   1.234   5.408
 9117TIP3    H127296   4.472   1.152   5.412
 9117TIP3    H227297   4.491   1.302   5.400
 9118TIP3   OH227298   6.424   4.181   4.953
 9118TIP3    H127299   6.402   4.218   4.868
 9118TIP3    H227300   6.451   4.256   5.006
 9119TIP3   OH227301   8.291   5.466   6.340
 9119TIP3    H127302   8.224   5.408   6.377
 9119TIP3    H227303   8.361   5.407   6.313
 9120TIP3   OH227304   3.567   3.495   6.295
 9120TIP3    H127305   3.588   3.540   6.213
 9120TIP3    H227306   3.494   3.437   6.272
 9121TIP3   OH227307   5.018   0.710   1.442
 9121TIP3    H127308   4.964   0.714   1.364
 9121TIP3    H227309   4.979   0.774   1.502
 9122TIP3   OH227310   6.948   4.304   0.627
 9122TIP3    H127311   7.006   4.347   0.690
 9122TIP3    H227312   6.982   4.215   0.620
 9123TIP3   OH227313   0.987   7.455   2.766
 9123TIP3    H127314   0.913   7.506   2.800
 9123TIP3    H227315   1.065   7.499   2.801
 9124TIP3   OH227316   3.216   1.065   4.934
 9124TIP3    H127317   3.277   1.114   4.989
 9124TIP3    H227318   3.136   1.059   4.985
 9125TIP3   OH227319   2.661   5.100   4.569
 9125TIP3    H127320   2.568   5.080   4.554
 9125TIP3    H227321   2.688   5.148   4.490
 9126TIP3   OH227322   7.962   5.614   3.421
 9126TIP3    H127323   8.031   5.671   3.455
 9126TIP3    H227324   7.989   5.526   3.448
 9127TIP3   OH227325   0.632   0.999   4.704
 9127TIP3    H127326   0.641   1.094   4.693
 9127TIP3    H227327   0.560   0.989   4.766
 9128TIP3   OH227328   0.005   3.578   5.246
 9128TIP3    H127329   0.039   3.624   5.170
 9128TIP3    H227330   0.023   3.636   5.320
 9129TIP3   OH227331   5.837   4.610   0.492
 9129TIP3    H127332   5.780   4.680   0.525
 9129TIP3    H227333   5.840   4.546   0.563
 9130TIP3   OH227334   0.864   0.330   5.609
 9130TIP3    H127335   0.814   0.383   5.547
 9130TIP3    H227336   0.799   0.298   5.671
 9131TIP3   OH227337   5.117   7.632   0.961
 9131TIP3    H127338   5.073   7.691   1.022
 9131TIP3    H227339   5.130   7.685   0.882
 9132TIP3   OH227340   6.288   3.547   3.210
 9132TIP3    H127341   6.330   3.567   3.294
 9132TIP3    H227342   6.270   3.453   3.213
 9133TIP3   OH227343   8.113   4.352   4.928
 9133TIP3    H127344   8.198   4.321   4.960
 9133TIP3    H227345   8.054   4.278   4.942
 9134TIP3   OH227346   2.772   7.591   4.406
 9134TIP3    H127347   2.840   7.649   4.374
 9134TIP3    H227348   2.817   7.510   4.428
 9135TIP3   OH227349   4.970   2.875   2.110
 9135TIP3    H127350   5.019   2.957   2.105
 9135TIP3    H227351   4.994   2.827   2.030
 9136TIP3   OH227352   1.092   4.842   2.981
 9136TIP3    H127353   1.003   4.865   2.957
 9136TIP3    H227354   1.088   4.749   3.003
 9137TIP3   OH227355   7.755   3.109   1.297
 9137TIP3    H127356   7.698   3.118   1.220
 9137TIP3    H227357   7.738   3.189   1.348
 9138TIP3   OH227358   0.624   2.733   4.224
 9138TIP3    H127359   0.682   2.725   4.148
 9138TIP3    H227360   0.554   2.792   4.195
 9139TIP3   OH227361   8.130   3.328   6.745
 9139TIP3    H127362   8.076   3.356   6.819
 9139TIP3    H227363   8.195   3.269   6.783
 9140TIP3   OH227364   1.600   1.228   3.739
 9140TIP3    H127365   1.512   1.210   3.707
 9140TIP3    H227366   1.646   1.145   3.730
 9141TIP3   OH227367   6.419   5.023   0.555
 9141TIP3    H127368   6.447   5.016   0.464
 9141TIP3    H227369   6.500   5.025   0.606
 9142TIP3   OH227370   6.667   1.804   3.024
 9142TIP3    H127371   6.759   1.803   2.999
 9142TIP3    H227372   6.668   1.809   3.120
 9143TIP3   OH227373   6.155   1.390   1.546
 9143TIP3    H127374   6.192   1.431   1.624
 9143TIP3    H227375   6.081   1.338   1.580
 9144TIP3   OH227376   4.591   3.886   3.862
 9144TIP3    H127377   4.686   3.887   3.875
 9144TIP3    H227378   4.557   3.831   3.932
 9145TIP3   OH227379   5.440   6.921   4.650
 9145TIP3    H127380   5.356   6.916   4.604
 9145TIP3    H227381   5.481   7.001   4.618
 9146TIP3   OH227382   4.248   7.102   2.030
 9146TIP3    H127383   4.334   7.092   2.071
 9146TIP3    H227384   4.209   7.014   2.035
 9147TIP3   OH227385   2.186   6.795   5.460
 9147TIP3    H127386   2.272   6.753   5.463
 9147TIP3    H227387   2.128   6.733   5.503
 9148TIP3   OH227388   3.542   2.373   1.566
 9148TIP3    H127389   3.505   2.329   1.490
 9148TIP3    H227390   3.554   2.464   1.538
 9149TIP3   OH227391   7.855   3.552   3.335
 9149TIP3    H127392   7.823   3.476   3.287
 9149TIP3    H227393   7.901   3.515   3.411
 9150TIP3   OH227394   5.657   3.710   3.345
 9150TIP3    H127395   5.692   3.622   3.337
 9150TIP3    H227396   5.692   3.757   3.269
 9151TIP3   OH227397   0.186   5.236   1.613
 9151TIP3    H127398   0.206   5.328   1.632
 9151TIP3    H227399   0.105   5.239   1.563
 9152TIP3   OH227400   7.747   6.485   6.374
 9152TIP3    H127401   7.727   6.393   6.360
 9152TIP3    H227402   7.842   6.490   6.364
 9153TIP3   OH227403   2.719   7.160   3.611
 9153TIP3    H127404   2.716   7.119   3.698
 9153TIP3    H227405   2.675   7.098   3.554
 9154TIP3   OH227406   8.069   0.381   2.755
 9154TIP3    H127407   8.102   0.293   2.770
 9154TIP3    H227408   7.974   0.371   2.748
 9155TIP3   OH227409   7.414   0.068   2.981
 9155TIP3    H127410   7.460   0.109   2.907
 9155TIP3    H227411   7.423  -0.026   2.966
 9156TIP3   OH227412   0.150   3.196   2.173
 9156TIP3    H127413   0.216   3.248   2.218
 9156TIP3    H227414   0.110   3.257   2.111
 9157TIP3   OH227415   7.883   6.817   1.785
 9157TIP3    H127416   7.802   6.861   1.763
 9157TIP3    H227417   7.870   6.726   1.757
 9158TIP3   OH227418   4.595   0.862   2.339
 9158TIP3    H127419   4.621   0.922   2.269
 9158TIP3    H227420   4.532   0.803   2.297
 9159TIP3   OH227421   1.963   1.672   1.853
 9159TIP3    H127422   1.949   1.674   1.759
 9159TIP3    H227423   2.025   1.601   1.867
 9160TIP3   OH227424   2.994   7.215   3.590
 9160TIP3    H127425   2.899   7.218   3.583
 9160TIP3    H227426   3.017   7.125   3.567
 9161TIP3   OH227427   7.765   7.141   3.997
 9161TIP3    H127428   7.794   7.055   3.966
 9161TIP3    H227429   7.712   7.122   4.074
 9162TIP3   OH227430   3.938   3.087   1.080
 9162TIP3    H127431   4.024   3.126   1.093
 9162TIP3    H227432   3.955   2.992   1.078
 9163TIP3   OH227433   6.510   3.499   5.230
 9163TIP3    H127434   6.474   3.546   5.155
 9163TIP3    H227435   6.603   3.522   5.230
 9164TIP3   OH227436   3.973   2.668   5.138
 9164TIP3    H127437   3.944   2.577   5.130
 9164TIP3    H227438   3.961   2.705   5.050
 9165TIP3   OH227439   6.706   4.579   6.366
 9165TIP3    H127440   6.767   4.529   6.420
 9165TIP3    H227441   6.655   4.631   6.429
 9166TIP3   OH227442   3.585   6.315   5.089
 9166TIP3    H127443   3.668   6.306   5.137
 9166TIP3    H227444   3.527   6.361   5.150
 9167TIP3   OH227445   2.736   3.405   5.598
 9167TIP3    H127446   2.806   3.354   5.556
 9167TIP3    H227447   2.666   3.342   5.614
 9168TIP3   OH227448   0.357   3.870   0.081
 9168TIP3    H127449   0.323   3.958   0.096
 9168TIP3    H227450   0.282   3.820   0.049
 9169TIP3   OH227451   0.534   4.750   3.955
 9169TIP3    H127452   0.488   4.713   3.880
 9169TIP3    H227453   0.547   4.842   3.933
 9170TIP3   OH227454   2.480   5.005   1.960
 9170TIP3    H127455   2.403   5.032   1.910
 9170TIP3    H227456   2.448   4.936   2.018
 9171TIP3   OH227457   3.595   1.968   4.825
 9171TIP3    H127458   3.622   1.922   4.745
 9171TIP3    H227459   3.525   2.026   4.796
 9172TIP3   OH227460   8.141   3.241   5.039
 9172TIP3    H127461   8.070   3.206   4.987
 9172TIP3    H227462   8.216   3.184   5.021
 9173TIP3   OH227463   6.106   7.332   2.103
 9173TIP3    H127464   6.097   7.421   2.068
 9173TIP3    H227465   6.159   7.286   2.038
 9174TIP3   OH227466   7.343   2.320   3.884
 9174TIP3    H127467   7.341   2.414   3.864
 9174TIP3    H227468   7.408   2.284   3.824
 9175TIP3   OH227469   7.445   0.571   2.873
 9175TIP3    H127470   7.442   0.597   2.965
 9175TIP3    H227471   7.371   0.512   2.862
 9176TIP3   OH227472   8.237   3.024   0.831
 9176TIP3    H127473   8.235   3.075   0.912
 9176TIP3    H227474   8.195   2.941   0.854
 9177TIP3   OH227475   5.489   0.437   2.386
 9177TIP3    H127476   5.465   0.494   2.313
 9177TIP3    H227477   5.475   0.491   2.464
 9178TIP3   OH227478   2.446   2.255   2.752
 9178TIP3    H127479   2.537   2.250   2.723
 9178TIP3    H227480   2.443   2.198   2.829
 9179TIP3   OH227481   6.667   7.196   1.452
 9179TIP3    H127482   6.647   7.103   1.438
 9179TIP3    H227483   6.614   7.242   1.387
 9180TIP3   OH227484   2.560   2.597   0.203
 9180TIP3    H127485   2.633   2.599   0.265
 9180TIP3    H227486   2.576   2.521   0.148
 9181TIP3   OH227487   4.341   2.032   0.250
 9181TIP3    H127488   4.396   2.033   0.172
 9181TIP3    H227489   4.393   1.985   0.315
 9182TIP3   OH227490   2.107   0.861   0.180
 9182TIP3    H127491   2.187   0.888   0.225
 9182TIP3    H227492   2.068   0.942   0.149
 9183TIP3   OH227493   2.031   3.695   3.773
 9183TIP3    H127494   2.023   3.789   3.754
 9183TIP3    H227495   2.122   3.684   3.800
 9184TIP3   OH227496   4.033   3.700   0.557
 9184TIP3    H127497   4.002   3.770   0.615
 9184TIP3    H227498   4.104   3.658   0.606
 9185TIP3   OH227499   3.792   5.312   3.603
 9185TIP3    H127500   3.799   5.278   3.692
 9185TIP3    H227501   3.706   5.283   3.573
 9186TIP3   OH227502   5.389   2.946   4.629
 9186TIP3    H127503   5.397   3.041   4.625
 9186TIP3    H227504   5.380   2.918   4.538
 9187TIP3   OH227505   1.481   0.257   5.620
 9187TIP3    H127506   1.515   0.320   5.683
 9187TIP3    H227507   1.524   0.174   5.642
 9188TIP3   OH227508   2.812   2.251   5.717
 9188TIP3    H127509   2.725   2.280   5.688
 9188TIP3    H227510   2.802   2.238   5.811
 9189TIP3   OH227511   1.875   4.103   3.902
 9189TIP3    H127512   1.938   4.131   3.835
 9189TIP3    H227513   1.916   4.127   3.985
 9190TIP3   OH227514   1.966   4.376   2.966
 9190TIP3    H127515   1.954   4.419   3.051
 9190TIP3    H227516   1.945   4.284   2.983
 9191TIP3   OH227517   6.995   0.820   2.700
 9191TIP3    H127518   7.052   0.877   2.751
 9191TIP3    H227519   7.047   0.741   2.684
 9192TIP3   OH227520   3.296   7.392   5.312
 9192TIP3    H127521   3.357   7.351   5.374
 9192TIP3    H227522   3.228   7.431   5.367
 9193TIP3   OH227523   5.465   6.002   5.135
 9193TIP3    H127524   5.543   5.989   5.081
 9193TIP3    H227525   5.487   6.077   5.191
 9194TIP3   OH227526   8.308   2.785   2.817
 9194TIP3    H127527   8.247   2.715   2.792
 9194TIP3    H227528   8.378   2.780   2.752
 9195TIP3   OH227529   7.865   2.806   5.526
 9195TIP3    H127530   7.934   2.761   5.477
 9195TIP3    H227531   7.910   2.879   5.569
 9196TIP3   OH227532   7.145   5.718   0.039
 9196TIP3    H127533   7.064   5.670   0.060
 9196TIP3    H227534   7.137   5.740  -0.054
 9197TIP3   OH227535   6.704   5.822   0.204
 9197TIP3    H127536   6.734   5.735   0.177
 9197TIP3    H227537   6.779   5.879   0.191
 9198TIP3   OH227538   1.208   0.362   3.609
 9198TIP3    H127539   1.239   0.407   3.687
 9198TIP3    H227540   1.282   0.366   3.548
 9199TIP3   OH227541   6.313   3.690   1.402
 9199TIP3    H127542   6.239   3.631   1.414
 9199TIP3    H227543   6.306   3.720   1.311
 9200TIP3   OH227544   5.034   2.483   6.549
 9200TIP3    H127545   4.946   2.521   6.546
 9200TIP3    H227546   5.088   2.547   6.502
 9201TIP3   OH227547   4.513   2.031   2.433
 9201TIP3    H127548   4.532   2.007   2.342
 9201TIP3    H227549   4.560   2.113   2.446
 9202TIP3   OH227550   6.783   1.326   3.695
 9202TIP3    H127551   6.715   1.274   3.738
 9202TIP3    H227552   6.799   1.282   3.612
 9203TIP3   OH227553   2.813   5.084   5.838
 9203TIP3    H127554   2.727   5.082   5.797
 9203TIP3    H227555   2.841   4.992   5.839
 9204TIP3   OH227556   3.748   0.214   6.529
 9204TIP3    H127557   3.788   0.182   6.448
 9204TIP3    H227558   3.814   0.273   6.566
 9205TIP3   OH227559   0.293   0.992   4.491
 9205TIP3    H127560   0.261   1.079   4.516
 9205TIP3    H227561   0.380   1.007   4.456
 9206TIP3   OH227562   0.046   6.792   6.754
 9206TIP3    H127563   0.073   6.802   6.663
 9206TIP3    H227564  -0.031   6.848   6.763
 9207TIP3   OH227565   3.266   3.751   0.043
 9207TIP3    H127566   3.355   3.773   0.073
 9207TIP3    H227567   3.274   3.744  -0.052
 9208TIP3   OH227568   8.135   1.725   1.847
 9208TIP3    H127569   8.199   1.744   1.779
 9208TIP3    H227570   8.085   1.651   1.814
 9209TIP3   OH227571   8.296   3.209   1.851
 9209TIP3    H127572   8.301   3.293   1.898
 9209TIP3    H227573   8.213   3.171   1.881
 9210TIP3   OH227574   0.212   3.386   4.064
 9210TIP3    H127575   0.146   3.329   4.026
 9210TIP3    H227576   0.182   3.400   4.154
 9211TIP3   OH227577   3.853   2.917   3.264
 9211TIP3    H127578   3.864   2.823   3.278
 9211TIP3    H227579   3.941   2.949   3.244
 9212TIP3   OH227580   2.771   2.461   2.016
 9212TIP3    H127581   2.820   2.513   2.080
 9212TIP3    H227582   2.831   2.449   1.943
 9213TIP3   OH227583   0.135   6.780   6.496
 9213TIP3    H127584   0.200   6.832   6.543
 9213TIP3    H227585   0.170   6.772   6.407
 9214TIP3   OH227586   7.451   1.764   2.905
 9214TIP3    H127587   7.418   1.746   2.993
 9214TIP3    H227588   7.459   1.678   2.864
 9215TIP3   OH227589   6.297   1.861   0.649
 9215TIP3    H127590   6.343   1.813   0.719
 9215TIP3    H227591   6.335   1.949   0.653
 9216TIP3   OH227592   4.302   2.258   1.941
 9216TIP3    H127593   4.247   2.313   1.997
 9216TIP3    H227594   4.300   2.172   1.982
 9217TIP3   OH227595   6.803   1.063   4.434
 9217TIP3    H127596   6.869   1.091   4.497
 9217TIP3    H227597   6.836   0.980   4.400
 9218TIP3   OH227598   3.343   4.722   1.939
 9218TIP3    H127599   3.341   4.726   1.843
 9218TIP3    H227600   3.297   4.641   1.960
 9219TIP3   OH227601   1.095   4.563   1.296
 9219TIP3    H127602   1.071   4.630   1.360
 9219TIP3    H227603   1.098   4.609   1.212
 9220TIP3   OH227604   3.584   7.702   2.328
 9220TIP3    H127605   3.545   7.733   2.246
 9220TIP3    H227606   3.663   7.754   2.339
 9221TIP3   OH227607   7.612   1.496   4.465
 9221TIP3    H127608   7.655   1.530   4.544
 9221TIP3    H227609   7.672   1.520   4.394
 9222TIP3   OH227610   3.607   6.847   5.766
 9222TIP3    H127611   3.630   6.766   5.721
 9222TIP3    H227612   3.582   6.907   5.696
 9223TIP3   OH227613   3.714   2.867   0.629
 9223TIP3    H127614   3.633   2.818   0.646
 9223TIP3    H227615   3.772   2.803   0.588
 9224TIP3   OH227616   6.967   0.817   1.211
 9224TIP3    H127617   6.921   0.782   1.134
 9224TIP3    H227618   7.005   0.899   1.181
 9225TIP3   OH227619   3.361   5.606   0.702
 9225TIP3    H127620   3.275   5.612   0.661
 9225TIP3    H227621   3.348   5.637   0.791
 9226TIP3   OH227622   3.112   5.627   0.591
 9226TIP3    H127623   3.072   5.705   0.552
 9226TIP3    H227624   3.039   5.568   0.609
 9227TIP3   OH227625   0.035   4.026   5.519
 9227TIP3    H127626   0.015   4.072   5.437
 9227TIP3    H227627   0.102   4.081   5.561
 9228TIP3   OH227628   3.062   1.793   1.243
 9228TIP3    H127629   3.002   1.864   1.266
 9228TIP3    H227630   3.102   1.766   1.325
 9229TIP3   OH227631   1.745   7.850   1.831
 9229TIP3    H127632   1.722   7.783   1.767
 9229TIP3    H227633   1.701   7.823   1.912
 9230TIP3   OH227634   0.371   3.729   0.324
 9230TIP3    H127635   0.380   3.790   0.251
 9230TIP3    H227636   0.445   3.669   0.314
 9231TIP3   OH227637   7.529   5.979   3.413
 9231TIP3    H127638   7.624   5.966   3.417
 9231TIP3    H227639   7.508   6.023   3.496
 9232TIP3   OH227640   3.118   3.342   4.588
 9232TIP3    H127641   3.212   3.360   4.584
 9232TIP3    H227642   3.110   3.249   4.566
 9233TIP3   OH227643   4.495   5.921   3.792
 9233TIP3    H127644   4.545   5.850   3.754
 9233TIP3    H227645   4.519   5.998   3.740
 9234TIP3   OH227646   5.872   7.591   3.544
 9234TIP3    H127647   5.868   7.503   3.582
 9234TIP3    H227648   5.783   7.626   3.554
 9235TIP3   OH227649   1.788   0.888   1.851
 9235TIP3    H127650   1.725   0.815   1.855
 9235TIP3    H227651   1.791   0.912   1.758
 9236TIP3   OH227652   6.237   4.485   4.327
 9236TIP3    H127653   6.307   4.529   4.377
 9236TIP3    H227654   6.261   4.393   4.329
 9237TIP3   OH227655   6.502   2.377   3.268
 9237TIP3    H127656   6.514   2.328   3.349
 9237TIP3    H227657   6.414   2.412   3.274
 9238TIP3   OH227658   1.678   7.347   0.363
 9238TIP3    H127659   1.605   7.374   0.418
 9238TIP3    H227660   1.646   7.358   0.273
 9239TIP3   OH227661   3.942   4.409   3.596
 9239TIP3    H127662   3.878   4.479   3.585
 9239TIP3    H227663   4.021   4.453   3.627
 9240TIP3   OH227664   6.664   3.885   3.606
 9240TIP3    H127665   6.698   3.958   3.555
 9240TIP3    H227666   6.582   3.861   3.563
 9241TIP3   OH227667   3.830   6.601   0.438
 9241TIP3    H127668   3.841   6.555   0.521
 9241TIP3    H227669   3.901   6.665   0.436
 9242TIP3   OH227670   6.532   0.635   0.706
 9242TIP3    H127671   6.477   0.610   0.631
 9242TIP3    H227672   6.621   0.617   0.677
 9243TIP3   OH227673   5.524   2.823   4.423
 9243TIP3    H127674   5.550   2.906   4.384
 9243TIP3    H227675   5.604   2.772   4.429
 9244TIP3   OH227676   4.471   0.040   3.235
 9244TIP3    H127677   4.418  -0.035   3.208
 9244TIP3    H227678   4.415   0.089   3.296
 9245TIP3   OH227679   5.434   7.315   5.762
 9245TIP3    H127680   5.422   7.235   5.712
 9245TIP3    H227681   5.351   7.362   5.753
 9246TIP3   OH227682   0.469   4.353   0.014
 9246TIP3    H127683   0.443   4.275   0.063
 9246TIP3    H227684   0.552   4.329  -0.028
 9247TIP3   OH227685   0.655   5.680   0.506
 9247TIP3    H127686   0.656   5.695   0.600
 9247TIP3    H227687   0.594   5.608   0.494
 9248TIP3   OH227688   6.779   0.172   0.926
 9248TIP3    H127689   6.773   0.131   1.012
 9248TIP3    H227690   6.698   0.224   0.919
 9249TIP3   OH227691   2.241   5.365   0.924
 9249TIP3    H127692   2.170   5.352   0.861
 9249TIP3    H227693   2.318   5.381   0.869
 9250TIP3   OH227694   5.978   1.420   0.255
 9250TIP3    H127695   6.053   1.403   0.198
 9250TIP3    H227696   5.952   1.334   0.287
 9251TIP3   OH227697   0.144   0.231   4.065
 9251TIP3    H127698   0.208   0.180   4.115
 9251TIP3    H227699   0.152   0.320   4.098
 9252TIP3   OH227700   1.298   0.525   2.657
 9252TIP3    H127701   1.249   0.470   2.595
 9252TIP3    H227702   1.237   0.595   2.681
 9253TIP3   OH227703   2.217   5.433   3.249
 9253TIP3    H127704   2.166   5.378   3.190
 9253TIP3    H227705   2.209   5.521   3.212
 9254TIP3   OH227706   3.765   2.420   2.708
 9254TIP3    H127707   3.818   2.342   2.725
 9254TIP3    H227708   3.817   2.492   2.743
 9255TIP3   OH227709   6.389   3.629   5.016
 9255TIP3    H127710   6.305   3.585   5.017
 9255TIP3    H227711   6.371   3.716   4.981
 9256TIP3   OH227712   0.806   7.443   0.159
 9256TIP3    H127713   0.806   7.348   0.156
 9256TIP3    H227714   0.838   7.465   0.247
 9257TIP3   OH227715   5.874   3.079   3.285
 9257TIP3    H127716   5.942   3.063   3.351
 9257TIP3    H227717   5.885   3.172   3.263
 9258TIP3   OH227718   1.792   3.900   4.594
 9258TIP3    H127719   1.733   3.953   4.648
 9258TIP3    H227720   1.779   3.811   4.625
 9259TIP3   OH227721   0.113   4.955   0.104
 9259TIP3    H127722   0.026   4.917   0.089
 9259TIP3    H227723   0.098   5.027   0.165
 9260TIP3   OH227724   2.004   0.698   2.945
 9260TIP3    H127725   1.930   0.744   2.906
 9260TIP3    H227726   2.014   0.619   2.893
 9261TIP3   OH227727   1.234   5.535   0.874
 9261TIP3    H127728   1.200   5.601   0.934
 9261TIP3    H227729   1.318   5.508   0.913
 9262TIP3   OH227730   3.208   3.467   4.868
 9262TIP3    H127731   3.204   3.550   4.821
 9262TIP3    H227732   3.281   3.420   4.827
 9263TIP3   OH227733   3.708   6.526   3.342
 9263TIP3    H127734   3.771   6.495   3.406
 9263TIP3    H227735   3.730   6.478   3.262
 9264TIP3   OH227736   5.661   7.609   0.173
 9264TIP3    H127737   5.716   7.666   0.227
 9264TIP3    H227738   5.621   7.668   0.109
 9265TIP3   OH227739   3.359   4.891   2.334
 9265TIP3    H127740   3.367   4.985   2.321
 9265TIP3    H227741   3.444   4.863   2.367
 9266TIP3   OH227742   5.766   6.021   4.601
 9266TIP3    H127743   5.820   6.099   4.602
 9266TIP3    H227744   5.753   6.001   4.508
 9267TIP3   OH227745   6.430   1.097   5.206
 9267TIP3    H127746   6.437   1.028   5.139
 9267TIP3    H227747   6.520   1.125   5.221
 9268TIP3   OH227748   6.580   1.112   3.795
 9268TIP3    H127749   6.514   1.068   3.741
 9268TIP3    H227750   6.555   1.091   3.885
 9269TIP3   OH227751   5.701   4.635   3.338
 9269TIP3    H127752   5.691   4.619   3.432
 9269TIP3    H227753   5.680   4.728   3.326
 9270TIP3   OH227754   7.739   5.668   3.806
 9270TIP3    H127755   7.784   5.747   3.837
 9270TIP3    H227756   7.808   5.602   3.800
 9271TIP3   OH227757   6.759   5.420   5.399
 9271TIP3    H127758   6.791   5.498   5.445
 9271TIP3    H227759   6.723   5.365   5.469
 9272TIP3   OH227760   3.365   1.059   6.165
 9272TIP3    H127761   3.346   1.012   6.084
 9272TIP3    H227762   3.293   1.122   6.173
 9273TIP3   OH227763   2.622   3.681   0.450
 9273TIP3    H127764   2.681   3.712   0.381
 9273TIP3    H227765   2.680   3.659   0.522
 9274TIP3   OH227766   7.691   5.446   6.309
 9274TIP3    H127767   7.622   5.382   6.322
 9274TIP3    H227768   7.739   5.447   6.392
 9275TIP3   OH227769   5.202   4.776   3.527
 9275TIP3    H127770   5.208   4.694   3.577
 9275TIP3    H227771   5.115   4.811   3.549
 9276TIP3   OH227772   7.400   1.740   0.745
 9276TIP3    H127773   7.342   1.815   0.730
 9276TIP3    H227774   7.378   1.709   0.832
 9277TIP3   OH227775   7.950   4.064   3.575
 9277TIP3    H127776   7.939   4.074   3.480
 9277TIP3    H227777   8.016   4.129   3.598
 9278TIP3   OH227778   5.582   2.222   4.019
 9278TIP3    H127779   5.495   2.256   3.999
 9278TIP3    H227780   5.634   2.241   3.941
 9279TIP3   OH227781   5.420   1.858   5.376
 9279TIP3    H127782   5.394   1.768   5.353
 9279TIP3    H227783   5.356   1.913   5.332
 9280TIP3   OH227784   1.520   2.876   3.442
 9280TIP3    H127785   1.501   2.931   3.367
 9280TIP3    H227786   1.594   2.822   3.415
 9281TIP3   OH227787   5.934   3.620   6.563
 9281TIP3    H127788   6.009   3.567   6.535
 9281TIP3    H227789   5.936   3.697   6.507
 9282TIP3   OH227790   0.884   6.862   3.766
 9282TIP3    H127791   0.871   6.927   3.834
 9282TIP3    H227792   0.795   6.840   3.737
 9283TIP3   OH227793   0.543   0.382   2.668
 9283TIP3    H127794   0.512   0.308   2.616
 9283TIP3    H227795   0.462   0.426   2.696
 9284TIP3   OH227796   0.126   4.038   2.334
 9284TIP3    H127797   0.143   4.006   2.422
 9284TIP3    H227798   0.056   3.982   2.301
 9285TIP3   OH227799   2.576   5.880   3.709
 9285TIP3    H127800   2.520   5.802   3.712
 9285TIP3    H227801   2.523   5.948   3.751
 9286TIP3   OH227802   2.179   4.678   1.447
 9286TIP3    H127803   2.126   4.730   1.508
 9286TIP3    H227804   2.259   4.728   1.436
 9287TIP3   OH227805   4.578   7.077   1.940
 9287TIP3    H127806   4.673   7.082   1.933
 9287TIP3    H227807   4.548   7.051   1.852
 9288TIP3   OH227808   7.257   3.185   3.663
 9288TIP3    H127809   7.278   3.258   3.605
 9288TIP3    H227810   7.178   3.214   3.709
 9289TIP3   OH227811   2.875   3.845   2.436
 9289TIP3    H127812   2.872   3.785   2.511
 9289TIP3    H227813   2.959   3.891   2.445
 9290TIP3   OH227814   6.412   4.007   2.761
 9290TIP3    H127815   6.466   3.972   2.832
 9290TIP3    H227816   6.388   4.095   2.790
 9291TIP3   OH227817   4.172   3.748   0.942
 9291TIP3    H127818   4.232   3.761   1.016
 9291TIP3    H227819   4.109   3.683   0.973
 9292TIP3   OH227820   6.393   1.509   4.026
 9292TIP3    H127821   6.328   1.443   4.001
 9292TIP3    H227822   6.369   1.586   3.975
 9293TIP3   OH227823   6.967   7.655   1.730
 9293TIP3    H127824   6.880   7.692   1.738
 9293TIP3    H227825   6.977   7.600   1.808
 9294TIP3   OH227826   1.255   5.473   2.917
 9294TIP3    H127827   1.320   5.542   2.933
 9294TIP3    H227828   1.172   5.520   2.908
 9295TIP3   OH227829   5.874   2.957   4.546
 9295TIP3    H127830   5.943   3.007   4.501
 9295TIP3    H227831   5.833   3.021   4.604
 9296TIP3   OH227832   8.124   4.299   5.834
 9296TIP3    H127833   8.089   4.305   5.923
 9296TIP3    H227834   8.107   4.208   5.808
 9297TIP3   OH227835   2.137   1.846   2.651
 9297TIP3    H127836   2.117   1.840   2.745
 9297TIP3    H227837   2.127   1.939   2.631
 9298TIP3   OH227838   2.952   5.249   3.237
 9298TIP3    H127839   3.032   5.220   3.194
 9298TIP3    H227840   2.898   5.285   3.167
 9299TIP3   OH227841   5.731   7.539   1.824
 9299TIP3    H127842   5.725   7.463   1.882
 9299TIP3    H227843   5.825   7.555   1.816
 9300TIP3   OH227844   7.582   6.247   1.069
 9300TIP3    H127845   7.578   6.340   1.047
 9300TIP3    H227846   7.513   6.235   1.134
 9301TIP3   OH227847   4.850   1.159   2.277
 9301TIP3    H127848   4.916   1.211   2.233
 9301TIP3    H227849   4.781   1.221   2.301
 9302TIP3   OH227850   8.159   2.919   1.524
 9302TIP3    H127851   8.202   3.005   1.528
 9302TIP3    H227852   8.076   2.936   1.479
 9303TIP3   OH227853   7.383   2.548   2.319
 9303TIP3    H127854   7.476   2.567   2.330
 9303TIP3    H227855   7.338   2.627   2.349
 9304TIP3   OH227856   3.083   1.139   6.550
 9304TIP3    H127857   3.073   1.090   6.632
 9304TIP3    H227858   2.996   1.136   6.510
 9305TIP3   OH227859   1.955   7.539   2.030
 9305TIP3    H127860   1.905   7.458   2.038
 9305TIP3    H227861   1.975   7.564   2.120
 9306TIP3   OH227862   3.271   0.787   4.249
 9306TIP3    H127863   3.192   0.796   4.302
 9306TIP3    H227864   3.276   0.694   4.228
 9307TIP3   OH227865   4.965   4.399   4.617
 9307TIP3    H127866   4.967   4.460   4.690
 9307TIP3    H227867   5.020   4.325   4.645
 9308TIP3   OH227868   3.444   2.262   6.457
 9308TIP3    H127869   3.448   2.353   6.427
 9308TIP3    H227870   3.518   2.253   6.517
 9309TIP3   OH227871   5.971   5.726   0.525
 9309TIP3    H127872   5.937   5.637   0.527
 9309TIP3    H227873   6.011   5.735   0.438
 9310TIP3   OH227874   0.851   6.322   3.084
 9310TIP3    H127875   0.778   6.282   3.037
 9310TIP3    H227876   0.928   6.303   3.030
 9311TIP3   OH227877   1.714   3.116   3.393
 9311TIP3    H127878   1.705   3.211   3.383
 9311TIP3    H227879   1.709   3.082   3.304
 9312TIP3   OH227880   2.374   6.073   3.391
 9312TIP3    H127881   2.290   6.060   3.348
 9312TIP3    H227882   2.434   6.014   3.345
 9313TIP3   OH227883   6.124   4.186   3.584
 9313TIP3    H127884   6.125   4.135   3.503
 9313TIP3    H227885   6.035   4.220   3.590
 9314TIP3   OH227886   7.156   6.803   4.491
 9314TIP3    H127887   7.104   6.727   4.463
 9314TIP3    H227888   7.135   6.870   4.426
 9315TIP3   OH227889   5.032   2.515   4.759
 9315TIP3    H127890   5.040   2.447   4.826
 9315TIP3    H227891   5.110   2.569   4.771
 9316TIP3   OH227892   7.143   4.623   3.348
 9316TIP3    H127893   7.235   4.647   3.349
 9316TIP3    H227894   7.142   4.527   3.350
 9317TIP3   OH227895   3.924   5.561   6.776
 9317TIP3    H127896   4.004   5.522   6.812
 9317TIP3    H227897   3.854   5.499   6.799
 9318TIP3   OH227898   5.764   3.844   3.555
 9318TIP3    H127899   5.711   3.808   3.483
 9318TIP3    H227900   5.839   3.785   3.561
 9319TIP3   OH227901   3.345   0.824   5.505
 9319TIP3    H127902   3.285   0.821   5.431
 9319TIP3    H227903   3.432   0.835   5.466
 9320TIP3   OH227904   7.183   6.913   3.722
 9320TIP3    H127905   7.134   6.845   3.675
 9320TIP3    H227906   7.199   6.980   3.656
 9321TIP3   OH227907   5.709   1.964   0.106
 9321TIP3    H127908   5.716   1.873   0.080
 9321TIP3    H227909   5.736   2.014   0.029
 9322TIP3   OH227910   7.863   6.591   1.532
 9322TIP3    H127911   7.818   6.542   1.463
 9322TIP3    H227912   7.916   6.526   1.578
 9323TIP3   OH227913   0.760   2.627   0.463
 9323TIP3    H127914   0.759   2.535   0.492
 9323TIP3    H227915   0.819   2.627   0.388
 9324TIP3   OH227916   6.707   5.232   2.491
 9324TIP3    H127917   6.716   5.264   2.401
 9324TIP3    H227918   6.795   5.235   2.527
 9325TIP3   OH227919   0.089   1.628   4.306
 9325TIP3    H127920   0.126   1.540   4.300
 9325TIP3    H227921   0.165   1.686   4.300
 9326TIP3   OH227922   6.435   0.456   3.193
 9326TIP3    H127923   6.413   0.371   3.155
 9326TIP3    H227924   6.451   0.437   3.285
 9327TIP3   OH227925   5.059   4.982   3.031
 9327TIP3    H127926   4.975   4.942   3.055
 9327TIP3    H227927   5.124   4.926   3.073
 9328TIP3   OH227928   7.426   5.127   4.416
 9328TIP3    H127929   7.514   5.165   4.420
 9328TIP3    H227930   7.368   5.202   4.407
 9329TIP3   OH227931   0.328   0.991   0.997
 9329TIP3    H127932   0.301   0.938   1.072
 9329TIP3    H227933   0.292   0.945   0.921
 9330TIP3   OH227934   3.397   1.609   1.573
 9330TIP3    H127935   3.460   1.636   1.640
 9330TIP3    H227936   3.428   1.523   1.544
 9331TIP3   OH227937   3.366   4.913   3.168
 9331TIP3    H127938   3.387   4.827   3.134
 9331TIP3    H227939   3.377   4.905   3.263
 9332TIP3   OH227940   1.848   6.930   2.403
 9332TIP3    H127941   1.791   6.857   2.427
 9332TIP3    H227942   1.868   6.973   2.486
 9333TIP3   OH227943   0.444   2.559   1.960
 9333TIP3    H127944   0.396   2.485   1.924
 9333TIP3    H227945   0.384   2.633   1.951
 9334TIP3   OH227946   7.234   1.325   1.857
 9334TIP3    H127947   7.311   1.377   1.882
 9334TIP3    H227948   7.238   1.322   1.761
 9335TIP3   OH227949   1.980   0.758   0.842
 9335TIP3    H127950   1.897   0.793   0.874
 9335TIP3    H227951   1.956   0.674   0.802
 9336TIP3   OH227952   5.425   5.216   6.475
 9336TIP3    H127953   5.491   5.268   6.521
 9336TIP3    H227954   5.460   5.207   6.386
 9337TIP3   OH227955   7.449   1.748   2.238
 9337TIP3    H127956   7.480   1.738   2.148
 9337TIP3    H227957   7.374   1.689   2.244
 9338TIP3   OH227958   7.908   0.896   1.561
 9338TIP3    H127959   7.998   0.914   1.587
 9338TIP3    H227960   7.891   0.808   1.594
 9339TIP3   OH227961   6.495   2.205   6.373
 9339TIP3    H127962   6.440   2.277   6.403
 9339TIP3    H227963   6.560   2.248   6.316
 9340TIP3   OH227964   0.731   1.738   2.346
 9340TIP3    H127965   0.704   1.727   2.438
 9340TIP3    H227966   0.650   1.759   2.300
 9341TIP3   OH227967   4.958   4.065   3.585
 9341TIP3    H127968   4.999   4.107   3.660
 9341TIP3    H227969   4.954   4.134   3.518
 9342TIP3   OH227970   7.602   3.725   5.417
 9342TIP3    H127971   7.551   3.663   5.469
 9342TIP3    H227972   7.651   3.671   5.355
 9343TIP3   OH227973   6.636   7.437   0.360
 9343TIP3    H127974   6.643   7.505   0.427
 9343TIP3    H227975   6.653   7.482   0.277
 9344TIP3   OH227976   6.776   7.851   6.097
 9344TIP3    H127977   6.776   7.846   6.192
 9344TIP3    H227978   6.839   7.784   6.069
 9345TIP3   OH227979   2.895   3.818   1.048
 9345TIP3    H127980   2.982   3.778   1.043
 9345TIP3    H227981   2.882   3.860   0.963
 9346TIP3   OH227982   0.824   6.513   5.649
 9346TIP3    H127983   0.875   6.594   5.647
 9346TIP3    H227984   0.857   6.462   5.575
 9347TIP3   OH227985   7.904   1.729   6.101
 9347TIP3    H127986   7.884   1.720   6.007
 9347TIP3    H227987   7.827   1.772   6.138
 9348TIP3   OH227988   2.676   3.154   1.250
 9348TIP3    H127989   2.682   3.247   1.228
 9348TIP3    H227990   2.594   3.147   1.300
 9349TIP3   OH227991   5.091   5.778   2.478
 9349TIP3    H127992   5.128   5.861   2.448
 9349TIP3    H227993   5.144   5.754   2.554
 9350TIP3   OH227994   6.922   0.246   3.930
 9350TIP3    H127995   6.877   0.253   4.014
 9350TIP3    H227996   6.856   0.271   3.865
 9351TIP3   OH227997   5.363   5.090   5.654
 9351TIP3    H127998   5.413   5.048   5.584
 9351TIP3    H227999   5.277   5.106   5.616
 9352TIP3   OH228000   5.020   1.579   5.097
 9352TIP3    H128001   4.937   1.622   5.076
 9352TIP3    H228002   4.996   1.510   5.158
 9353TIP3   OH228003   3.819   2.904   5.829
 9353TIP3    H128004   3.833   2.818   5.789
 9353TIP3    H228005   3.894   2.915   5.887
 9354TIP3   OH228006   4.073   5.331   5.350
 9354TIP3    H128007   4.038   5.417   5.327
 9354TIP3    H228008   4.000   5.271   5.339
 9355TIP3   OH228009   1.769   2.355   5.698
 9355TIP3    H128010   1.688   2.303   5.700
 9355TIP3    H228011   1.832   2.302   5.747
 9356TIP3   OH228012   1.747   7.409   5.457
 9356TIP3    H128013   1.812   7.425   5.527
 9356TIP3    H228014   1.705   7.493   5.444
 9357TIP3   OH228015   3.954   1.515   5.854
 9357TIP3    H128016   4.039   1.480   5.879
 9357TIP3    H228017   3.953   1.510   5.758
 9358TIP3   OH228018   1.219   6.925   2.166
 9358TIP3    H128019   1.212   6.989   2.238
 9358TIP3    H228020   1.251   6.976   2.092
 9359TIP3   OH228021   8.181   7.770   2.853
 9359TIP3    H128022   8.227   7.701   2.902
 9359TIP3    H228023   8.236   7.785   2.776
 9360TIP3   OH228024   3.626   2.036   2.209
 9360TIP3    H128025   3.632   2.129   2.229
 9360TIP3    H228026   3.561   2.030   2.139
 9361TIP3   OH228027   4.988   5.466   1.480
 9361TIP3    H128028   4.945   5.381   1.476
 9361TIP3    H228029   4.931   5.524   1.431
 9362TIP3   OH228030   3.902   2.150   3.479
 9362TIP3    H128031   3.845   2.154   3.403
 9362TIP3    H228032   3.844   2.167   3.553
 9363TIP3   OH228033   4.088   6.144   4.175
 9363TIP3    H128034   4.036   6.068   4.202
 9363TIP3    H228035   4.109   6.189   4.256
 9364TIP3   OH228036   8.169   7.769   1.470
 9364TIP3    H128037   8.111   7.709   1.423
 9364TIP3    H228038   8.128   7.855   1.459
 9365TIP3   OH228039   5.538   4.457   0.502
 9365TIP3    H128040   5.477   4.420   0.566
 9365TIP3    H228041   5.592   4.518   0.554
 9366TIP3   OH228042   5.012   7.290   0.624
 9366TIP3    H128043   5.050   7.373   0.595
 9366TIP3    H228044   5.018   7.294   0.720
 9367TIP3   OH228045   5.909   5.004   3.564
 9367TIP3    H128046   5.984   5.011   3.504
 9367TIP3    H228047   5.909   4.912   3.590
 9368TIP3   OH228048   3.937   3.969   0.612
 9368TIP3    H128049   3.860   4.017   0.581
 9368TIP3    H228050   3.943   3.991   0.705
 9369TIP3   OH228051   7.800   0.699   2.998
 9369TIP3    H128052   7.752   0.616   3.003
 9369TIP3    H228053   7.780   0.744   3.080
 9370TIP3   OH228054   7.424   3.216   0.849
 9370TIP3    H128055   7.453   3.303   0.873
 9370TIP3    H228056   7.437   3.211   0.755
 9371TIP3   OH228057   1.345   1.603   5.433
 9371TIP3    H128058   1.393   1.532   5.475
 9371TIP3    H228059   1.368   1.597   5.340
 9372TIP3   OH228060   2.215   7.686   2.658
 9372TIP3    H128061   2.160   7.764   2.662
 9372TIP3    H228062   2.239   7.677   2.566
 9373TIP3   OH228063   0.768   6.201   5.714
 9373TIP3    H128064   0.805   6.164   5.794
 9373TIP3    H228065   0.751   6.293   5.735
 9374TIP3   OH228066   8.251   0.973   2.392
 9374TIP3    H128067   8.168   0.971   2.439
 9374TIP3    H228068   8.274   0.881   2.379
 9375TIP3   OH228069   5.085   3.554   0.494
 9375TIP3    H128070   5.172   3.517   0.480
 9375TIP3    H228071   5.101   3.645   0.520
 9376TIP3   OH228072   6.865   1.512   6.368
 9376TIP3    H128073   6.770   1.523   6.372
 9376TIP3    H228074   6.880   1.454   6.294
 9377TIP3   OH228075   1.090   1.434   2.955
 9377TIP3    H128076   1.065   1.447   2.864
 9377TIP3    H228077   1.008   1.435   3.003
 9378TIP3   OH228078   0.052   4.885   1.105
 9378TIP3    H128079  -0.007   4.827   1.056
 9378TIP3    H228080   0.135   4.881   1.057
 9379TIP3   OH228081   2.527   7.519   1.724
 9379TIP3    H128082   2.523   7.578   1.649
 9379TIP3    H228083   2.610   7.540   1.767
 9380TIP3   OH228084   0.770   0.165   0.642
 9380TIP3    H128085   0.802   0.217   0.716
 9380TIP3    H228086   0.684   0.202   0.622
 9381TIP3   OH228087   7.525   1.271   3.976
 9381TIP3    H128088   7.548   1.270   3.883
 9381TIP3    H228089   7.443   1.320   3.980
 9382TIP3   OH228090   3.961   4.126   5.405
 9382TIP3    H128091   3.940   4.182   5.479
 9382TIP3    H228092   4.010   4.053   5.444
 9383TIP3   OH228093   3.688   7.017   0.747
 9383TIP3    H128094   3.743   6.962   0.803
 9383TIP3    H228095   3.619   7.050   0.806
 9384TIP3   OH228096   4.614   6.751   3.753
 9384TIP3    H128097   4.648   6.662   3.762
 9384TIP3    H228098   4.553   6.761   3.826
 9385TIP3   OH228099   1.590   3.551   4.881
 9385TIP3    H128100   1.505   3.518   4.908
 9385TIP3    H228101   1.653   3.490   4.919
 9386TIP3   OH228102   3.397   4.392   4.710
 9386TIP3    H128103   3.330   4.326   4.725
 9386TIP3    H228104   3.438   4.366   4.628
 9387TIP3   OH228105   4.256   1.537   4.772
 9387TIP3    H128106   4.250   1.469   4.705
 9387TIP3    H228107   4.349   1.539   4.796
 9388TIP3   OH228108   4.976   0.608   6.370
 9388TIP3    H128109   5.033   0.615   6.447
 9388TIP3    H228110   4.940   0.520   6.375
 9389TIP3   OH228111   5.145   1.294   4.361
 9389TIP3    H128112   5.125   1.231   4.430
 9389TIP3    H228113   5.066   1.295   4.306
 9390TIP3   OH228114   6.852   0.880   2.322
 9390TIP3    H128115   6.914   0.934   2.371
 9390TIP3    H228116   6.896   0.864   2.238
 9391TIP3   OH228117   1.835   2.736   3.443
 9391TIP3    H128118   1.799   2.676   3.508
 9391TIP3    H228119   1.918   2.765   3.481
 9392TIP3   OH228120   0.927   3.478   6.204
 9392TIP3    H128121   0.837   3.501   6.180
 9392TIP3    H228122   0.922   3.457   6.298
 9393TIP3   OH228123   6.818   0.175   2.140
 9393TIP3    H128124   6.880   0.105   2.161
 9393TIP3    H228125   6.804   0.167   2.046
 9394TIP3   OH228126   3.650   2.437   4.823
 9394TIP3    H128127   3.580   2.501   4.838
 9394TIP3    H228128   3.639   2.410   4.732
 9395TIP3   OH228129   2.815   0.001   0.893
 9395TIP3    H128130   2.848   0.031   0.978
 9395TIP3    H228131   2.890  -0.043   0.852
 9396TIP3   OH228132   2.142   1.711   6.342
 9396TIP3    H128133   2.158   1.769   6.417
 9396TIP3    H228134   2.199   1.635   6.358
 9397TIP3   OH228135   1.931   3.915   3.550
 9397TIP3    H128136   2.020   3.951   3.543
 9397TIP3    H228137   1.874   3.988   3.525
 9398TIP3   OH228138   0.475   0.542   0.502
 9398TIP3    H128139   0.563   0.522   0.535
 9398TIP3    H228140   0.477   0.636   0.483
 9399TIP3   OH228141   5.522   4.787   2.568
 9399TIP3    H128142   5.434   4.771   2.533
 9399TIP3    H228143   5.556   4.700   2.588
 9400TIP3   OH228144   1.698   3.191   2.023
 9400TIP3    H128145   1.611   3.199   1.984
 9400TIP3    H228146   1.753   3.251   1.972
 9401TIP3   OH228147   4.731   4.749   3.729
 9401TIP3    H128148   4.641   4.759   3.697
 9401TIP3    H228149   4.728   4.669   3.782
 9402TIP3   OH228150   1.500   3.503   3.738
 9402TIP3    H128151   1.530   3.501   3.648
 9402TIP3    H228152   1.410   3.536   3.733
 9403TIP3   OH228153   1.714   3.042   1.194
 9403TIP3    H128154   1.793   3.083   1.229
 9403TIP3    H228155   1.739   2.950   1.181
 9404TIP3   OH228156   0.521   7.563   5.797
 9404TIP3    H128157   0.549   7.634   5.738
 9404TIP3    H228158   0.430   7.548   5.774
 9405TIP3   OH228159   8.101   4.016   6.167
 9405TIP3    H128160   8.134   4.001   6.256
 9405TIP3    H228161   8.101   4.111   6.157
 9406TIP3   OH228162   0.732   5.816   3.049
 9406TIP3    H128163   0.726   5.723   3.072
 9406TIP3    H228164   0.779   5.855   3.123
 9407TIP3   OH228165   5.446   0.910   2.145
 9407TIP3    H128166   5.476   0.995   2.176
 9407TIP3    H228167   5.416   0.926   2.055
 9408TIP3   OH228168   0.975   3.912   6.338
 9408TIP3    H128169   0.883   3.907   6.367
 9408TIP3    H228170   1.021   3.953   6.412
 9409TIP3   OH228171   5.610   1.321   4.890
 9409TIP3    H128172   5.524   1.280   4.885
 9409TIP3    H228173   5.611   1.366   4.974
 9410TIP3   OH228174   7.386   5.985   4.324
 9410TIP3    H128175   7.303   5.947   4.293
 9410TIP3    H228176   7.359   6.060   4.377
 9411TIP3   OH228177   2.353   1.465   0.031
 9411TIP3    H128178   2.407   1.389   0.054
 9411TIP3    H228179   2.337   1.510   0.114
 9412TIP3   OH228180   6.479   3.550   0.241
 9412TIP3    H128181   6.520   3.628   0.281
 9412TIP3    H228182   6.405   3.585   0.191
 9413TIP3   OH228183   3.818   6.399   3.097
 9413TIP3    H128184   3.796   6.352   3.017
 9413TIP3    H228185   3.900   6.360   3.126
 9414TIP3   OH228186   4.911   5.437   4.825
 9414TIP3    H128187   4.854   5.428   4.749
 9414TIP3    H228188   4.994   5.470   4.790
 9415TIP3   OH228189   5.726   3.984   3.785
 9415TIP3    H128190   5.743   3.944   3.700
 9415TIP3    H228191   5.810   4.021   3.812
 9416TIP3   OH228192   6.176   5.127   2.022
 9416TIP3    H128193   6.265   5.121   2.058
 9416TIP3    H228194   6.171   5.215   1.985
 9417TIP3   OH228195   5.672   3.474   0.791
 9417TIP3    H128196   5.682   3.569   0.797
 9417TIP3    H228197   5.705   3.452   0.704
 9418TIP3   OH228198   1.261   5.303   0.515
 9418TIP3    H128199   1.328   5.308   0.584
 9418TIP3    H228200   1.210   5.225   0.537
 9419TIP3   OH228201   7.638   1.018   0.970
 9419TIP3    H128202   7.546   1.046   0.975
 9419TIP3    H228203   7.666   1.042   0.882
 9420TIP3   OH228204   7.012   7.182   4.386
 9420TIP3    H128205   7.093   7.200   4.435
 9420TIP3    H228206   7.038   7.118   4.320
 9421TIP3   OH228207   2.191   6.861   2.463
 9421TIP3    H128208   2.277   6.885   2.497
 9421TIP3    H228209   2.185   6.905   2.378
 9422TIP3   OH228210   6.249   1.674   3.483
 9422TIP3    H128211   6.319   1.648   3.543
 9422TIP3    H228212   6.253   1.610   3.412
 9423TIP3   OH228213   7.968   6.869   2.167
 9423TIP3    H128214   8.011   6.862   2.083
 9423TIP3    H228215   8.039   6.874   2.231
 9424TIP3   OH228216   0.305   2.570   0.610
 9424TIP3    H128217   0.258   2.650   0.634
 9424TIP3    H228218   0.258   2.536   0.534
 9425TIP3   OH228219   1.316   4.187   6.560
 9425TIP3    H128220   1.369   4.145   6.628
 9425TIP3    H228221   1.291   4.271   6.597
 9426TIP3   OH228222   5.768   4.542   4.713
 9426TIP3    H128223   5.737   4.632   4.701
 9426TIP3    H228224   5.805   4.541   4.801
 9427TIP3   OH228225   7.304   4.949   4.606
 9427TIP3    H128226   7.331   5.024   4.553
 9427TIP3    H228227   7.281   4.987   4.691
 9428TIP3   OH228228   6.233   6.129   5.173
 9428TIP3    H128229   6.227   6.043   5.131
 9428TIP3    H228230   6.178   6.186   5.120
 9429TIP3   OH228231   1.766   1.748   3.754
 9429TIP3    H128232   1.710   1.756   3.831
 9429TIP3    H228233   1.795   1.837   3.736
 9430TIP3   OH228234   6.030   4.233   0.889
 9430TIP3    H128235   6.082   4.276   0.821
 9430TIP3    H228236   5.951   4.204   0.843
 9431TIP3   OH228237   7.584   1.308   5.060
 9431TIP3    H128238   7.658   1.274   5.009
 9431TIP3    H228239   7.625   1.353   5.134
 9432TIP3   OH228240   7.154   6.804   5.336
 9432TIP3    H128241   7.110   6.866   5.277
 9432TIP3    H228242   7.225   6.767   5.285
 9433TIP3   OH228243   7.010   0.770   6.067
 9433TIP3    H128244   7.081   0.731   6.118
 9433TIP3    H228245   6.986   0.703   6.004
 9434TIP3   OH228246   5.137   6.070   0.757
 9434TIP3    H128247   5.098   6.143   0.803
 9434TIP3    H228248   5.218   6.105   0.720
 9435TIP3   OH228249   7.972   2.022   0.359
 9435TIP3    H128250   7.955   2.084   0.288
 9435TIP3    H228251   7.886   1.985   0.380
 9436TIP3   OH228252   0.680   3.597   6.173
 9436TIP3    H128253   0.646   3.646   6.098
 9436TIP3    H228254   0.613   3.531   6.191
 9437TIP3   OH228255   8.242   7.149   1.899
 9437TIP3    H128256   8.169   7.114   1.849
 9437TIP3    H228257   8.203   7.180   1.981
 9438TIP3   OH228258   2.731   7.047   4.444
 9438TIP3    H128259   2.661   7.044   4.509
 9438TIP3    H228260   2.688   7.028   4.361
 9439TIP3   OH228261   0.462   5.607   5.442
 9439TIP3    H128262   0.385   5.615   5.386
 9439TIP3    H228263   0.536   5.613   5.383
 9440TIP3   OH228264   6.431   2.844   1.662
 9440TIP3    H128265   6.519   2.820   1.692
 9440TIP3    H228266   6.372   2.808   1.728
 9441TIP3   OH228267   1.090   2.510   1.756
 9441TIP3    H128268   1.006   2.464   1.760
 9441TIP3    H228269   1.110   2.517   1.663
 9442TIP3   OH228270   6.214   4.692   3.828
 9442TIP3    H128271   6.209   4.612   3.880
 9442TIP3    H228272   6.289   4.679   3.770
 9443TIP3   OH228273   3.555   7.226   4.453
 9443TIP3    H128274   3.464   7.199   4.440
 9443TIP3    H228275   3.554   7.276   4.534
 9444TIP3   OH228276   6.008   7.000   5.672
 9444TIP3    H128277   5.956   7.007   5.752
 9444TIP3    H228278   5.999   6.909   5.646
 9445TIP3   OH228279   1.250   2.357   3.846
 9445TIP3    H128280   1.288   2.270   3.838
 9445TIP3    H228281   1.182   2.348   3.912
 9446TIP3   OH228282   5.164   4.580   1.307
 9446TIP3    H128283   5.177   4.572   1.401
 9446TIP3    H228284   5.092   4.642   1.297
 9447TIP3   OH228285   1.182   2.223   3.075
 9447TIP3    H128286   1.197   2.179   3.159
 9447TIP3    H228287   1.259   2.279   3.063
 9448TIP3   OH228288   0.105   3.587   3.598
 9448TIP3    H128289   0.197   3.562   3.585
 9448TIP3    H228290   0.100   3.610   3.691
 9449TIP3   OH228291   1.187   6.181   1.817
 9449TIP3    H128292   1.236   6.241   1.762
 9449TIP3    H228293   1.161   6.233   1.893
 9450TIP3   OH228294   7.267   6.355   6.739
 9450TIP3    H128295   7.299   6.291   6.804
 9450TIP3    H228296   7.345   6.404   6.713
 9451TIP3   OH228297   1.957   3.289   0.831
 9451TIP3    H128298   1.925   3.316   0.917
 9451TIP3    H228299   1.897   3.221   0.803
 9452TIP3   OH228300   1.022   4.611   0.473
 9452TIP3    H128301   1.062   4.665   0.541
 9452TIP3    H228302   1.096   4.567   0.431
 9453TIP3   OH228303   7.427   7.660   1.880
 9453TIP3    H128304   7.467   7.689   1.962
 9453TIP3    H228305   7.376   7.735   1.850
 9454TIP3   OH228306   2.180   1.929   0.641
 9454TIP3    H128307   2.140   1.987   0.576
 9454TIP3    H228308   2.234   1.869   0.590
 9455TIP3   OH228309   0.645   1.055   2.766
 9455TIP3    H128310   0.564   1.070   2.717
 9455TIP3    H228311   0.629   1.093   2.852
 9456TIP3   OH228312   7.994   5.491   6.028
 9456TIP3    H128313   7.990   5.550   6.103
 9456TIP3    H228314   7.902   5.483   6.000
 9457TIP3   OH228315   2.742   0.984   3.056
 9457TIP3    H128316   2.654   0.958   3.029
 9457TIP3    H228317   2.739   0.982   3.152
 9458TIP3   OH228318   7.533   4.609   1.315
 9458TIP3    H128319   7.600   4.549   1.284
 9458TIP3    H228320   7.564   4.637   1.401
 9459TIP3   OH228321   1.670   3.048   3.127
 9459TIP3    H128322   1.606   3.008   3.068
 9459TIP3    H228323   1.746   3.066   3.072
 9460TIP3   OH228324   4.511   3.124   2.767
 9460TIP3    H128325   4.543   3.193   2.708
 9460TIP3    H228326   4.584   3.108   2.826
 9461TIP3   OH228327   7.084   1.783   5.630
 9461TIP3    H128328   7.005   1.734   5.655
 9461TIP3    H228329   7.110   1.828   5.710
 9462TIP3   OH228330   4.664   2.811   5.671
 9462TIP3    H128331   4.678   2.717   5.683
 9462TIP3    H228332   4.732   2.852   5.724
 9463TIP3   OH228333   7.745   6.223   1.364
 9463TIP3    H128334   7.825   6.186   1.401
 9463TIP3    H228335   7.735   6.179   1.280
 9464TIP3   OH228336   7.009   4.255   1.383
 9464TIP3    H128337   7.083   4.300   1.341
 9464TIP3    H228338   7.038   4.241   1.473
 9465TIP3   OH228339   4.258   6.563   3.859
 9465TIP3    H128340   4.326   6.613   3.903
 9465TIP3    H228341   4.296   6.540   3.774
 9466TIP3   OH228342   1.924   3.586   6.525
 9466TIP3    H128343   2.013   3.551   6.530
 9466TIP3    H228344   1.911   3.633   6.607
 9467TIP3   OH228345   5.912   6.616   0.613
 9467TIP3    H128346   5.997   6.612   0.658
 9467TIP3    H228347   5.855   6.662   0.674
 9468TIP3   OH228348   2.429   0.660   4.184
 9468TIP3    H128349   2.510   0.609   4.189
 9468TIP3    H228350   2.374   0.623   4.253
 9469TIP3   OH228351   2.411   1.939   2.650
 9469TIP3    H128352   2.430   1.949   2.743
 9469TIP3    H228353   2.326   1.894   2.648
 9470TIP3   OH228354   7.561   6.183   6.732
 9470TIP3    H128355   7.524   6.237   6.662
 9470TIP3    H228356   7.615   6.119   6.686
 9471TIP3   OH228357   1.756   0.161   5.293
 9471TIP3    H128358   1.774   0.165   5.199
 9471TIP3    H228359   1.747   0.067   5.311
 9472TIP3   OH228360   0.146   1.036   0.026
 9472TIP3    H128361   0.067   1.061  -0.022
 9472TIP3    H228362   0.162   1.108   0.086
 9473TIP3   OH228363   3.078   3.451   2.029
 9473TIP3    H128364   3.072   3.476   1.937
 9473TIP3    H228365   3.057   3.532   2.077
 9474TIP3   OH228366   4.444   1.687   2.217
 9474TIP3    H128367   4.387   1.631   2.166
 9474TIP3    H228368   4.425   1.666   2.308
 9475TIP3   OH228369   7.645   4.031   3.013
 9475TIP3    H128370   7.738   4.019   2.994
 9475TIP3    H228371   7.601   3.995   2.936
 9476TIP3   OH228372   6.541   6.090   0.197
 9476TIP3    H128373   6.588   6.124   0.273
 9476TIP3    H228374   6.516   6.002   0.222
 9477TIP3   OH228375   3.683   7.790   3.089
 9477TIP3    H128376   3.739   7.716   3.066
 9477TIP3    H228377   3.613   7.752   3.142
 9478TIP3   OH228378   2.377   1.166   6.251
 9478TIP3    H128379   2.374   1.107   6.326
 9478TIP3    H228380   2.287   1.198   6.242
 9479TIP3   OH228381   4.838   2.936   4.562
 9479TIP3    H128382   4.883   2.902   4.640
 9479TIP3    H228383   4.747   2.944   4.589
 9480TIP3   OH228384   3.047   4.379   0.652
 9480TIP3    H128385   3.009   4.302   0.608
 9480TIP3    H228386   2.976   4.443   0.654
 9481TIP3   OH228387   4.552   4.570   3.891
 9481TIP3    H128388   4.507   4.491   3.920
 9481TIP3    H228389   4.645   4.552   3.907
 9482TIP3   OH228390   3.300   0.835   3.950
 9482TIP3    H128391   3.292   0.829   4.045
 9482TIP3    H228392   3.215   0.807   3.917
 9483TIP3   OH228393   8.085   6.097   2.168
 9483TIP3    H128394   8.110   6.177   2.213
 9483TIP3    H228395   8.092   6.029   2.235
 9484TIP3   OH228396   6.081   0.652   4.225
 9484TIP3    H128397   6.092   0.746   4.213
 9484TIP3    H228398   6.152   0.613   4.174
 9485TIP3   OH228399   6.763   1.205   0.423
 9485TIP3    H128400   6.747   1.286   0.471
 9485TIP3    H228401   6.732   1.136   0.481
 9486TIP3   OH228402   2.328   3.073   6.732
 9486TIP3    H128403   2.291   3.007   6.673
 9486TIP3    H228404   2.395   3.117   6.679
 9487TIP3   OH228405   1.913   3.035   4.206
 9487TIP3    H128406   1.945   3.109   4.257
 9487TIP3    H228407   1.911   3.067   4.116
 9488TIP3   OH228408   3.225   7.621   0.660
 9488TIP3    H128409   3.198   7.711   0.677
 9488TIP3    H228410   3.321   7.625   0.655
 9489TIP3   OH228411   1.751   5.983   6.215
 9489TIP3    H128412   1.680   6.048   6.222
 9489TIP3    H228413   1.725   5.913   6.275
 9490TIP3   OH228414   1.304   1.996   3.544
 9490TIP3    H128415   1.249   2.041   3.481
 9490TIP3    H228416   1.299   2.049   3.624
 9491TIP3   OH228417   7.707   0.861   0.691
 9491TIP3    H128418   7.696   0.820   0.778
 9491TIP3    H228419   7.776   0.809   0.649
 9492TIP3   OH228420   1.842   0.927   2.846
 9492TIP3    H128421   1.748   0.918   2.832
 9492TIP3    H228422   1.851   1.005   2.900
 9493TIP3   OH228423   1.618   2.456   3.394
 9493TIP3    H128424   1.524   2.451   3.409
 9493TIP3    H228425   1.628   2.498   3.309
 9494TIP3   OH228426   7.242   2.993   0.092
 9494TIP3    H128427   7.183   2.965   0.162
 9494TIP3    H228428   7.239   2.921   0.029
 9495TIP3   OH228429   5.251   4.525   3.275
 9495TIP3    H128430   5.158   4.544   3.262
 9495TIP3    H228431   5.296   4.585   3.215
 9496TIP3   OH228432   3.873   4.512   1.789
 9496TIP3    H128433   3.957   4.514   1.742
 9496TIP3    H228434   3.830   4.432   1.758
 9497TIP3   OH228435   5.079   6.760   3.093
 9497TIP3    H128436   5.064   6.667   3.113
 9497TIP3    H228437   5.038   6.806   3.166
 9498TIP3   OH228438   2.107   1.143   6.078
 9498TIP3    H128439   2.106   1.131   5.983
 9498TIP3    H228440   2.128   1.235   6.091
 9499TIP3   OH228441   0.819   1.478   3.121
 9499TIP3    H128442   0.755   1.466   3.191
 9499TIP3    H228443   0.785   1.551   3.070
 9500TIP3   OH228444   6.479   5.709   6.378
 9500TIP3    H128445   6.515   5.626   6.348
 9500TIP3    H228446   6.399   5.686   6.425
 9501TIP3   OH228447   8.230   6.048   1.751
 9501TIP3    H128448   8.274   5.970   1.784
 9501TIP3    H228449   8.298   6.115   1.746
 9502TIP3   OH228450   5.998   6.337   0.587
 9502TIP3    H128451   5.936   6.278   0.543
 9502TIP3    H228452   5.955   6.422   0.585
 9503TIP3   OH228453   4.642   2.730   4.872
 9503TIP3    H128454   4.627   2.807   4.927
 9503TIP3    H228455   4.583   2.742   4.798
 9504TIP3   OH228456   3.894   7.651   3.541
 9504TIP3    H128457   3.900   7.567   3.588
 9504TIP3    H228458   3.806   7.683   3.559
 9505TIP3   OH228459   2.353   2.619   6.032
 9505TIP3    H128460   2.291   2.596   6.101
 9505TIP3    H228461   2.422   2.553   6.038
 9506TIP3   OH228462   5.400   0.008   3.199
 9506TIP3    H128463   5.423  -0.076   3.160
 9506TIP3    H228464   5.484   0.054   3.208
 9507TIP3   OH228465   5.059   6.661   4.441
 9507TIP3    H128466   5.054   6.682   4.348
 9507TIP3    H228467   5.123   6.590   4.446
 9508TIP3   OH228468   1.078   4.024   6.592
 9508TIP3    H128469   1.164   3.999   6.627
 9508TIP3    H228470   1.043   4.085   6.656
 9509TIP3   OH228471   3.195   7.635   5.974
 9509TIP3    H128472   3.273   7.609   5.925
 9509TIP3    H228473   3.183   7.728   5.954
 9510TIP3   OH228474   2.580   4.330   4.585
 9510TIP3    H128475   2.530   4.411   4.573
 9510TIP3    H228476   2.586   4.319   4.680
 9511TIP3   OH228477   4.173   6.384   1.194
 9511TIP3    H128478   4.135   6.458   1.241
 9511TIP3    H228479   4.104   6.353   1.137
 9512TIP3   OH228480   3.450   1.963   1.968
 9512TIP3    H128481   3.365   1.939   1.932
 9512TIP3    H228482   3.494   2.010   1.898
 9513TIP3   OH228483   6.044   3.500   5.684
 9513TIP3    H128484   5.996   3.513   5.602
 9513TIP3    H228485   5.984   3.452   5.740
 9514TIP3   OH228486   7.447   1.755   1.689
 9514TIP3    H128487   7.380   1.795   1.633
 9514TIP3    H228488   7.514   1.724   1.628
 9515TIP3   OH228489   1.287   1.803   2.995
 9515TIP3    H128490   1.252   1.858   2.925
 9515TIP3    H228491   1.209   1.766   3.038
 9516TIP3   OH228492   5.313   0.628   0.327
 9516TIP3    H128493   5.349   0.559   0.383
 9516TIP3    H228494   5.387   0.686   0.312
 9517TIP3   OH228495   6.359   5.268   6.102
 9517TIP3    H128496   6.289   5.206   6.082
 9517TIP3    H228497   6.439   5.220   6.081
 9518TIP3   OH228498   1.678   0.963   3.647
 9518TIP3    H128499   1.707   1.001   3.564
 9518TIP3    H228500   1.663   0.870   3.628
 9519TIP3   OH228501   1.113   4.346   3.649
 9519TIP3    H128502   1.067   4.389   3.722
 9519TIP3    H228503   1.177   4.410   3.620
 9520TIP3   OH228504   5.629   7.582   6.631
 9520TIP3    H128505   5.705   7.606   6.684
 9520TIP3    H228506   5.557   7.580   6.694
 9521TIP3   OH228507   6.208   3.274   0.535
 9521TIP3    H128508   6.295   3.234   0.541
 9521TIP3    H228509   6.166   3.252   0.619
 9522TIP3   OH228510   2.860   6.581   1.595
 9522TIP3    H128511   2.796   6.642   1.631
 9522TIP3    H228512   2.812   6.530   1.529
 9523TIP3   OH228513   3.794   6.930   0.175
 9523TIP3    H128514   3.855   6.969   0.238
 9523TIP3    H228515   3.821   6.965   0.090
 9524TIP3   OH228516   0.470   6.029   3.266
 9524TIP3    H128517   0.399   6.040   3.204
 9524TIP3    H228518   0.549   6.054   3.217
 9525TIP3   OH228519   6.694   7.377   4.075
 9525TIP3    H128520   6.695   7.454   4.017
 9525TIP3    H228521   6.775   7.384   4.125
 9526TIP3   OH228522   7.837   5.197   2.476
 9526TIP3    H128523   7.778   5.197   2.552
 9526TIP3    H228524   7.910   5.253   2.503
 9527TIP3   OH228525   3.345   4.681   1.647
 9527TIP3    H128526   3.399   4.603   1.663
 9527TIP3    H228527   3.321   4.675   1.555
 9528TIP3   OH228528   3.744   5.204   5.656
 9528TIP3    H128529   3.813   5.262   5.688
 9528TIP3    H228530   3.770   5.184   5.566
 9529TIP3   OH228531   2.446   4.993   6.704
 9529TIP3    H128532   2.398   4.959   6.629
 9529TIP3    H228533   2.395   5.069   6.733
 9530TIP3   OH228534   4.545   2.028   6.263
 9530TIP3    H128535   4.554   1.946   6.214
 9530TIP3    H228536   4.593   2.014   6.344
 9531TIP3   OH228537   7.742   4.629   3.536
 9531TIP3    H128538   7.705   4.606   3.450
 9531TIP3    H228539   7.834   4.649   3.517
 9532TIP3   OH228540   0.454   2.777   0.081
 9532TIP3    H128541   0.451   2.725   0.162
 9532TIP3    H228542   0.540   2.821   0.084
 9533TIP3   OH228543   6.802   2.782   2.071
 9533TIP3    H128544   6.840   2.749   1.990
 9533TIP3    H228545   6.743   2.712   2.100
 9534TIP3   OH228546   6.570   0.170   3.237
 9534TIP3    H128547   6.647   0.193   3.185
 9534TIP3    H228548   6.540   0.087   3.201
 9535TIP3   OH228549   1.147   6.642   2.076
 9535TIP3    H128550   1.239   6.625   2.093
 9535TIP3    H228551   1.133   6.733   2.101
 9536TIP3   OH228552   3.467   7.723   3.243
 9536TIP3    H128553   3.482   7.737   3.337
 9536TIP3    H228554   3.414   7.643   3.239
 9537TIP3   OH228555   6.713   3.423   4.164
 9537TIP3    H128556   6.768   3.501   4.168
 9537TIP3    H228557   6.628   3.451   4.199
 9538TIP3   OH228558   4.028   5.360   0.195
 9538TIP3    H128559   3.983   5.385   0.275
 9538TIP3    H228560   3.970   5.387   0.125
 9539TIP3   OH228561   0.544   5.921   0.423
 9539TIP3    H128562   0.575   5.966   0.344
 9539TIP3    H228563   0.617   5.867   0.451
 9540TIP3   OH228564   7.386   2.533   5.116
 9540TIP3    H128565   7.414   2.517   5.206
 9540TIP3    H228566   7.364   2.446   5.082
 9541TIP3   OH228567   0.642   7.005   4.887
 9541TIP3    H128568   0.577   6.960   4.942
 9541TIP3    H228569   0.726   6.986   4.930
 9542TIP3   OH228570   5.892   1.674   5.986
 9542TIP3    H128571   5.865   1.597   5.937
 9542TIP3    H228572   5.957   1.717   5.929
 9543TIP3   OH228573   7.207   0.678   4.045
 9543TIP3    H128574   7.189   0.768   4.019
 9543TIP3    H228575   7.194   0.627   3.965
 9544TIP3   OH228576   8.175   3.307   2.123
 9544TIP3    H128577   8.127   3.381   2.086
 9544TIP3    H228578   8.120   3.277   2.195
 9545TIP3   OH228579   4.887   2.452   2.844
 9545TIP3    H128580   4.809   2.484   2.889
 9545TIP3    H228581   4.859   2.440   2.753
 9546TIP3   OH228582   2.346   2.990   6.317
 9546TIP3    H128583   2.258   3.011   6.286
 9546TIP3    H228584   2.398   3.068   6.297
 9547TIP3   OH228585   8.268   4.870   6.407
 9547TIP3    H128586   8.231   4.958   6.408
 9547TIP3    H228587   8.201   4.817   6.364
 9548TIP3   OH228588   5.336   7.347   3.113
 9548TIP3    H128589   5.378   7.347   3.027
 9548TIP3    H228590   5.318   7.255   3.131
 9549TIP3   OH228591   7.843   7.337   4.192
 9549TIP3    H128592   7.834   7.242   4.197
 9549TIP3    H228593   7.753   7.370   4.192
 9550TIP3   OH228594   1.407   5.161   5.210
 9550TIP3    H128595   1.368   5.187   5.293
 9550TIP3    H228596   1.494   5.128   5.233
 9551TIP3   OH228597   1.541   1.787   1.301
 9551TIP3    H128598   1.499   1.723   1.357
 9551TIP3    H228599   1.513   1.872   1.336
 9552TIP3   OH228600   7.206   3.770   2.303
 9552TIP3    H128601   7.243   3.744   2.387
 9552TIP3    H228602   7.116   3.795   2.323
 9553TIP3   OH228603   1.578   1.539   0.853
 9553TIP3    H128604   1.666   1.571   0.835
 9553TIP3    H228605   1.550   1.588   0.930
 9554TIP3   OH228606   0.061   4.608   0.136
 9554TIP3    H128607   0.146   4.576   0.106
 9554TIP3    H228608  -0.003   4.558   0.086
 9555TIP3   OH228609   4.617   5.894   6.069
 9555TIP3    H128610   4.672   5.816   6.059
 9555TIP3    H228611   4.633   5.945   5.990
 9556TIP3   OH228612   2.259   4.332   5.359
 9556TIP3    H128613   2.202   4.408   5.367
 9556TIP3    H228614   2.323   4.357   5.293
 9557TIP3   OH228615   7.679   2.036   2.232
 9557TIP3    H128616   7.624   2.090   2.288
 9557TIP3    H228617   7.623   2.014   2.157
 9558TIP3   OH228618   8.249   6.803   2.355
 9558TIP3    H128619   8.256   6.738   2.286
 9558TIP3    H228620   8.237   6.752   2.435
 9559TIP3   OH228621   1.685   0.982   2.113
 9559TIP3    H128622   1.639   1.054   2.069
 9559TIP3    H228623   1.745   0.948   2.047
 9560TIP3   OH228624   5.697   2.634   3.128
 9560TIP3    H128625   5.692   2.546   3.164
 9560TIP3    H228626   5.641   2.687   3.185
 9561TIP3   OH228627   7.857   0.008   3.525
 9561TIP3    H128628   7.902  -0.073   3.548
 9561TIP3    H228629   7.834   0.047   3.610
 9562TIP3   OH228630   3.350   2.409   3.595
 9562TIP3    H128631   3.393   2.362   3.523
 9562TIP3    H228632   3.383   2.367   3.675
 9563TIP3   OH228633   6.485   3.153   1.653
 9563TIP3    H128634   6.464   3.199   1.572
 9563TIP3    H228635   6.459   3.062   1.636
 9564TIP3   OH228636   0.172   0.943   5.084
 9564TIP3    H128637   0.143   1.008   5.148
 9564TIP3    H228638   0.146   0.979   4.999
 9565TIP3   OH228639   2.220   1.536   0.520
 9565TIP3    H128640   2.185   1.554   0.608
 9565TIP3    H228641   2.155   1.576   0.461
 9566TIP3   OH228642   0.033   0.299   3.354
 9566TIP3    H128643  -0.006   0.375   3.311
 9566TIP3    H228644   0.083   0.255   3.285
 9567TIP3   OH228645   5.304   6.464   4.982
 9567TIP3    H128646   5.266   6.481   4.896
 9567TIP3    H228647   5.339   6.375   4.976
 9568TIP3   OH228648   1.080   3.813   0.104
 9568TIP3    H128649   1.025   3.861   0.043
 9568TIP3    H228650   1.163   3.802   0.058
 9569TIP3   OH228651   0.272   2.595   1.405
 9569TIP3    H128652   0.330   2.539   1.457
 9569TIP3    H228653   0.196   2.608   1.462
 9570TIP3   OH228654   6.913   4.029   3.108
 9570TIP3    H128655   7.008   4.026   3.113
 9570TIP3    H228656   6.894   4.105   3.052
 9571TIP3   OH228657   7.709   6.084   0.626
 9571TIP3    H128658   7.717   6.015   0.561
 9571TIP3    H228659   7.668   6.042   0.701
 9572TIP3   OH228660   4.338   2.477   0.671
 9572TIP3    H128661   4.272   2.441   0.612
 9572TIP3    H228662   4.294   2.549   0.715
 9573TIP3   OH228663   0.296   7.607   4.227
 9573TIP3    H128664   0.265   7.574   4.311
 9573TIP3    H228665   0.257   7.549   4.162
 9574TIP3   OH228666   3.611   7.840   1.792
 9574TIP3    H128667   3.677   7.811   1.854
 9574TIP3    H228668   3.641   7.805   1.708
 9575TIP3   OH228669   7.421   6.959   4.090
 9575TIP3    H128670   7.509   6.966   4.126
 9575TIP3    H228671   7.399   7.048   4.062
 9576TIP3   OH228672   5.395   6.333   3.401
 9576TIP3    H128673   5.455   6.383   3.346
 9576TIP3    H228674   5.420   6.241   3.387
 9577TIP3   OH228675   6.352   5.493   2.258
 9577TIP3    H128676   6.363   5.416   2.315
 9577TIP3    H228677   6.272   5.535   2.290
 9578TIP3   OH228678   2.053   4.500   4.134
 9578TIP3    H128679   2.063   4.406   4.145
 9578TIP3    H228680   2.052   4.535   4.223
 9579TIP3   OH228681   5.969   6.674   4.901
 9579TIP3    H128682   5.992   6.607   4.837
 9579TIP3    H228683   6.053   6.717   4.921
 9580TIP3   OH228684   5.204   7.792   6.445
 9580TIP3    H128685   5.256   7.727   6.398
 9580TIP3    H228686   5.257   7.814   6.522
 9581TIP3   OH228687   6.447   3.879   3.410
 9581TIP3    H128688   6.485   3.805   3.362
 9581TIP3    H228689   6.507   3.952   3.392
 9582TIP3   OH228690   5.856   1.439   4.898
 9582TIP3    H128691   5.776   1.386   4.897
 9582TIP3    H228692   5.832   1.518   4.849
 9583TIP3   OH228693   7.657   6.987   1.751
 9583TIP3    H128694   7.618   6.974   1.664
 9583TIP3    H228695   7.659   7.082   1.762
 9584TIP3   OH228696   2.440   4.909   0.010
 9584TIP3    H128697   2.385   4.831   0.018
 9584TIP3    H228698   2.416   4.962   0.086
 9585TIP3   OH228699   0.690   2.514   3.314
 9585TIP3    H128700   0.782   2.493   3.333
 9585TIP3    H228701   0.641   2.437   3.343
 9586TIP3   OH228702   1.168   3.278   0.614
 9586TIP3    H128703   1.174   3.320   0.699
 9586TIP3    H228704   1.234   3.209   0.617
 9587TIP3   OH228705   6.284   0.455   1.113
 9587TIP3    H128706   6.231   0.527   1.147
 9587TIP3    H228707   6.287   0.470   1.018
 9588TIP3   OH228708   6.824   0.585   5.256
 9588TIP3    H128709   6.909   0.629   5.254
 9588TIP3    H228710   6.832   0.514   5.192
 9589TIP3   OH228711   3.697   3.212   2.271
 9589TIP3    H128712   3.623   3.197   2.331
 9589TIP3    H228713   3.694   3.306   2.254
 9590TIP3   OH228714   0.144   3.472   4.541
 9590TIP3    H128715   0.107   3.424   4.614
 9590TIP3    H228716   0.237   3.483   4.564
 9591TIP3   OH228717   4.268   1.290   1.508
 9591TIP3    H128718   4.289   1.233   1.434
 9591TIP3    H228719   4.298   1.242   1.585
 9592TIP3   OH228720   0.723   2.795   3.328
 9592TIP3    H128721   0.772   2.797   3.246
 9592TIP3    H228722   0.709   2.702   3.345
 9593TIP3   OH228723   2.257   2.803   5.379
 9593TIP3    H128724   2.250   2.895   5.350
 9593TIP3    H228725   2.167   2.779   5.401
 9594TIP3   OH228726   0.313   5.201   5.117
 9594TIP3    H128727   0.404   5.206   5.145
 9594TIP3    H228728   0.263   5.191   5.198
 9595TIP3   OH228729   3.352   5.353   5.921
 9595TIP3    H128730   3.290   5.291   5.881
 9595TIP3    H228731   3.418   5.367   5.853
 9596TIP3   OH228732   1.748   2.749   6.486
 9596TIP3    H128733   1.826   2.695   6.501
 9596TIP3    H228734   1.680   2.706   6.537
 9597TIP3   OH228735   2.541   1.171   2.682
 9597TIP3    H128736   2.461   1.170   2.629
 9597TIP3    H228737   2.612   1.168   2.618
 9598TIP3   OH228738   8.136   6.815   3.991
 9598TIP3    H128739   8.200   6.838   3.924
 9598TIP3    H228740   8.167   6.731   4.026
 9599TIP3   OH228741   0.809   0.888   2.350
 9599TIP3    H128742   0.789   0.978   2.376
 9599TIP3    H228743   0.842   0.896   2.261
 9600TIP3   OH228744   0.560   0.852   6.680
 9600TIP3    H128745   0.620   0.844   6.606
 9600TIP3    H228746   0.552   0.946   6.695
 9601TIP3   OH228747   3.860   5.349   5.111
 9601TIP3    H128748   3.954   5.330   5.100
 9601TIP3    H228749   3.831   5.375   5.024
 9602TIP3   OH228750   4.947   6.289   0.359
 9602TIP3    H128751   4.940   6.207   0.408
 9602TIP3    H228752   4.967   6.355   0.426
 9603TIP3   OH228753   1.895   5.900   0.418
 9603TIP3    H128754   1.833   5.957   0.373
 9603TIP3    H228755   1.843   5.822   0.441
 9604TIP3   OH228756   2.098   2.190   0.594
 9604TIP3    H128757   2.059   2.268   0.556
 9604TIP3    H228758   2.055   2.180   0.679
 9605TIP3   OH228759   0.683   5.737   0.778
 9605TIP3    H128760   0.757   5.788   0.811
 9605TIP3    H228761   0.607   5.772   0.825
 9606TIP3   OH228762   6.007   4.835   0.157
 9606TIP3    H128763   5.922   4.810   0.193
 9606TIP3    H228764   5.998   4.927   0.133
 9607TIP3   OH228765   2.329   3.060   5.273
 9607TIP3    H128766   2.396   3.115   5.313
 9607TIP3    H228767   2.377   3.005   5.211
 9608TIP3   OH228768   0.574   3.149   2.291
 9608TIP3    H128769   0.629   3.202   2.347
 9608TIP3    H228770   0.493   3.198   2.283
 9609TIP3   OH228771   1.566   3.584   0.603
 9609TIP3    H128772   1.483   3.598   0.647
 9609TIP3    H228773   1.574   3.657   0.541
 9610TIP3   OH228774   6.929   1.178   2.202
 9610TIP3    H128775   7.016   1.143   2.223
 9610TIP3    H228776   6.937   1.209   2.112
 9611TIP3   OH228777   2.140   4.419   1.358
 9611TIP3    H128778   2.148   4.370   1.440
 9611TIP3    H228779   2.141   4.511   1.385
 9612TIP3   OH228780   0.463   2.200   0.194
 9612TIP3    H128781   0.464   2.130   0.260
 9612TIP3    H228782   0.512   2.164   0.120
 9613TIP3   OH228783   5.511   5.355   1.937
 9613TIP3    H128784   5.421   5.376   1.963
 9613TIP3    H228785   5.513   5.371   1.842
 9614TIP3   OH228786   3.835   1.333   4.114
 9614TIP3    H128787   3.786   1.341   4.195
 9614TIP3    H228788   3.906   1.396   4.123
 9615TIP3   OH228789   4.555   4.932   5.636
 9615TIP3    H128790   4.481   4.975   5.593
 9615TIP3    H228791   4.590   4.998   5.695
 9616TIP3   OH228792   4.533   1.673   0.891
 9616TIP3    H128793   4.582   1.620   0.953
 9616TIP3    H228794   4.592   1.746   0.870
 9617TIP3   OH228795   4.209   4.767   1.939
 9617TIP3    H128796   4.284   4.825   1.928
 9617TIP3    H228797   4.142   4.822   1.978
 9618TIP3   OH228798   6.926   3.171   0.019
 9618TIP3    H128799   6.996   3.114   0.049
 9618TIP3    H228800   6.902   3.222   0.096
 9619TIP3   OH228801   5.411   1.208   6.065
 9619TIP3    H128802   5.452   1.149   6.128
 9619TIP3    H228803   5.481   1.231   6.004
 9620TIP3   OH228804   1.079   6.780   5.362
 9620TIP3    H128805   1.049   6.805   5.450
 9620TIP3    H228806   1.117   6.693   5.374
 9621TIP3   OH228807   7.077   0.474   0.259
 9621TIP3    H128808   7.142   0.413   0.224
 9621TIP3    H228809   7.111   0.499   0.345
 9622TIP3   OH228810   2.133   1.443   1.870
 9622TIP3    H128811   2.182   1.409   1.795
 9622TIP3    H228812   2.066   1.378   1.888
 9623TIP3   OH228813   7.637   2.094   1.297
 9623TIP3    H128814   7.666   2.069   1.385
 9623TIP3    H228815   7.669   2.183   1.286
 9624TIP3   OH228816   2.426   0.608   1.480
 9624TIP3    H128817   2.490   0.567   1.538
 9624TIP3    H228818   2.471   0.616   1.396
 9625TIP3   OH228819   2.756   1.577   1.857
 9625TIP3    H128820   2.784   1.572   1.765
 9625TIP3    H228821   2.718   1.491   1.875
 9626TIP3   OH228822   1.356   3.998   0.143
 9626TIP3    H128823   1.403   4.080   0.126
 9626TIP3    H228824   1.278   4.023   0.192
 9627TIP3   OH228825   5.669   7.122   5.634
 9627TIP3    H128826   5.718   7.132   5.715
 9627TIP3    H228827   5.615   7.044   5.648
 9628TIP3   OH228828   4.914   3.946   6.620
 9628TIP3    H128829   4.975   3.954   6.694
 9628TIP3    H228830   4.847   3.885   6.650
 9629TIP3   OH228831   2.210   3.624   4.597
 9629TIP3    H128832   2.298   3.586   4.603
 9629TIP3    H228833   2.225   3.717   4.582
 9630TIP3   OH228834   4.619   7.689   6.771
 9630TIP3    H128835   4.703   7.662   6.735
 9630TIP3    H228836   4.640   7.758   6.833
 9631TIP3   OH228837   2.311   3.706   5.460
 9631TIP3    H128838   2.281   3.695   5.550
 9631TIP3    H228839   2.263   3.639   5.411
 9632TIP3   OH228840   2.998   7.027   6.532
 9632TIP3    H128841   3.010   6.949   6.587
 9632TIP3    H228842   2.927   7.003   6.473
 9633TIP3   OH228843   6.930   3.313   5.437
 9633TIP3    H128844   6.996   3.248   5.460
 9633TIP3    H228845   6.860   3.263   5.396
 9634TIP3   OH228846   1.995   5.075   6.298
 9634TIP3    H128847   1.923   5.071   6.361
 9634TIP3    H228848   1.955   5.105   6.217
 9635TIP3   OH228849   6.888   1.227   4.855
 9635TIP3    H128850   6.939   1.184   4.787
 9635TIP3    H228851   6.919   1.317   4.855
 9636TIP3   OH228852   0.284   1.849   1.557
 9636TIP3    H128853   0.293   1.858   1.652
 9636TIP3    H228854   0.270   1.755   1.543
 9637TIP3   OH228855   5.626   1.887   5.123
 9637TIP3    H128856   5.532   1.905   5.132
 9637TIP3    H228857   5.630   1.808   5.068
 9638TIP3   OH228858   7.959   6.588   2.269
 9638TIP3    H128859   7.866   6.604   2.284
 9638TIP3    H228860   7.968   6.582   2.174
 9639TIP3   OH228861   1.283   1.392   0.893
 9639TIP3    H128862   1.210   1.411   0.834
 9639TIP3    H228863   1.336   1.471   0.893
 9640TIP3   OH228864   8.035   1.246   1.549
 9640TIP3    H128865   8.103   1.308   1.524
 9640TIP3    H228866   8.030   1.185   1.475
 9641TIP3   OH228867   2.622   4.294   0.242
 9641TIP3    H128868   2.594   4.205   0.222
 9641TIP3    H228869   2.615   4.341   0.158
 9642TIP3   OH228870   7.206   1.704   2.470
 9642TIP3    H128871   7.298   1.710   2.498
 9642TIP3    H228872   7.205   1.745   2.384
 9643TIP3   OH228873   0.318   0.859   1.730
 9643TIP3    H128874   0.256   0.807   1.680
 9643TIP3    H228875   0.336   0.935   1.675
 9644TIP3   OH228876   4.453   6.349   6.655
 9644TIP3    H128877   4.519   6.296   6.610
 9644TIP3    H228878   4.474   6.338   6.748
 9645TIP3   OH228879   3.023   6.814   2.503
 9645TIP3    H128880   2.976   6.796   2.422
 9645TIP3    H228881   2.955   6.833   2.567
 9646TIP3   OH228882   3.094   3.829   5.001
 9646TIP3    H128883   3.047   3.749   5.023
 9646TIP3    H228884   3.026   3.893   4.981
 9647TIP3   OH228885   5.317   5.866   3.169
 9647TIP3    H128886   5.247   5.925   3.141
 9647TIP3    H228887   5.276   5.779   3.170
 9648TIP3   OH228888   6.486   3.267   0.258
 9648TIP3    H128889   6.530   3.258   0.343
 9648TIP3    H228890   6.439   3.351   0.265
 9649TIP3   OH228891   2.086   1.508   0.052
 9649TIP3    H128892   2.177   1.507   0.020
 9649TIP3    H228893   2.076   1.425   0.099
 9650TIP3   OH228894   0.261   0.780   3.372
 9650TIP3    H128895   0.199   0.746   3.436
 9650TIP3    H228896   0.240   0.734   3.291
 9651TIP3   OH228897   1.559   7.380   4.961
 9651TIP3    H128898   1.585   7.334   5.041
 9651TIP3    H228899   1.630   7.443   4.946
 9652TIP3   OH228900   3.795   5.076   1.761
 9652TIP3    H128901   3.706   5.046   1.741
 9652TIP3    H228902   3.837   5.085   1.675
 9653TIP3   OH228903   5.937   5.269   4.292
 9653TIP3    H128904   6.023   5.253   4.331
 9653TIP3    H228905   5.879   5.284   4.367
 9654TIP3   OH228906   7.032   5.887   0.632
 9654TIP3    H128907   6.944   5.861   0.605
 9654TIP3    H228908   7.021   5.976   0.666
 9655TIP3   OH228909   7.357   1.250   5.500
 9655TIP3    H128910   7.304   1.294   5.566
 9655TIP3    H228911   7.348   1.157   5.521
 9656TIP3   OH228912   4.771   3.500   0.863
 9656TIP3    H128913   4.784   3.580   0.915
 9656TIP3    H228914   4.859   3.472   0.840
 9657TIP3   OH228915   0.748   7.256   5.016
 9657TIP3    H128916   0.684   7.215   5.073
 9657TIP3    H228917   0.819   7.282   5.074
 9658TIP3   OH228918   4.785   2.589   4.600
 9658TIP3    H128919   4.713   2.531   4.576
 9658TIP3    H228920   4.744   2.656   4.655
 9659TIP3   OH228921   8.109   4.506   1.374
 9659TIP3    H128922   8.072   4.469   1.293
 9659TIP3    H228923   8.124   4.598   1.354
 9660TIP3   OH228924   0.252   0.127   6.314
 9660TIP3    H128925   0.255   0.080   6.231
 9660TIP3    H228926   0.186   0.081   6.365
 9661TIP3   OH228927   0.063   0.625   0.893
 9661TIP3    H128928   0.025   0.713   0.901
 9661TIP3    H228929   0.155   0.641   0.872
 9662TIP3   OH228930   1.208   0.257   3.994
 9662TIP3    H128931   1.258   0.184   3.957
 9662TIP3    H228932   1.185   0.227   4.083
 9663TIP3   OH228933   0.568   6.692   1.939
 9663TIP3    H128934   0.519   6.704   1.858
 9663TIP3    H228935   0.541   6.766   1.994
 9664TIP3   OH228936   7.741   6.135   5.347
 9664TIP3    H128937   7.757   6.208   5.288
 9664TIP3    H228938   7.760   6.170   5.434
 9665TIP3   OH228939   6.108   6.436   3.260
 9665TIP3    H128940   6.097   6.404   3.171
 9665TIP3    H228941   6.202   6.453   3.268
 9666TIP3   OH228942   1.032   0.717   4.081
 9666TIP3    H128943   1.047   0.811   4.093
 9666TIP3    H228944   0.978   0.711   4.002
 9667TIP3   OH228945   0.233   3.977   5.853
 9667TIP3    H128946   0.149   3.938   5.828
 9667TIP3    H228947   0.219   4.006   5.943
 9668TIP3   OH228948   0.274   5.998   6.679
 9668TIP3    H128949   0.349   6.042   6.639
 9668TIP3    H228950   0.216   6.069   6.706
 9669TIP3   OH228951   0.561   7.427   3.891
 9669TIP3    H128952   0.573   7.515   3.854
 9669TIP3    H228953   0.637   7.415   3.948
 9670TIP3   OH228954   6.926   2.629   4.098
 9670TIP3    H128955   6.854   2.669   4.148
 9670TIP3    H228956   6.893   2.541   4.076
 9671TIP3   OH228957   6.495   6.328   6.430
 9671TIP3    H128958   6.538   6.250   6.465
 9671TIP3    H228959   6.446   6.296   6.354
 9672TIP3   OH228960   6.935   6.824   1.669
 9672TIP3    H128961   7.029   6.843   1.671
 9672TIP3    H228962   6.918   6.796   1.579
 9673TIP3   OH228963   5.912   2.208   4.421
 9673TIP3    H128964   5.845   2.178   4.482
 9673TIP3    H228965   5.883   2.174   4.336
 9674TIP3   OH228966   0.561   0.317   5.157
 9674TIP3    H128967   0.553   0.322   5.253
 9674TIP3    H228968   0.504   0.244   5.133
 9675TIP3   OH228969   2.896   0.832   0.232
 9675TIP3    H128970   2.892   0.745   0.192
 9675TIP3    H228971   2.891   0.815   0.326
 9676TIP3   OH228972   3.255   6.430   0.610
 9676TIP3    H128973   3.181   6.481   0.643
 9676TIP3    H228974   3.244   6.432   0.515
 9677TIP3   OH228975   2.833   4.540   1.615
 9677TIP3    H128976   2.740   4.550   1.634
 9677TIP3    H228977   2.877   4.595   1.680
 9678TIP3   OH228978   1.153   2.214   0.419
 9678TIP3    H128979   1.147   2.213   0.514
 9678TIP3    H228980   1.246   2.201   0.400
 9679TIP3   OH228981   3.734   5.146   3.834
 9679TIP3    H128982   3.664   5.116   3.892
 9679TIP3    H228983   3.799   5.076   3.837
 9680TIP3   OH228984   2.217   5.601   1.699
 9680TIP3    H128985   2.142   5.546   1.719
 9680TIP3    H228986   2.237   5.581   1.607
 9681TIP3   OH228987   7.665   7.062   6.592
 9681TIP3    H128988   7.726   7.009   6.541
 9681TIP3    H228989   7.710   7.078   6.675
 9682TIP3   OH228990   3.366   5.144   1.321
 9682TIP3    H128991   3.424   5.146   1.244
 9682TIP3    H228992   3.414   5.194   1.388
 9683TIP3   OH228993   4.629   1.635   0.038
 9683TIP3    H128994   4.721   1.616   0.060
 9683TIP3    H228995   4.589   1.656   0.122
 9684TIP3   OH228996   4.172   2.262   2.421
 9684TIP3    H128997   4.126   2.178   2.424
 9684TIP3    H228998   4.150   2.299   2.336
 9685TIP3   OH228999   4.518   2.444   4.562
 9685TIP3    H129000   4.426   2.470   4.567
 9685TIP3    H229001   4.518   2.351   4.583
 9686TIP3   OH229002   0.957   4.446   1.740
 9686TIP3    H129003   1.012   4.376   1.775
 9686TIP3    H229004   0.877   4.401   1.712
 9687TIP3   OH229005   6.416   4.933   4.145
 9687TIP3    H129006   6.497   4.907   4.189
 9687TIP3    H229007   6.443   4.956   4.056
 9688TIP3   OH229008   1.825   5.711   3.517
 9688TIP3    H129009   1.762   5.774   3.553
 9688TIP3    H229010   1.790   5.625   3.543
 9689TIP3   OH229011   5.578   5.355   6.637
 9689TIP3    H129012   5.657   5.317   6.598
 9689TIP3    H229013   5.605   5.443   6.665
 9690TIP3   OH229014   6.100   0.616   5.075
 9690TIP3    H129015   6.121   0.701   5.114
 9690TIP3    H229016   6.004   0.613   5.075
 9691TIP3   OH229017   7.210   0.657   3.110
 9691TIP3    H129018   7.171   0.579   3.070
 9691TIP3    H229019   7.232   0.630   3.199
 9692TIP3   OH229020   1.223   4.514   4.587
 9692TIP3    H129021   1.201   4.607   4.589
 9692TIP3    H229022   1.217   4.487   4.679
 9693TIP3   OH229023   1.674   3.937   2.982
 9693TIP3    H129024   1.750   3.970   2.934
 9693TIP3    H229025   1.710   3.875   3.044
 9694TIP3   OH229026   1.811   3.356   1.859
 9694TIP3    H129027   1.795   3.449   1.871
 9694TIP3    H229028   1.798   3.340   1.766
 9695TIP3   OH229029   6.945   2.754   1.522
 9695TIP3    H129030   7.038   2.736   1.511
 9695TIP3    H229031   6.942   2.832   1.578
 9696TIP3   OH229032   3.451   2.574   5.627
 9696TIP3    H129033   3.451   2.623   5.544
 9696TIP3    H229034   3.422   2.638   5.692
 9697TIP3   OH229035   4.520   1.443   4.866
 9697TIP3    H129036   4.498   1.446   4.959
 9697TIP3    H229037   4.530   1.350   4.846
 9698TIP3   OH229038   6.021   5.213   3.738
 9698TIP3    H129039   5.976   5.138   3.700
 9698TIP3    H229040   5.950   5.274   3.760
 9699TIP3   OH229041   1.118   4.080   1.205
 9699TIP3    H129042   1.100   4.117   1.119
 9699TIP3    H229043   1.085   3.990   1.200
 9700TIP3   OH229044   1.622   4.375   3.950
 9700TIP3    H129045   1.653   4.388   3.861
 9700TIP3    H229046   1.529   4.353   3.941
 9701TIP3   OH229047   1.673   6.697   0.588
 9701TIP3    H129048   1.604   6.703   0.522
 9701TIP3    H229049   1.627   6.676   0.669
 9702TIP3   OH229050   4.717   6.336   4.279
 9702TIP3    H129051   4.735   6.314   4.188
 9702TIP3    H229052   4.767   6.416   4.294
 9703TIP3   OH229053   2.282   7.204   2.927
 9703TIP3    H129054   2.376   7.199   2.907
 9703TIP3    H229055   2.273   7.282   2.981
 9704TIP3   OH229056   7.429   4.454   4.763
 9704TIP3    H129057   7.409   4.547   4.753
 9704TIP3    H229058   7.358   4.420   4.818
 9705TIP3   OH229059   0.053   1.080   0.373
 9705TIP3    H129060   0.074   1.010   0.310
 9705TIP3    H229061   0.136   1.123   0.390
 9706TIP3   OH229062   5.279   1.919   1.655
 9706TIP3    H129063   5.371   1.947   1.649
 9706TIP3    H229064   5.232   1.997   1.681
 9707TIP3   OH229065   2.848   4.885   1.324
 9707TIP3    H129066   2.812   4.898   1.412
 9707TIP3    H229067   2.929   4.936   1.324
 9708TIP3   OH229068   7.097   2.272   2.766
 9708TIP3    H129069   7.149   2.306   2.694
 9708TIP3    H229070   7.161   2.249   2.833
 9709TIP3   OH229071   0.375   2.617   0.331
 9709TIP3    H129072   0.397   2.668   0.410
 9709TIP3    H229073   0.449   2.557   0.321
 9710TIP3   OH229074   7.674   1.611   1.526
 9710TIP3    H129075   7.651   1.540   1.586
 9710TIP3    H229076   7.716   1.676   1.583
 9711TIP3   OH229077   2.976   3.324   2.610
 9711TIP3    H129078   3.066   3.319   2.642
 9711TIP3    H229079   2.957   3.235   2.581
 9712TIP3   OH229080   3.201   5.145   0.976
 9712TIP3    H129081   3.234   5.159   0.888
 9712TIP3    H229082   3.277   5.159   1.033
 9713TIP3   OH229083   3.852   1.760   5.949
 9713TIP3    H129084   3.880   1.684   5.897
 9713TIP3    H229085   3.886   1.743   6.037
 9714TIP3   OH229086   4.134   4.582   0.228
 9714TIP3    H129087   4.117   4.548   0.140
 9714TIP3    H229088   4.171   4.507   0.275
 9715TIP3   OH229089   0.669   3.431   5.880
 9715TIP3    H129090   0.607   3.374   5.926
 9715TIP3    H229091   0.752   3.385   5.885
 9716TIP3   OH229092   2.015   7.410   3.890
 9716TIP3    H129093   2.089   7.398   3.831
 9716TIP3    H229094   2.029   7.347   3.960
 9717TIP3   OH229095   7.087   6.493   4.497
 9717TIP3    H129096   7.022   6.456   4.437
 9717TIP3    H229097   7.068   6.453   4.581
 9718TIP3   OH229098   8.230   4.930   1.758
 9718TIP3    H129099   8.138   4.903   1.756
 9718TIP3    H229100   8.251   4.946   1.666
 9719TIP3   OH229101   8.099   1.859   0.562
 9719TIP3    H129102   8.142   1.909   0.631
 9719TIP3    H229103   8.072   1.925   0.497
 9720TIP3   OH229104   1.598   2.115   6.255
 9720TIP3    H129105   1.503   2.109   6.257
 9720TIP3    H229106   1.627   2.074   6.337
 9721TIP3   OH229107   3.586   4.940   5.102
 9721TIP3    H129108   3.564   5.020   5.054
 9721TIP3    H229109   3.512   4.926   5.161
 9722TIP3   OH229110   4.789   7.681   2.133
 9722TIP3    H129111   4.726   7.752   2.124
 9722TIP3    H229112   4.871   7.718   2.101
 9723TIP3   OH229113   1.826   2.782   1.193
 9723TIP3    H129114   1.907   2.778   1.142
 9723TIP3    H229115   1.854   2.782   1.284
 9724TIP3   OH229116   2.347   3.277   0.878
 9724TIP3    H129117   2.272   3.282   0.819
 9724TIP3    H229118   2.309   3.277   0.966
 9725TIP3   OH229119   4.498   3.673   4.317
 9725TIP3    H129120   4.548   3.716   4.247
 9725TIP3    H229121   4.561   3.613   4.357
 9726TIP3   OH229122   6.704   4.815   3.249
 9726TIP3    H129123   6.680   4.808   3.157
 9726TIP3    H229124   6.800   4.825   3.248
 9727TIP3   OH229125   5.564   4.527   3.713
 9727TIP3    H129126   5.542   4.506   3.804
 9727TIP3    H229127   5.542   4.447   3.664
 9728TIP3   OH229128   3.189   6.057   3.894
 9728TIP3    H129129   3.096   6.052   3.914
 9728TIP3    H229130   3.194   6.086   3.803
 9729TIP3   OH229131   3.253   0.509   4.185
 9729TIP3    H129132   3.196   0.451   4.236
 9729TIP3    H229133   3.236   0.486   4.094
 9730TIP3   OH229134   5.583   3.307   3.533
 9730TIP3    H129135   5.641   3.315   3.457
 9730TIP3    H229136   5.568   3.213   3.543
 9731TIP3   OH229137   8.284   0.188   5.043
 9731TIP3    H129138   8.198   0.148   5.055
 9731TIP3    H229139   8.335   0.122   4.996
 9732TIP3   OH229140   3.273   4.442   0.813
 9732TIP3    H129141   3.307   4.524   0.776
 9732TIP3    H229142   3.190   4.427   0.768
 9733TIP3   OH229143   7.190   1.853   5.891
 9733TIP3    H129144   7.250   1.922   5.862
 9733TIP3    H229145   7.238   1.808   5.961
 9734TIP3   OH229146   3.123   6.826   2.779
 9734TIP3    H129147   3.043   6.877   2.789
 9734TIP3    H229148   3.127   6.804   2.686
 9735TIP3   OH229149   6.376   7.442   0.612
 9735TIP3    H129150   6.346   7.528   0.641
 9735TIP3    H229151   6.458   7.459   0.566
 9736TIP3   OH229152   0.371   1.510   4.589
 9736TIP3    H129153   0.395   1.420   4.568
 9736TIP3    H229154   0.445   1.543   4.640
 9737TIP3   OH229155   0.946   6.631   4.361
 9737TIP3    H129156   0.881   6.647   4.293
 9737TIP3    H229157   1.017   6.585   4.316
 9738TIP3   OH229158   7.337   7.268   2.785
 9738TIP3    H129159   7.373   7.339   2.838
 9738TIP3    H229160   7.304   7.311   2.707
 9739TIP3   OH229161   5.862   4.622   1.147
 9739TIP3    H129162   5.783   4.572   1.127
 9739TIP3    H229163   5.842   4.711   1.118
 9740TIP3   OH229164   0.216   5.058   3.234
 9740TIP3    H129165   0.278   5.120   3.272
 9740TIP3    H229166   0.240   5.055   3.141
 9741TIP3   OH229167   2.164   3.657   2.435
 9741TIP3    H129168   2.212   3.575   2.430
 9741TIP3    H229169   2.134   3.662   2.526
 9742TIP3   OH229170   5.549   2.097   1.317
 9742TIP3    H129171   5.539   2.018   1.263
 9742TIP3    H229172   5.619   2.146   1.274
 9743TIP3   OH229173   6.908   3.122   2.812
 9743TIP3    H129174   6.995   3.086   2.797
 9743TIP3    H229175   6.862   3.109   2.730
 9744TIP3   OH229176   2.107   5.128   3.187
 9744TIP3    H129177   2.034   5.106   3.245
 9744TIP3    H229178   2.071   5.196   3.129
 9745TIP3   OH229179   0.910   1.740   4.916
 9745TIP3    H129180   0.939   1.728   4.825
 9745TIP3    H229181   0.849   1.668   4.932
 9746TIP3   OH229182   7.658  -0.002   0.223
 9746TIP3    H129183   7.700   0.015   0.307
 9746TIP3    H229184   7.635   0.084   0.189
 9747TIP3   OH229185   1.970   5.805   3.803
 9747TIP3    H129186   1.879   5.778   3.791
 9747TIP3    H229187   1.989   5.783   3.894
 9748TIP3   OH229188   1.656   1.320   3.984
 9748TIP3    H129189   1.631   1.287   3.898
 9748TIP3    H229190   1.725   1.260   4.013
 9749TIP3   OH229191   1.695   0.067   5.671
 9749TIP3    H129192   1.779   0.069   5.717
 9749TIP3    H229193   1.710   0.006   5.598
 9750TIP3   OH229194   2.531   7.508   2.948
 9750TIP3    H129195   2.521   7.530   3.040
 9750TIP3    H229196   2.464   7.560   2.903
 9751TIP3   OH229197   4.186   1.552   0.069
 9751TIP3    H129198   4.266   1.506   0.045
 9751TIP3    H229199   4.119   1.484   0.072
 9752TIP3   OH229200   7.251   2.594   4.078
 9752TIP3    H129201   7.205   2.521   4.119
 9752TIP3    H229202   7.327   2.608   4.134
 9753TIP3   OH229203   0.235   0.975   5.623
 9753TIP3    H129204   0.178   0.948   5.551
 9753TIP3    H229205   0.258   1.066   5.602
 9754TIP3   OH229206   0.427   3.980   1.837
 9754TIP3    H129207   0.479   3.947   1.911
 9754TIP3    H229208   0.448   4.074   1.834
 9755TIP3   OH229209   2.947   6.514   5.004
 9755TIP3    H129210   2.946   6.562   4.921
 9755TIP3    H229211   3.009   6.560   5.059
 9756TIP3   OH229212   0.399   2.382   5.754
 9756TIP3    H129213   0.478   2.353   5.800
 9756TIP3    H229214   0.344   2.305   5.750
 9757TIP3   OH229215   7.492   4.105   0.799
 9757TIP3    H129216   7.581   4.118   0.833
 9757TIP3    H229217   7.498   4.128   0.706
 9758TIP3   OH229218   3.841   0.300   4.403
 9758TIP3    H129219   3.924   0.280   4.447
 9758TIP3    H229220   3.795   0.216   4.399
 9759TIP3   OH229221   7.439   0.739   1.148
 9759TIP3    H129222   7.513   0.767   1.201
 9759TIP3    H229223   7.392   0.677   1.204
 9760TIP3   OH229224   2.915   5.558   1.235
 9760TIP3    H129225   2.982   5.495   1.262
 9760TIP3    H229226   2.961   5.642   1.233
 9761TIP3   OH229227   2.511   0.938   1.716
 9761TIP3    H129228   2.459   1.013   1.744
 9761TIP3    H229229   2.595   0.949   1.761
 9762TIP3   OH229230   3.636   0.915   5.037
 9762TIP3    H129231   3.557   0.866   5.014
 9762TIP3    H229232   3.704   0.876   4.982
 9763TIP3   OH229233   6.331   1.330   3.788
 9763TIP3    H129234   6.357   1.277   3.864
 9763TIP3    H229235   6.412   1.345   3.740
 9764TIP3   OH229236   4.248   0.761   0.997
 9764TIP3    H129237   4.253   0.833   1.061
 9764TIP3    H229238   4.339   0.735   0.983
 9765TIP3   OH229239   6.423   3.558   5.831
 9765TIP3    H129240   6.447   3.649   5.844
 9765TIP3    H229241   6.352   3.561   5.766
 9766TIP3   OH229242   1.309   3.627   4.147
 9766TIP3    H129243   1.339   3.703   4.097
 9766TIP3    H229244   1.240   3.662   4.204
 9767TIP3   OH229245   1.863   6.767   2.710
 9767TIP3    H129246   1.871   6.756   2.805
 9767TIP3    H229247   1.948   6.741   2.676
 9768TIP3   OH229248   7.479   3.142   2.155
 9768TIP3    H129249   7.424   3.158   2.232
 9768TIP3    H229250   7.420   3.100   2.092
 9769TIP3   OH229251   5.583   1.703   6.725
 9769TIP3    H129252   5.578   1.793   6.692
 9769TIP3    H229253   5.627   1.654   6.656
 9770TIP3   OH229254   5.748   0.571   1.626
 9770TIP3    H129255   5.751   0.540   1.535
 9770TIP3    H229256   5.655   0.577   1.646
 9771TIP3   OH229257   8.117   4.028   5.213
 9771TIP3    H129258   8.119   4.106   5.269
 9771TIP3    H229259   8.195   4.034   5.159
 9772TIP3   OH229260   6.011   3.756   4.377
 9772TIP3    H129261   5.991   3.837   4.331
 9772TIP3    H229262   6.073   3.710   4.320
 9773TIP3   OH229263   0.793   3.682   0.265
 9773TIP3    H129264   0.838   3.709   0.185
 9773TIP3    H229265   0.720   3.628   0.235
 9774TIP3   OH229266   3.257   2.586   3.826
 9774TIP3    H129267   3.287   2.540   3.747
 9774TIP3    H229268   3.231   2.673   3.795
 9775TIP3   OH229269   4.839   3.598   1.523
 9775TIP3    H129270   4.899   3.634   1.588
 9775TIP3    H229271   4.809   3.516   1.561
 9776TIP3   OH229272   3.518   7.073   1.961
 9776TIP3    H129273   3.492   6.984   1.939
 9776TIP3    H229274   3.561   7.065   2.046
 9777TIP3   OH229275   7.913   2.559   5.965
 9777TIP3    H129276   7.904   2.614   6.042
 9777TIP3    H229277   7.838   2.582   5.910
 9778TIP3   OH229278   6.413   6.344   5.580
 9778TIP3    H129279   6.361   6.317   5.655
 9778TIP3    H229280   6.360   6.319   5.504
 9779TIP3   OH229281   1.959   7.769   1.494
 9779TIP3    H129282   1.978   7.716   1.416
 9779TIP3    H229283   1.892   7.720   1.541
 9780TIP3   OH229284   6.169   4.279   6.720
 9780TIP3    H129285   6.114   4.339   6.772
 9780TIP3    H229286   6.253   4.324   6.711
 9781TIP3   OH229287   1.333   2.323   0.041
 9781TIP3    H129288   1.272   2.266  -0.007
 9781TIP3    H229289   1.395   2.353  -0.025
 9782TIP3   OH229290   7.479   5.646   1.036
 9782TIP3    H129291   7.469   5.678   0.946
 9782TIP3    H229292   7.515   5.721   1.084
 9783TIP3   OH229293   6.282   0.257   3.725
 9783TIP3    H129294   6.291   0.220   3.637
 9783TIP3    H229295   6.234   0.339   3.711
 9784TIP3   OH229296   0.843   7.311   2.298
 9784TIP3    H129297   0.897   7.234   2.278
 9784TIP3    H229298   0.849   7.319   2.393
 9785TIP3   OH229299   3.470   7.193   6.530
 9785TIP3    H129300   3.429   7.122   6.479
 9785TIP3    H229301   3.511   7.148   6.603
 9786TIP3   OH229302   7.876   6.359   3.216
 9786TIP3    H129303   7.929   6.433   3.247
 9786TIP3    H229304   7.823   6.333   3.291
 9787TIP3   OH229305   6.962   0.424   4.183
 9787TIP3    H129306   6.975   0.447   4.091
 9787TIP3    H229307   6.871   0.447   4.201
 9788TIP3   OH229308   0.327   2.482   5.512
 9788TIP3    H129309   0.322   2.400   5.462
 9788TIP3    H229310   0.364   2.457   5.596
 9789TIP3   OH229311   3.027   5.035   4.695
 9789TIP3    H129312   3.003   5.023   4.786
 9789TIP3    H229313   3.115   4.998   4.688
 9790TIP3   OH229314   6.733   0.613   1.652
 9790TIP3    H129315   6.741   0.672   1.728
 9790TIP3    H229316   6.813   0.629   1.602
 9791TIP3   OH229317   3.338   7.354   6.738
 9791TIP3    H129318   3.255   7.308   6.747
 9791TIP3    H229319   3.393   7.294   6.688
 9792TIP3   OH229320   4.857   7.595   0.740
 9792TIP3    H129321   4.816   7.642   0.811
 9792TIP3    H229322   4.923   7.540   0.782
 9793TIP3   OH229323   7.559   3.832   2.494
 9793TIP3    H129324   7.539   3.815   2.402
 9793TIP3    H229325   7.583   3.925   2.496
 9794TIP3   OH229326   3.738   1.298   5.779
 9794TIP3    H129327   3.801   1.234   5.745
 9794TIP3    H229328   3.786   1.380   5.781
 9795TIP3   OH229329   2.799   0.997   1.619
 9795TIP3    H129330   2.803   1.065   1.687
 9795TIP3    H229331   2.846   0.923   1.657
 9796TIP3   OH229332   6.559   7.725   0.329
 9796TIP3    H129333   6.564   7.821   0.337
 9796TIP3    H229334   6.474   7.709   0.287
 9797TIP3   OH229335   6.244   5.555   3.984
 9797TIP3    H129336   6.287   5.474   4.013
 9797TIP3    H229337   6.188   5.527   3.911
 9798TIP3   OH229338   3.160   3.261   3.408
 9798TIP3    H129339   3.163   3.166   3.417
 9798TIP3    H229340   3.092   3.276   3.342
 9799TIP3   OH229341   1.554   6.750   2.198
 9799TIP3    H129342   1.496   6.675   2.186
 9799TIP3    H229343   1.557   6.791   2.111
 9800TIP3   OH229344   2.637   4.382   2.856
 9800TIP3    H129345   2.704   4.398   2.789
 9800TIP3    H229346   2.580   4.458   2.851
 9801TIP3   OH229347   7.371   5.419   2.111
 9801TIP3    H129348   7.383   5.337   2.063
 9801TIP3    H229349   7.292   5.458   2.073
 9802TIP3   OH229350   7.762   7.246   6.132
 9802TIP3    H129351   7.699   7.281   6.195
 9802TIP3    H229352   7.845   7.245   6.180
 9803TIP3   OH229353   2.218   1.927   1.242
 9803TIP3    H129354   2.259   1.920   1.328
 9803TIP3    H229355   2.239   1.844   1.199
 9804TIP3   OH229356   3.722   4.227   3.507
 9804TIP3    H129357   3.748   4.295   3.570
 9804TIP3    H229358   3.799   4.216   3.451
 9805TIP3   OH229359   5.894   2.042   5.887
 9805TIP3    H129360   5.936   2.126   5.904
 9805TIP3    H229361   5.851   2.053   5.803
 9806TIP3   OH229362   2.945   7.294   4.006
 9806TIP3    H129363   2.874   7.324   3.949
 9806TIP3    H229364   2.916   7.208   4.036
 9807TIP3   OH229365   3.805   4.859   4.131
 9807TIP3    H129366   3.807   4.792   4.199
 9807TIP3    H229367   3.764   4.935   4.172
 9808TIP3   OH229368   5.765   2.721   4.493
 9808TIP3    H129369   5.804   2.682   4.415
 9808TIP3    H229370   5.813   2.803   4.505
 9809TIP3   OH229371   1.287   5.370   0.106
 9809TIP3    H129372   1.222   5.328   0.050
 9809TIP3    H229373   1.238   5.435   0.156
 9810TIP3   OH229374   2.009   1.793   6.117
 9810TIP3    H129375   2.086   1.769   6.168
 9810TIP3    H229376   2.032   1.769   6.027
 9811TIP3   OH229377   2.319   5.617   6.385
 9811TIP3    H129378   2.400   5.577   6.417
 9811TIP3    H229379   2.295   5.564   6.308
 9812TIP3   OH229380   7.780   2.736   0.702
 9812TIP3    H129381   7.845   2.728   0.632
 9812TIP3    H229382   7.698   2.706   0.662
 9813TIP3   OH229383   4.538   7.489   0.099
 9813TIP3    H129384   4.449   7.521   0.083
 9813TIP3    H229385   4.526   7.403   0.141
 9814TIP3   OH229386   3.886   2.655   5.765
 9814TIP3    H129387   3.854   2.615   5.684
 9814TIP3    H229388   3.967   2.609   5.785
 9815TIP3   OH229389   4.889   5.538   5.205
 9815TIP3    H129390   4.842   5.459   5.231
 9815TIP3    H229391   4.822   5.606   5.203
 9816TIP3   OH229392   3.604   2.585   5.281
 9816TIP3    H129393   3.602   2.672   5.241
 9816TIP3    H229394   3.512   2.565   5.299
 9817TIP3   OH229395   3.908   5.539   3.531
 9817TIP3    H129396   3.947   5.595   3.598
 9817TIP3    H229397   3.857   5.475   3.581
 9818TIP3   OH229398   5.598   1.505   5.097
 9818TIP3    H129399   5.507   1.533   5.085
 9818TIP3    H229400   5.591   1.423   5.146
 9819TIP3   OH229401   7.595   5.038   2.236
 9819TIP3    H129402   7.649   5.117   2.239
 9819TIP3    H229403   7.658   4.966   2.242
 9820TIP3   OH229404   4.861   1.992   1.138
 9820TIP3    H129405   4.875   2.054   1.066
 9820TIP3    H229406   4.886   1.907   1.102
 9821TIP3   OH229407   0.028   4.217   3.805
 9821TIP3    H129408  -0.042   4.170   3.850
 9821TIP3    H229409   0.084   4.148   3.769
 9822TIP3   OH229410   2.386   2.598   5.737
 9822TIP3    H129411   2.388   2.584   5.642
 9822TIP3    H229412   2.295   2.620   5.756
 9823TIP3   OH229413   4.090   0.085   1.263
 9823TIP3    H129414   4.127   0.010   1.308
 9823TIP3    H229415   4.005   0.054   1.232
 9824TIP3   OH229416   1.308   3.745   1.084
 9824TIP3    H129417   1.243   3.713   1.022
 9824TIP3    H229418   1.324   3.836   1.057
 9825TIP3   OH229419   1.236   1.755   3.727
 9825TIP3    H129420   1.251   1.664   3.701
 9825TIP3    H229421   1.287   1.806   3.664
 9826TIP3   OH229422   2.826   0.380   0.875
 9826TIP3    H129423   2.851   0.443   0.943
 9826TIP3    H229424   2.780   0.433   0.810
 9827TIP3   OH229425   2.490   5.273   6.000
 9827TIP3    H129426   2.533   5.187   6.005
 9827TIP3    H229427   2.527   5.323   6.073
 9828TIP3   OH229428   0.781   2.612   6.468
 9828TIP3    H129429   0.780   2.701   6.431
 9828TIP3    H229430   0.866   2.576   6.443
 9829TIP3   OH229431   0.239   6.775   0.480
 9829TIP3    H129432   0.220   6.764   0.573
 9829TIP3    H229433   0.308   6.712   0.462
 9830TIP3   OH229434   6.794   3.518   1.620
 9830TIP3    H129435   6.790   3.432   1.663
 9830TIP3    H229436   6.742   3.575   1.676
 9831TIP3   OH229437   5.748   6.315   1.401
 9831TIP3    H129438   5.701   6.375   1.343
 9831TIP3    H229439   5.679   6.264   1.444
 9832TIP3   OH229440   6.517   6.873   1.735
 9832TIP3    H129441   6.447   6.807   1.740
 9832TIP3    H229442   6.547   6.869   1.645
 9833TIP3   OH229443   1.820   5.757   1.891
 9833TIP3    H129444   1.765   5.702   1.947
 9833TIP3    H229445   1.785   5.845   1.902
 9834TIP3   OH229446   7.025   0.111   3.541
 9834TIP3    H129447   7.029   0.188   3.484
 9834TIP3    H229448   6.994   0.145   3.625
 9835TIP3   OH229449   4.948   0.932   0.754
 9835TIP3    H129450   4.900   0.883   0.820
 9835TIP3    H229451   4.903   0.914   0.672
 9836TIP3   OH229452   1.529   5.907   0.743
 9836TIP3    H129453   1.577   5.988   0.730
 9836TIP3    H229454   1.592   5.847   0.783
 9837TIP3   OH229455   2.609   6.613   4.687
 9837TIP3    H129456   2.549   6.542   4.709
 9837TIP3    H229457   2.591   6.632   4.595
 9838TIP3   OH229458   4.071   4.260   6.702
 9838TIP3    H129459   4.138   4.247   6.635
 9838TIP3    H229460   3.998   4.204   6.673
 9839TIP3   OH229461   1.049   7.142   1.727
 9839TIP3    H129462   1.103   7.066   1.709
 9839TIP3    H229463   1.005   7.161   1.644
 9840TIP3   OH229464   4.315   2.694   5.643
 9840TIP3    H129465   4.253   2.724   5.710
 9840TIP3    H229466   4.328   2.771   5.587
 9841TIP3   OH229467   5.962   7.216   6.371
 9841TIP3    H129468   5.948   7.309   6.351
 9841TIP3    H229469   5.903   7.170   6.311
 9842TIP3   OH229470   2.586   2.050   6.411
 9842TIP3    H129471   2.672   2.091   6.422
 9842TIP3    H229472   2.598   1.988   6.339
 9843TIP3   OH229473   1.452   3.646   1.314
 9843TIP3    H129474   1.360   3.658   1.290
 9843TIP3    H229475   1.498   3.644   1.230
 9844TIP3   OH229476   1.100   1.376   0.577
 9844TIP3    H129477   1.059   1.292   0.557
 9844TIP3    H229478   1.033   1.426   0.624
 9845TIP3   OH229479   6.340   6.995   6.055
 9845TIP3    H129480   6.283   7.058   6.098
 9845TIP3    H229481   6.417   7.046   6.028
 9846TIP3   OH229482   2.385   1.896   6.073
 9846TIP3    H129483   2.380   1.991   6.061
 9846TIP3    H229484   2.465   1.871   6.026
 9847TIP3   OH229485   2.934   1.983   4.904
 9847TIP3    H129486   2.904   2.074   4.901
 9847TIP3    H229487   3.026   1.987   4.878
 9848TIP3   OH229488   1.690   6.068   4.926
 9848TIP3    H129489   1.661   6.079   5.016
 9848TIP3    H229490   1.613   6.034   4.880
 9849TIP3   OH229491   5.916   6.203   3.892
 9849TIP3    H129492   5.996   6.181   3.843
 9849TIP3    H229493   5.867   6.260   3.832
 9850TIP3   OH229494   3.957   7.245   5.417
 9850TIP3    H129495   3.925   7.161   5.384
 9850TIP3    H229496   3.907   7.259   5.498
 9851TIP3   OH229497   5.981   2.393   5.603
 9851TIP3    H129498   5.915   2.355   5.544
 9851TIP3    H229499   5.954   2.364   5.690
 9852TIP3   OH229500   5.027   5.974   0.151
 9852TIP3    H129501   5.053   6.062   0.124
 9852TIP3    H229502   4.933   5.971   0.133
 9853TIP3   OH229503   5.139   6.386   5.863
 9853TIP3    H129504   5.214   6.416   5.811
 9853TIP3    H229505   5.062   6.409   5.810
 9854TIP3   OH229506   4.230   3.537   0.361
 9854TIP3    H129507   4.220   3.557   0.454
 9854TIP3    H229508   4.196   3.448   0.352
 9855TIP3   OH229509   4.783   1.686   5.045
 9855TIP3    H129510   4.762   1.640   4.964
 9855TIP3    H229511   4.699   1.719   5.077
 9856TIP3   OH229512   2.696   4.308   5.181
 9856TIP3    H129513   2.764   4.243   5.201
 9856TIP3    H229514   2.721   4.385   5.232
 9857TIP3   OH229515   7.542   4.476   2.146
 9857TIP3    H129516   7.559   4.555   2.197
 9857TIP3    H229517   7.481   4.425   2.199
 9858TIP3   OH229518   0.787   3.172   1.344
 9858TIP3    H129519   0.726   3.132   1.407
 9858TIP3    H229520   0.829   3.242   1.394
 9859TIP3   OH229521   1.477   5.348   2.693
 9859TIP3    H129522   1.476   5.443   2.702
 9859TIP3    H229523   1.463   5.314   2.781
 9860TIP3   OH229524   3.796   6.080   2.716
 9860TIP3    H129525   3.775   6.095   2.624
 9860TIP3    H229526   3.754   5.996   2.737
 9861TIP3   OH229527   4.850   4.784   0.414
 9861TIP3    H129528   4.798   4.779   0.333
 9861TIP3    H229529   4.925   4.838   0.390
 9862TIP3   OH229530   7.302   4.293   6.757
 9862TIP3    H129531   7.276   4.211   6.798
 9862TIP3    H229532   7.394   4.279   6.734
 9863TIP3   OH229533   1.583   0.301   1.321
 9863TIP3    H129534   1.543   0.217   1.299
 9863TIP3    H229535   1.676   0.289   1.304
 9864TIP3   OH229536   4.495   4.364   0.568
 9864TIP3    H129537   4.525   4.337   0.481
 9864TIP3    H229538   4.573   4.398   0.611
 9865TIP3   OH229539   2.036   7.309   4.677
 9865TIP3    H129540   1.982   7.285   4.753
 9865TIP3    H229541   1.973   7.339   4.611
 9866TIP3   OH229542   4.997   4.943   2.551
 9866TIP3    H129543   5.051   4.941   2.630
 9866TIP3    H229544   4.910   4.919   2.582
 9867TIP3   OH229545   4.700   3.694   0.492
 9867TIP3    H129546   4.613   3.714   0.458
 9867TIP3    H229547   4.698   3.601   0.512
 9868TIP3   OH229548   0.135   0.749   1.978
 9868TIP3    H129549   0.219   0.720   1.942
 9868TIP3    H229550   0.145   0.737   2.073
 9869TIP3   OH229551   1.825   2.820   2.902
 9869TIP3    H129552   1.817   2.781   2.989
 9869TIP3    H229553   1.841   2.913   2.918
 9870TIP3   OH229554   3.155   0.982   1.380
 9870TIP3    H129555   3.064   0.979   1.350
 9870TIP3    H229556   3.183   0.891   1.379
 9871TIP3   OH229557   4.152   2.471   5.880
 9871TIP3    H129558   4.214   2.436   5.816
 9871TIP3    H229559   4.074   2.415   5.870
 9872TIP3   OH229560   7.407   2.683   0.805
 9872TIP3    H129561   7.457   2.763   0.823
 9872TIP3    H229562   7.473   2.617   0.787
 9873TIP3   OH229563   4.068   7.537   2.606
 9873TIP3    H129564   3.995   7.488   2.570
 9873TIP3    H229565   4.055   7.536   2.700
 9874TIP3   OH229566   2.997   1.347   1.923
 9874TIP3    H129567   3.069   1.367   1.863
 9874TIP3    H229568   3.009   1.408   1.996
 9875TIP3   OH229569   3.617   4.948   0.372
 9875TIP3    H129570   3.597   4.916   0.459
 9875TIP3    H229571   3.713   4.947   0.367
 9876TIP3   OH229572   2.741   4.930   1.906
 9876TIP3    H129573   2.800   4.963   1.974
 9876TIP3    H229574   2.674   4.997   1.898
 9877TIP3   OH229575   8.139   4.284   3.573
 9877TIP3    H129576   8.203   4.247   3.633
 9877TIP3    H229577   8.190   4.336   3.511
 9878TIP3   OH229578   0.855   4.344   5.529
 9878TIP3    H129579   0.938   4.312   5.566
 9878TIP3    H229580   0.852   4.436   5.554
 9879TIP3   OH229581   2.394   1.583   4.797
 9879TIP3    H129582   2.370   1.496   4.765
 9879TIP3    H229583   2.339   1.643   4.746
 9880TIP3   OH229584   1.761   2.324   6.154
 9880TIP3    H129585   1.690   2.266   6.184
 9880TIP3    H229586   1.826   2.321   6.224
 9881TIP3   OH229587   4.421   5.176   5.065
 9881TIP3    H129588   4.468   5.103   5.024
 9881TIP3    H229589   4.415   5.242   4.996
 9882TIP3   OH229590   0.684   3.730   5.018
 9882TIP3    H129591   0.636   3.686   5.087
 9882TIP3    H229592   0.687   3.822   5.045
 9883TIP3   OH229593   7.659   5.631   0.048
 9883TIP3    H129594   7.567   5.614   0.028
 9883TIP3    H229595   7.660   5.657   0.140
 9884TIP3   OH229596   0.035   2.005   1.747
 9884TIP3    H129597   0.099   1.957   1.799
 9884TIP3    H229598   0.026   1.954   1.666
 9885TIP3   OH229599   1.372   3.966   0.878
 9885TIP3    H129600   1.355   4.059   0.894
 9885TIP3    H229601   1.468   3.959   0.878
 9886TIP3   OH229602   3.397   4.640   3.074
 9886TIP3    H129603   3.457   4.566   3.066
 9886TIP3    H229604   3.341   4.634   2.996
 9887TIP3   OH229605   0.086   1.825   6.138
 9887TIP3    H129606   0.090   1.864   6.225
 9887TIP3    H229607   0.122   1.737   6.150
 9888TIP3   OH229608   1.902   2.661   6.775
 9888TIP3    H129609   1.967   2.644   6.843
 9888TIP3    H229610   1.950   2.649   6.692
 9889TIP3   OH229611   8.105   5.106   2.952
 9889TIP3    H129612   8.071   5.017   2.954
 9889TIP3    H229613   8.142   5.120   3.040
 9890TIP3   OH229614   4.861   7.092   1.945
 9890TIP3    H129615   4.887   7.183   1.930
 9890TIP3    H229616   4.925   7.060   2.009
 9891TIP3   OH229617   7.376   3.381   1.287
 9891TIP3    H129618   7.359   3.428   1.206
 9891TIP3    H229619   7.320   3.424   1.352
 9892TIP3   OH229620   4.569   1.689   5.748
 9892TIP3    H129621   4.572   1.647   5.662
 9892TIP3    H229622   4.475   1.694   5.769
 9893TIP3   OH229623   6.039   4.862   0.686
 9893TIP3    H129624   5.955   4.904   0.705
 9893TIP3    H229625   6.096   4.886   0.759
 9894TIP3   OH229626   8.041   3.695   6.038
 9894TIP3    H129627   7.981   3.767   6.018
 9894TIP3    H229628   8.029   3.633   5.966
 9895TIP3   OH229629   3.647   1.966   2.731
 9895TIP3    H129630   3.634   1.874   2.756
 9895TIP3    H229631   3.643   1.964   2.635
 9896TIP3   OH229632   6.675   0.158   3.495
 9896TIP3    H129633   6.635   0.072   3.485
 9896TIP3    H229634   6.665   0.200   3.410
 9897TIP3   OH229635   0.000   5.232   5.172
 9897TIP3    H129636   0.047   5.153   5.147
 9897TIP3    H229637   0.002   5.232   5.267
 9898TIP3   OH229638   2.328   5.284   0.007
 9898TIP3    H129639   2.386   5.237   0.068
 9898TIP3    H229640   2.247   5.296   0.055
 9899TIP3   OH229641   0.405   7.250   6.176
 9899TIP3    H129642   0.390   7.337   6.139
 9899TIP3    H229643   0.355   7.249   6.258
 9900TIP3   OH229644   1.748   5.244   5.934
 9900TIP3    H129645   1.697   5.162   5.934
 9900TIP3    H229646   1.690   5.307   5.891
 9901TIP3   OH229647   7.441   6.497   4.037
 9901TIP3    H129648   7.416   6.584   4.005
 9901TIP3    H229649   7.398   6.436   3.977
 9902TIP3   OH229650   7.077   5.477   2.862
 9902TIP3    H129651   7.029   5.502   2.941
 9902TIP3    H229652   7.166   5.458   2.893
 9903TIP3   OH229653   4.722   7.302   6.208
 9903TIP3    H129654   4.789   7.253   6.256
 9903TIP3    H229655   4.663   7.235   6.173
 9904TIP3   OH229656   1.523   1.951   2.396
 9904TIP3    H129657   1.500   2.008   2.470
 9904TIP3    H229658   1.444   1.900   2.379
 9905TIP3   OH229659   7.123   5.205   5.216
 9905TIP3    H129660   7.087   5.218   5.304
 9905TIP3    H229661   7.091   5.119   5.190
 9906TIP3   OH229662   3.565   0.221   4.074
 9906TIP3    H129663   3.514   0.277   4.133
 9906TIP3    H229664   3.512   0.142   4.063
 9907TIP3   OH229665   7.553   5.524   3.030
 9907TIP3    H129666   7.621   5.563   2.975
 9907TIP3    H229667   7.506   5.598   3.067
 9908TIP3   OH229668   5.280   5.586   6.077
 9908TIP3    H129669   5.331   5.654   6.122
 9908TIP3    H229670   5.197   5.583   6.125
 9909TIP3   OH229671   0.251   0.881   0.266
 9909TIP3    H129672   0.169   0.882   0.217
 9909TIP3    H229673   0.319   0.897   0.200
 9910TIP3   OH229674   3.104   7.355   2.006
 9910TIP3    H129675   3.125   7.408   2.083
 9910TIP3    H229676   3.157   7.393   1.936
 9911TIP3   OH229677   2.276   5.308   0.593
 9911TIP3    H129678   2.351   5.335   0.539
 9911TIP3    H229679   2.280   5.213   0.593
 9912TIP3   OH229680   4.428   4.339   3.943
 9912TIP3    H129681   4.447   4.250   3.916
 9912TIP3    H229682   4.467   4.347   4.030
 9913TIP3   OH229683   6.445   3.071   1.239
 9913TIP3    H129684   6.482   3.125   1.308
 9913TIP3    H229685   6.457   3.123   1.159
 9914TIP3   OH229686   8.074   0.860   5.282
 9914TIP3    H129687   8.092   0.784   5.226
 9914TIP3    H229688   7.991   0.839   5.325
 9915TIP3   OH229689   5.417   0.449   1.198
 9915TIP3    H129690   5.369   0.531   1.213
 9915TIP3    H229691   5.448   0.457   1.107
 9916TIP3   OH229692   3.626   1.623   2.405
 9916TIP3    H129693   3.696   1.688   2.405
 9916TIP3    H229694   3.649   1.562   2.475
 9917TIP3   OH229695   6.318   2.246   2.866
 9917TIP3    H129696   6.275   2.189   2.801
 9917TIP3    H229697   6.408   2.254   2.835
 9918TIP3   OH229698   7.542   5.024   1.222
 9918TIP3    H129699   7.579   5.112   1.232
 9918TIP3    H229700   7.573   4.995   1.136
 9919TIP3   OH229701   4.570   5.460   0.065
 9919TIP3    H129702   4.541   5.377   0.027
 9919TIP3    H229703   4.491   5.514   0.069
 9920TIP3   OH229704   0.412   0.588   4.510
 9920TIP3    H129705   0.507   0.595   4.505
 9920TIP3    H229706   0.395   0.562   4.601
 9921TIP3   OH229707   6.296   0.527   0.581
 9921TIP3    H129708   6.265   0.438   0.562
 9921TIP3    H229709   6.256   0.581   0.513
 9922TIP3   OH229710   0.761   4.728   1.885
 9922TIP3    H129711   0.847   4.736   1.844
 9922TIP3    H229712   0.722   4.651   1.845
 9923TIP3   OH229713   6.362   7.243   5.620
 9923TIP3    H129714   6.310   7.164   5.602
 9923TIP3    H229715   6.452   7.217   5.604
 9924TIP3   OH229716   6.329   6.891   0.734
 9924TIP3    H129717   6.284   6.901   0.650
 9924TIP3    H229718   6.337   6.980   0.768
 9925TIP3   OH229719   1.636   1.142   5.007
 9925TIP3    H129720   1.707   1.132   4.944
 9925TIP3    H229721   1.586   1.217   4.975
 9926TIP3   OH229722   2.708   0.203   4.987
 9926TIP3    H129723   2.754   0.272   4.939
 9926TIP3    H229724   2.728   0.123   4.939
 9927TIP3   OH229725   7.187   0.578   0.533
 9927TIP3    H129726   7.218   0.608   0.618
 9927TIP3    H229727   7.235   0.632   0.470
 9928TIP3   OH229728   5.281   3.738   4.362
 9928TIP3    H129729   5.208   3.777   4.410
 9928TIP3    H229730   5.269   3.766   4.271
 9929TIP3   OH229731   4.571   3.402   4.261
 9929TIP3    H129732   4.637   3.352   4.308
 9929TIP3    H229733   4.590   3.387   4.168
 9930TIP3   OH229734   0.434   3.837   4.250
 9930TIP3    H129735   0.504   3.879   4.200
 9930TIP3    H229736   0.469   3.752   4.274
 9931TIP3   OH229737   7.468   5.656   5.762
 9931TIP3    H129738   7.421   5.574   5.776
 9931TIP3    H229739   7.529   5.662   5.835
 9932TIP3   OH229740   4.450   6.802   3.262
 9932TIP3    H129741   4.430   6.753   3.182
 9932TIP3    H229742   4.380   6.866   3.270
 9933TIP3   OH229743   0.352   5.900   5.637
 9933TIP3    H129744   0.311   5.814   5.631
 9933TIP3    H229745   0.349   5.922   5.730
 9934TIP3   OH229746   3.806   0.484   5.874
 9934TIP3    H129747   3.766   0.491   5.787
 9934TIP3    H229748   3.825   0.574   5.898
 9935TIP3   OH229749   5.697   1.332   6.413
 9935TIP3    H129750   5.609   1.296   6.401
 9935TIP3    H229751   5.729   1.292   6.493
 9936TIP3   OH229752   2.739   1.014   4.894
 9936TIP3    H129753   2.690   1.000   4.975
 9936TIP3    H229754   2.795   1.090   4.913
 9937TIP3   OH229755   0.635   6.938   5.248
 9937TIP3    H129756   0.593   7.003   5.191
 9937TIP3    H229757   0.611   6.854   5.210
 9938TIP3   OH229758   1.100   2.852   1.015
 9938TIP3    H129759   1.079   2.758   1.014
 9938TIP3    H229760   1.061   2.884   1.096
 9939TIP3   OH229761   7.466   6.331   3.329
 9939TIP3    H129762   7.530   6.264   3.350
 9939TIP3    H229763   7.467   6.389   3.405
 9940TIP3   OH229764   3.351   7.454   3.548
 9940TIP3    H129765   3.288   7.514   3.588
 9940TIP3    H229766   3.428   7.458   3.604
 9941TIP3   OH229767   0.061   4.608   1.012
 9941TIP3    H129768   0.112   4.600   1.093
 9941TIP3    H229769   0.111   4.558   0.947
 9942TIP3   OH229770   1.437   0.192   2.585
 9942TIP3    H129771   1.505   0.145   2.537
 9942TIP3    H229772   1.484   0.259   2.634
 9943TIP3   OH229773   7.886   7.085   3.646
 9943TIP3    H129774   7.831   7.007   3.644
 9943TIP3    H229775   7.896   7.105   3.740
 9944TIP3   OH229776   0.871   1.217   6.752
 9944TIP3    H129777   0.880   1.191   6.660
 9944TIP3    H229778   0.810   1.153   6.789
 9945TIP3   OH229779   2.650   1.415   3.204
 9945TIP3    H129780   2.674   1.433   3.295
 9945TIP3    H229781   2.726   1.368   3.168
 9946TIP3   OH229782   4.641   0.743   1.408
 9946TIP3    H129783   4.682   0.828   1.427
 9946TIP3    H229784   4.550   0.754   1.436
 9947TIP3   OH229785   5.785   2.633   0.527
 9947TIP3    H129786   5.706   2.672   0.490
 9947TIP3    H229787   5.828   2.592   0.452
 9948TIP3   OH229788   2.685   7.425   5.599
 9948TIP3    H129789   2.632   7.351   5.567
 9948TIP3    H229790   2.658   7.435   5.690
 9949TIP3   OH229791   0.482   5.113   4.625
 9949TIP3    H129792   0.450   5.200   4.605
 9949TIP3    H229793   0.432   5.085   4.701
 9950TIP3   OH229794   0.813   5.108   2.367
 9950TIP3    H129795   0.850   5.175   2.425
 9950TIP3    H229796   0.845   5.132   2.280
 9951TIP3   OH229797   3.174   7.596   0.113
 9951TIP3    H129798   3.227   7.663   0.070
 9951TIP3    H229799   3.097   7.586   0.057
 9952TIP3   OH229800   3.584   3.218   5.791
 9952TIP3    H129801   3.652   3.271   5.748
 9952TIP3    H229802   3.624   3.191   5.874
 9953TIP3   OH229803   1.144   4.482   2.324
 9953TIP3    H129804   1.182   4.405   2.281
 9953TIP3    H229805   1.138   4.548   2.254
 9954TIP3   OH229806   6.147   2.624   0.339
 9954TIP3    H129807   6.173   2.657   0.425
 9954TIP3    H229808   6.082   2.557   0.358
 9955TIP3   OH229809   7.854   7.384   1.429
 9955TIP3    H129810   7.788   7.334   1.476
 9955TIP3    H229811   7.831   7.373   1.337
 9956TIP3   OH229812   7.961   3.896   4.590
 9956TIP3    H129813   8.045   3.861   4.562
 9956TIP3    H229814   7.916   3.919   4.509
 9957TIP3   OH229815   0.350   7.284   4.548
 9957TIP3    H129816   0.398   7.293   4.630
 9957TIP3    H229817   0.372   7.197   4.516
 9958TIP3   OH229818   7.516   2.733   6.384
 9958TIP3    H129819   7.585   2.673   6.356
 9958TIP3    H229820   7.457   2.678   6.437
 9959TIP3   OH229821   1.063   0.944   4.738
 9959TIP3    H129822   0.998   0.899   4.791
 9959TIP3    H229823   1.146   0.930   4.784
 9960TIP3   OH229824   4.992   3.782   5.076
 9960TIP3    H129825   4.985   3.696   5.117
 9960TIP3    H229826   5.024   3.839   5.146
 9961TIP3   OH229827   0.823   0.247   6.476
 9961TIP3    H129828   0.807   0.156   6.502
 9961TIP3    H229829   0.903   0.271   6.523
 9962TIP3   OH229830   6.601   2.013   1.752
 9962TIP3    H129831   6.509   2.001   1.727
 9962TIP3    H229832   6.617   1.946   1.819
 9963TIP3   OH229833   2.387   3.811   6.464
 9963TIP3    H129834   2.409   3.898   6.496
 9963TIP3    H229835   2.298   3.795   6.496
 9964TIP3   OH229836   5.515   0.939   1.333
 9964TIP3    H129837   5.423   0.938   1.356
 9964TIP3    H229838   5.521   0.892   1.251
 9965TIP3   OH229839   7.405   1.704   4.055
 9965TIP3    H129840   7.375   1.616   4.037
 9965TIP3    H229841   7.490   1.692   4.099
 9966TIP3   OH229842   7.124   5.303   2.342
 9966TIP3    H129843   7.089   5.239   2.403
 9966TIP3    H229844   7.116   5.261   2.256
 9967TIP3   OH229845   3.015   1.274   0.603
 9967TIP3    H129846   2.998   1.357   0.647
 9967TIP3    H229847   3.107   1.279   0.576
 9968TIP3   OH229848   0.024   7.851   2.547
 9968TIP3    H129849  -0.021   7.810   2.473
 9968TIP3    H229850   0.117   7.838   2.528
 9969TIP3   OH229851   5.756   0.590   5.721
 9969TIP3    H129852   5.834   0.568   5.670
 9969TIP3    H229853   5.702   0.641   5.661
 9970TIP3   OH229854   7.704   7.743   3.307
 9970TIP3    H129855   7.758   7.670   3.338
 9970TIP3    H229856   7.712   7.809   3.376
 9971TIP3   OH229857   5.393   1.480   3.024
 9971TIP3    H129858   5.318   1.539   3.036
 9971TIP3    H229859   5.464   1.536   2.996
 9972TIP3   OH229860   0.525   3.552   1.060
 9972TIP3    H129861   0.485   3.521   1.142
 9972TIP3    H229862   0.483   3.636   1.044
 9973TIP3   OH229863   0.316   3.059   1.421
 9973TIP3    H129864   0.275   3.039   1.505
 9973TIP3    H229865   0.266   3.008   1.357
 9974TIP3   OH229866   7.109   7.219   5.129
 9974TIP3    H129867   7.130   7.280   5.200
 9974TIP3    H229868   7.138   7.265   5.050
 9975TIP3   OH229869   6.612   7.302   5.576
 9975TIP3    H129870   6.563   7.384   5.576
 9975TIP3    H229871   6.688   7.319   5.521
 9976TIP3   OH229872   1.708   5.605   2.354
 9976TIP3    H129873   1.735   5.548   2.426
 9976TIP3    H229874   1.692   5.690   2.396
 9977TIP3   OH229875   3.098   3.145   2.874
 9977TIP3    H129876   3.158   3.170   2.804
 9977TIP3    H229877   3.111   3.050   2.884
 9978TIP3   OH229878   3.802   7.198   5.631
 9978TIP3    H129879   3.844   7.164   5.710
 9978TIP3    H229880   3.717   7.154   5.628
 9979TIP3   OH229881   2.180   5.859   2.840
 9979TIP3    H129882   2.151   5.862   2.749
 9979TIP3    H229883   2.154   5.944   2.875
 9980TIP3   OH229884   0.520   7.238   4.754
 9980TIP3    H129885   0.576   7.167   4.785
 9980TIP3    H229886   0.581   7.304   4.721
 9981TIP3   OH229887   2.828   1.736   5.343
 9981TIP3    H129888   2.850   1.653   5.385
 9981TIP3    H229889   2.758   1.714   5.281
 9982TIP3   OH229890   2.540   4.313   1.741
 9982TIP3    H129891   2.556   4.399   1.702
 9982TIP3    H229892   2.575   4.251   1.677
 9983TIP3   OH229893   0.441   3.151   5.127
 9983TIP3    H129894   0.501   3.155   5.053
 9983TIP3    H229895   0.381   3.080   5.106
 9984TIP3   OH229896   0.273   4.758   3.243
 9984TIP3    H129897   0.336   4.745   3.313
 9984TIP3    H229898   0.259   4.853   3.240
 9985TIP3   OH229899   1.675   6.111   1.157
 9985TIP3    H129900   1.723   6.057   1.094
 9985TIP3    H229901   1.589   6.123   1.117
 9986TIP3   OH229902   6.837   6.478   0.757
 9986TIP3    H129903   6.742   6.483   0.770
 9986TIP3    H229904   6.856   6.384   0.752
 9987TIP3   OH229905   2.213   2.505   0.974
 9987TIP3    H129906   2.261   2.515   0.892
 9987TIP3    H229907   2.280   2.512   1.042
 9988TIP3   OH229908   1.533   3.589   0.095
 9988TIP3    H129909   1.537   3.637   0.178
 9988TIP3    H229910   1.520   3.498   0.119
 9989TIP3   OH229911   6.891   0.813   1.536
 9989TIP3    H129912   6.807   0.854   1.515
 9989TIP3    H229913   6.922   0.778   1.453
 9990TIP3   OH229914   5.124   0.393   2.184
 9990TIP3    H129915   5.036   0.377   2.152
 9990TIP3    H229916   5.159   0.306   2.204
 9991TIP3   OH229917   8.014   7.073   1.748
 9991TIP3    H129918   7.931   7.044   1.785
 9991TIP3    H229919   8.033   7.009   1.679
 9992TIP3   OH229920   4.812   7.410   4.966
 9992TIP3    H129921   4.809   7.493   5.013
 9992TIP3    H229922   4.905   7.393   4.952
 9993TIP3   OH229923   1.751   7.217   0.995
 9993TIP3    H129924   1.704   7.152   0.943
 9993TIP3    H229925   1.841   7.186   0.995
 9994TIP3   OH229926   6.663   3.762   2.614
 9994TIP3    H129927   6.629   3.689   2.561
 9994TIP3    H229928   6.639   3.840   2.564
 9995TIP3   OH229929   7.387   6.201   1.262
 9995TIP3    H129930   7.393   6.128   1.323
 9995TIP3    H229931   7.368   6.277   1.317
 9996TIP3   OH229932   1.585   4.748   5.358
 9996TIP3    H129933   1.603   4.659   5.328
 9996TIP3    H229934   1.588   4.801   5.278
 9997TIP3   OH229935   5.860   4.159   2.986
 9997TIP3    H129936   5.950   4.175   2.958
 9997TIP3    H229937   5.857   4.189   3.076
 9998TIP3   OH229938   0.444   1.398   2.791
 9998TIP3    H129939   0.376   1.332   2.778
 9998TIP3    H229940   0.417   1.445   2.869
 9999TIP3   OH229941   4.947   6.088   5.651
 9999TIP3    H129942   4.981   5.998   5.646
 9999TIP3    H229943   4.984   6.122   5.733
10000TIP3   OH229944   5.091   2.461   2.203
10000TIP3    H129945   5.014   2.405   2.197
10000TIP3    H229946   5.058   2.543   2.239
10001TIP3   OH229947   1.867   6.039   2.021
10001TIP3    H129948   1.824   5.994   2.094
10001TIP3    H229949   1.887   6.126   2.055
10002TIP3   OH229950   2.615   3.008   5.966
10002TIP3    H129951   2.538   2.975   5.920
10002TIP3    H229952   2.597   2.989   6.058
10003TIP3   OH229953   4.902   1.323   4.151
10003TIP3    H129954   4.950   1.384   4.096
10003TIP3    H229955   4.816   1.314   4.109
10004TIP3   OH229956   8.024   6.116   4.093
10004TIP3    H129957   8.049   6.025   4.108
10004TIP3    H229958   7.998   6.149   4.179
10005TIP3   OH229959   6.326   1.881   0.373
10005TIP3    H129960   6.306   1.864   0.465
10005TIP3    H229961   6.416   1.850   0.362
10006TIP3   OH229962   1.857   4.164   5.807
10006TIP3    H129963   1.900   4.084   5.777
10006TIP3    H229964   1.859   4.158   5.902
10007TIP3   OH229965   1.115   7.809   1.081
10007TIP3    H129966   1.124   7.726   1.128
10007TIP3    H229967   1.094   7.784   0.991
10008TIP3   OH229968   6.165   5.722   3.230
10008TIP3    H129969   6.228   5.711   3.301
10008TIP3    H229970   6.210   5.690   3.152
10009TIP3   OH229971   4.191   3.889   6.496
10009TIP3    H129972   4.252   3.821   6.466
10009TIP3    H229973   4.186   3.951   6.423
10010TIP3   OH229974   3.560   1.015   6.617
10010TIP3    H129975   3.550   1.110   6.625
10010TIP3    H229976   3.530   0.994   6.529
10011TIP3   OH229977   1.349   5.320   5.998
10011TIP3    H129978   1.395   5.332   6.081
10011TIP3    H229979   1.270   5.374   6.007
10012TIP3   OH229980   4.441   4.720   0.371
10012TIP3    H129981   4.527   4.713   0.412
10012TIP3    H229982   4.383   4.669   0.428
10013TIP3   OH229983   1.016   6.993   0.994
10013TIP3    H129984   1.008   7.049   1.071
10013TIP3    H229985   0.937   6.940   0.994
10014TIP3   OH229986   4.918   0.212   4.260
10014TIP3    H129987   4.998   0.240   4.304
10014TIP3    H229988   4.923   0.117   4.260
10015TIP3   OH229989   1.784   4.883   2.030
10015TIP3    H129990   1.831   4.924   1.958
10015TIP3    H229991   1.703   4.851   1.992
10016TIP3   OH229992   7.953   5.314   3.379
10016TIP3    H129993   7.893   5.330   3.306
10016TIP3    H229994   8.039   5.304   3.338
10017TIP3   OH229995   6.502   4.495   1.621
10017TIP3    H129996   6.570   4.562   1.612
10017TIP3    H229997   6.420   4.543   1.619
10018TIP3   OH229998   5.139   3.289   4.614
10018TIP3    H129999   5.098   3.376   4.616
10018TIP3    H230000   5.173   3.277   4.703
10019TIP3   OH230001   0.040   6.888   3.495
10019TIP3    H130002   0.010   6.931   3.575
10019TIP3    H230003  -0.039   6.878   3.442
10020TIP3   OH230004   6.815   3.740   3.074
10020TIP3    H130005   6.805   3.831   3.045
10020TIP3    H230006   6.725   3.708   3.082
10021TIP3   OH230007   3.046   3.287   6.533
10021TIP3    H130008   3.080   3.199   6.516
10021TIP3    H230009   3.124   3.343   6.532
10022TIP3   OH230010   4.745   4.317  -0.009
10022TIP3    H130011   4.786   4.350   0.071
10022TIP3    H230012   4.751   4.222  -0.002
10023TIP3   OH230013   0.723   5.372   3.885
10023TIP3    H130014   0.803   5.399   3.839
10023TIP3    H230015   0.755   5.330   3.965
10024TIP3   OH230016   7.766   1.956   6.710
10024TIP3    H130017   7.700   2.008   6.664
10024TIP3    H230018   7.835   1.941   6.645
10025TIP3   OH230019   4.174   1.365   2.774
10025TIP3    H130020   4.081   1.376   2.752
10025TIP3    H230021   4.213   1.329   2.694
10026TIP3   OH230022   1.239   5.042   1.822
10026TIP3    H130023   1.217   5.133   1.845
10026TIP3    H230024   1.196   5.028   1.737
10027TIP3   OH230025   6.638   4.759   1.304
10027TIP3    H130026   6.711   4.729   1.249
10027TIP3    H230027   6.560   4.743   1.251
10028TIP3   OH230028   7.916   7.170   4.648
10028TIP3    H130029   7.876   7.083   4.647
10028TIP3    H230030   7.965   7.173   4.730
10029TIP3   OH230031   2.955   1.760   6.135
10029TIP3    H130032   2.958   1.834   6.074
10029TIP3    H230033   3.046   1.734   6.147
10030TIP3   OH230034   2.473   1.997   1.670
10030TIP3    H130035   2.462   1.926   1.734
10030TIP3    H230036   2.482   2.076   1.723
10031TIP3   OH230037   7.683   3.477   0.277
10031TIP3    H130038   7.599   3.518   0.254
10031TIP3    H230039   7.735   3.548   0.315
10032TIP3   OH230040   0.243   3.433   0.231
10032TIP3    H130041   0.280   3.345   0.228
10032TIP3    H230042   0.284   3.475   0.306
10033TIP3   OH230043   7.601   7.594   3.098
10033TIP3    H130044   7.532   7.599   3.164
10033TIP3    H230045   7.681   7.617   3.145
10034TIP3   OH230046   0.078   2.085   6.463
10034TIP3    H130047   0.008   2.071   6.527
10034TIP3    H230048   0.096   2.179   6.468
10035TIP3   OH230049   5.639   0.036   4.095
10035TIP3    H130050   5.608   0.119   4.132
10035TIP3    H230051   5.683  -0.008   4.168
10036TIP3   OH230052   4.762   3.865   2.100
10036TIP3    H130053   4.823   3.878   2.027
10036TIP3    H230054   4.793   3.927   2.167
10037TIP3   OH230055   0.417   1.746   0.778
10037TIP3    H130056   0.427   1.658   0.742
10037TIP3    H230057   0.501   1.789   0.761
10038TIP3   OH230058   8.300   5.144   5.561
10038TIP3    H130059   8.267   5.066   5.516
10038TIP3    H230060   8.232   5.165   5.626
10039TIP3   OH230061   0.758   6.637   4.152
10039TIP3    H130062   0.673   6.656   4.193
10039TIP3    H230063   0.736   6.584   4.075
10040TIP3   OH230064   5.958   1.352   6.163
10040TIP3    H130065   6.053   1.349   6.177
10040TIP3    H230066   5.921   1.338   6.250
10041TIP3   OH230067   1.575   7.423   1.979
10041TIP3    H130068   1.532   7.486   2.038
10041TIP3    H230069   1.637   7.376   2.035
10042TIP3   OH230070   1.123   7.641   3.852
10042TIP3    H130071   1.035   7.641   3.890
10042TIP3    H230072   1.131   7.726   3.809
10043TIP3   OH230073   0.279   5.533   2.839
10043TIP3    H130074   0.189   5.544   2.870
10043TIP3    H230075   0.334   5.565   2.911
10044TIP3   OH230076   5.408   5.683   2.509
10044TIP3    H130077   5.384   5.771   2.540
10044TIP3    H230078   5.389   5.685   2.415
10045TIP3   OH230079   7.118   6.997   4.219
10045TIP3    H130080   7.075   6.920   4.182
10045TIP3    H230081   7.208   6.993   4.185
10046TIP3   OH230082   3.806   5.160   5.377
10046TIP3    H130083   3.785   5.080   5.330
10046TIP3    H230084   3.737   5.222   5.354
10047TIP3   OH230085   0.053   7.565   2.937
10047TIP3    H130086   0.143   7.533   2.947
10047TIP3    H230087   0.007   7.493   2.893
10048TIP3   OH230088   5.483   0.500   3.318
10048TIP3    H130089   5.476   0.532   3.228
10048TIP3    H230090   5.481   0.579   3.372
10049TIP3   OH230091   6.451   5.576   4.916
10049TIP3    H130092   6.393   5.575   4.840
10049TIP3    H230093   6.518   5.511   4.897
10050TIP3   OH230094   6.914   6.349   5.938
10050TIP3    H130095   6.840   6.396   5.899
10050TIP3    H230096   6.903   6.259   5.908
10051TIP3   OH230097   7.556   2.333   4.117
10051TIP3    H130098   7.541   2.426   4.107
10051TIP3    H230099   7.469   2.294   4.119
10052TIP3   OH230100   4.706   0.475   2.810
10052TIP3    H130101   4.689   0.569   2.820
10052TIP3    H230102   4.801   0.466   2.819
10053TIP3   OH230103   5.519   6.218   4.175
10053TIP3    H130104   5.521   6.233   4.270
10053TIP3    H230105   5.492   6.302   4.138
10054TIP3   OH230106   4.194   7.146   0.969
10054TIP3    H130107   4.269   7.143   0.910
10054TIP3    H230108   4.192   7.059   1.009
10055TIP3   OH230109   6.786   7.297   1.703
10055TIP3    H130110   6.736   7.368   1.743
10055TIP3    H230111   6.722   7.250   1.649
10056TIP3   OH230112   7.071   7.061   3.338
10056TIP3    H130113   6.999   7.120   3.357
10056TIP3    H230114   7.130   7.069   3.413
10057TIP3   OH230115   2.759   6.047   5.125
10057TIP3    H130116   2.791   6.015   5.209
10057TIP3    H230117   2.795   6.136   5.118
10058TIP3   OH230118   6.139   5.812   2.900
10058TIP3    H130119   6.051   5.777   2.882
10058TIP3    H230120   6.195   5.734   2.905
10059TIP3   OH230121   6.432   7.742   3.762
10059TIP3    H130122   6.382   7.745   3.681
10059TIP3    H230123   6.412   7.824   3.806
10060TIP3   OH230124   0.504   4.104   1.199
10060TIP3    H130125   0.597   4.101   1.224
10060TIP3    H230126   0.464   4.032   1.247
10061TIP3   OH230127   7.111   1.509   3.558
10061TIP3    H130128   7.207   1.504   3.560
10061TIP3    H230129   7.083   1.457   3.633
10062TIP3   OH230130   3.952   1.454   5.600
10062TIP3    H130131   4.031   1.402   5.586
10062TIP3    H230132   3.939   1.500   5.518
10063TIP3   OH230133   8.067   5.067   4.406
10063TIP3    H130134   7.974   5.057   4.390
10063TIP3    H230135   8.088   5.155   4.374
10064TIP3   OH230136   7.365   7.557   0.972
10064TIP3    H130137   7.322   7.476   0.944
10064TIP3    H230138   7.458   7.536   0.971
10065TIP3   OH230139   3.788   4.622   3.609
10065TIP3    H130140   3.740   4.581   3.681
10065TIP3    H230141   3.777   4.716   3.624
10066TIP3   OH230142   4.586   2.206   2.838
10066TIP3    H130143   4.632   2.251   2.767
10066TIP3    H230144   4.545   2.276   2.888
10067TIP3   OH230145   7.386   1.768   6.600
10067TIP3    H130146   7.297   1.752   6.633
10067TIP3    H230147   7.382   1.857   6.564
10068TIP3   OH230148   6.559   4.396   3.274
10068TIP3    H130149   6.644   4.420   3.311
10068TIP3    H230150   6.515   4.348   3.344
10069TIP3   OH230151   5.708   6.857   4.580
10069TIP3    H130152   5.615   6.879   4.569
10069TIP3    H230153   5.741   6.923   4.642
10070TIP3   OH230154   0.166   7.059   4.244
10070TIP3    H130155   0.229   7.028   4.178
10070TIP3    H230156   0.082   7.025   4.214
10071TIP3   OH230157   0.488   3.852   3.384
10071TIP3    H130158   0.563   3.855   3.444
10071TIP3    H230159   0.475   3.943   3.357
10072TIP3   OH230160   5.774   3.997   4.493
10072TIP3    H130161   5.779   3.977   4.586
10072TIP3    H230162   5.729   3.922   4.454
10073TIP3   OH230163   1.613   1.331   1.491
10073TIP3    H130164   1.646   1.251   1.449
10073TIP3    H230165   1.678   1.352   1.557
10074TIP3   OH230166   0.951   3.146   6.618
10074TIP3    H130167   1.037   3.169   6.584
10074TIP3    H230168   0.939   3.204   6.694
10075TIP3   OH230169   7.464   5.280   3.161
10075TIP3    H130170   7.483   5.341   3.090
10075TIP3    H230171   7.536   5.293   3.223
10076TIP3   OH230172   5.311   7.717   0.307
10076TIP3    H130173   5.286   7.803   0.342
10076TIP3    H230174   5.399   7.702   0.344
10077TIP3   OH230175   8.126   2.232   2.163
10077TIP3    H130176   8.127   2.309   2.220
10077TIP3    H230177   8.206   2.239   2.112
10078TIP3   OH230178   3.815   0.317   0.993
10078TIP3    H130179   3.857   0.351   0.914
10078TIP3    H230180   3.760   0.389   1.023
10079TIP3   OH230181   7.219   1.331   4.800
10079TIP3    H130182   7.223   1.355   4.893
10079TIP3    H230183   7.309   1.337   4.770
10080TIP3   OH230184   1.520   7.218   6.064
10080TIP3    H130185   1.466   7.203   6.141
10080TIP3    H230186   1.458   7.234   5.993
10081TIP3   OH230187   5.008   2.580   3.677
10081TIP3    H130188   5.069   2.542   3.740
10081TIP3    H230189   4.922   2.554   3.708
10082TIP3   OH230190   6.613   0.894   1.554
10082TIP3    H130191   6.635   0.921   1.643
10082TIP3    H230192   6.536   0.838   1.565
10083TIP3   OH230193   5.691   6.017   6.086
10083TIP3    H130194   5.737   6.053   6.162
10083TIP3    H230195   5.622   6.080   6.067
10084TIP3   OH230196   3.008   3.415   1.498
10084TIP3    H130197   2.972   3.455   1.577
10084TIP3    H230198   3.027   3.324   1.523
10085TIP3   OH230199   7.317   6.308   0.839
10085TIP3    H130200   7.400   6.312   0.791
10085TIP3    H230201   7.252   6.285   0.772
10086TIP3   OH230202   4.922   1.879   5.190
10086TIP3    H130203   4.878   1.809   5.141
10086TIP3    H230204   4.935   1.948   5.125
10087TIP3   OH230205   4.336   2.308   5.692
10087TIP3    H130206   4.315   2.319   5.599
10087TIP3    H230207   4.281   2.235   5.721
10088TIP3   OH230208   2.432   5.887   0.136
10088TIP3    H130209   2.423   5.963   0.078
10088TIP3    H230210   2.522   5.892   0.168
10089TIP3   OH230211   0.565   0.227   4.250
10089TIP3    H130212   0.595   0.288   4.182
10089TIP3    H230213   0.645   0.199   4.294
10090TIP3   OH230214   1.783   1.345   3.368
10090TIP3    H130215   1.769   1.408   3.438
10090TIP3    H230216   1.763   1.394   3.288
10091TIP3   OH230217   0.060   1.122   2.176
10091TIP3    H130218   0.013   1.076   2.246
10091TIP3    H230219   0.021   1.090   2.095
10092TIP3   OH230220   4.680   3.311   3.934
10092TIP3    H130221   4.750   3.300   3.999
10092TIP3    H230222   4.723   3.355   3.861
10093TIP3   OH230223   2.013   3.543   4.772
10093TIP3    H130224   2.024   3.462   4.821
10093TIP3    H230225   2.092   3.550   4.719
10094TIP3   OH230226   5.971   7.108   2.173
10094TIP3    H130227   6.050   7.062   2.146
10094TIP3    H230228   5.985   7.199   2.147
10095TIP3   OH230229   3.294   4.568   1.035
10095TIP3    H130230   3.311   4.506   1.106
10095TIP3    H230231   3.310   4.517   0.955
10096TIP3   OH230232   7.883   5.823   6.729
10096TIP3    H130233   7.875   5.917   6.714
10096TIP3    H230234   7.796   5.796   6.759
10097TIP3   OH230235   6.815   0.198   4.166
10097TIP3    H130236   6.766   0.136   4.220
10097TIP3    H230237   6.846   0.265   4.228
10098TIP3   OH230238   0.975   0.518   4.993
10098TIP3    H130239   1.034   0.446   4.972
10098TIP3    H230240   0.949   0.502   5.084
10099TIP3   OH230241   8.009   1.889   3.066
10099TIP3    H130242   8.035   1.816   3.122
10099TIP3    H230243   7.922   1.913   3.096
10100TIP3   OH230244   1.113   5.509   5.914
10100TIP3    H130245   1.038   5.463   5.876
10100TIP3    H230246   1.094   5.516   6.007
10101TIP3   OH230247   3.668   4.504   1.038
10101TIP3    H130248   3.728   4.455   1.095
10101TIP3    H230249   3.723   4.534   0.965
10102TIP3   OH230250   4.189   2.055   3.267
10102TIP3    H130251   4.250   2.018   3.204
10102TIP3    H230252   4.105   2.059   3.220
10103TIP3   OH230253   6.954   3.563   2.879
10103TIP3    H130254   6.922   3.625   2.944
10103TIP3    H230255   6.877   3.509   2.857
10104TIP3   OH230256   3.353   5.863   4.044
10104TIP3    H130257   3.308   5.941   4.011
10104TIP3    H230258   3.283   5.810   4.082
10105TIP3   OH230259   5.477   0.229   1.652
10105TIP3    H130260   5.387   0.212   1.626
10105TIP3    H230261   5.471   0.273   1.736
10106TIP3   OH230262   7.872   4.311   0.522
10106TIP3    H130263   7.907   4.221   0.522
10106TIP3    H230264   7.946   4.365   0.494
10107TIP3   OH230265   6.732   1.668   5.454
10107TIP3    H130266   6.778   1.652   5.537
10107TIP3    H230267   6.681   1.747   5.470
10108TIP3   OH230268   3.146   6.643   5.173
10108TIP3    H130269   3.117   6.718   5.226
10108TIP3    H230270   3.132   6.567   5.229
10109TIP3   OH230271   1.092   5.479   4.081
10109TIP3    H130272   1.160   5.414   4.066
10109TIP3    H230273   1.057   5.458   4.168
10110TIP3   OH230274   7.948   2.984   5.886
10110TIP3    H130275   8.008   2.917   5.853
10110TIP3    H230276   7.902   3.016   5.808
10111TIP3   OH230277   6.392   7.494   1.468
10111TIP3    H130278   6.344   7.576   1.475
10111TIP3    H230279   6.340   7.441   1.408
10112TIP3   OH230280   7.449   4.331   5.945
10112TIP3    H130281   7.428   4.334   5.852
10112TIP3    H230282   7.441   4.239   5.969
10113TIP3   OH230283   0.623   0.286   5.768
10113TIP3    H130284   0.651   0.377   5.780
10113TIP3    H230285   0.536   0.282   5.809
10114TIP3   OH230286   6.310   5.997   5.596
10114TIP3    H130287   6.250   6.061   5.558
10114TIP3    H230288   6.382   5.992   5.534
10115TIP3   OH230289   6.253   3.302   4.159
10115TIP3    H130290   6.203   3.223   4.141
10115TIP3    H230291   6.212   3.369   4.106
10116TIP3   OH230292   4.169   5.697   1.648
10116TIP3    H130293   4.236   5.630   1.635
10116TIP3    H230294   4.118   5.696   1.567
10117TIP3   OH230295   5.890   7.784   3.329
10117TIP3    H130296   5.879   7.859   3.387
10117TIP3    H230297   5.891   7.708   3.387
10118TIP3   OH230298   2.413   6.836   4.014
10118TIP3    H130299   2.486   6.892   4.040
10118TIP3    H230300   2.385   6.870   3.929
10119TIP3   OH230301   3.627   4.323   1.313
10119TIP3    H130302   3.658   4.248   1.364
10119TIP3    H230303   3.656   4.399   1.362
10120TIP3   OH230304   5.580   3.793   1.550
10120TIP3    H130305   5.637   3.750   1.613
10120TIP3    H230306   5.529   3.855   1.603
10121TIP3   OH230307   4.797   4.957   2.873
10121TIP3    H130308   4.844   4.882   2.835
10121TIP3    H230309   4.739   4.918   2.938
10122TIP3   OH230310   3.373   3.366   5.895
10122TIP3    H130311   3.445   3.325   5.846
10122TIP3    H230312   3.391   3.460   5.891
10123TIP3   OH230313   0.912   0.690   4.351
10123TIP3    H130314   0.956   0.765   4.390
10123TIP3    H230315   0.942   0.688   4.261
10124TIP3   OH230316   5.179   1.215   2.444
10124TIP3    H130317   5.118   1.288   2.432
10124TIP3    H230318   5.264   1.251   2.420
10125TIP3   OH230319   0.821   2.744   1.216
10125TIP3    H130320   0.850   2.653   1.209
10125TIP3    H230321   0.750   2.742   1.280
10126TIP3   OH230322   6.532   0.432   1.703
10126TIP3    H130323   6.512   0.423   1.796
10126TIP3    H230324   6.607   0.491   1.700
10127TIP3   OH230325   1.285   6.712   4.522
10127TIP3    H130326   1.309   6.626   4.488
10127TIP3    H230327   1.363   6.743   4.567
10128TIP3   OH230328   4.994   1.788   3.817
10128TIP3    H130329   5.059   1.842   3.861
10128TIP3    H230330   4.952   1.847   3.755
10129TIP3   OH230331   5.675   6.411   1.147
10129TIP3    H130332   5.645   6.456   1.068
10129TIP3    H230333   5.752   6.461   1.175
10130TIP3   OH230334   4.820   5.319   6.102
10130TIP3    H130335   4.793   5.242   6.152
10130TIP3    H230336   4.772   5.313   6.020
10131TIP3   OH230337   8.056   7.840   3.113
10131TIP3    H130338   8.085   7.875   3.029
10131TIP3    H230339   8.038   7.748   3.096
10132TIP3   OH230340   2.468   2.869   1.192
10132TIP3    H130341   2.462   2.918   1.274
10132TIP3    H230342   2.433   2.929   1.126
10133TIP3   OH230343   1.224   4.465   5.663
10133TIP3    H130344   1.306   4.473   5.615
10133TIP3    H230345   1.250   4.436   5.750
10134TIP3   OH230346   3.918   3.583   2.681
10134TIP3    H130347   3.843   3.627   2.721
10134TIP3    H230348   3.883   3.498   2.652
10135TIP3   OH230349   3.766   3.364   1.095
10135TIP3    H130350   3.793   3.387   1.007
10135TIP3    H230351   3.670   3.357   1.091
10136TIP3   OH230352   4.589   7.561   1.215
10136TIP3    H130353   4.551   7.477   1.189
10136TIP3    H230354   4.522   7.601   1.272
10137TIP3   OH230355   1.801   1.427   1.998
10137TIP3    H130356   1.750   1.496   2.041
10137TIP3    H230357   1.778   1.435   1.906
10138TIP3   OH230358   2.664   0.311   2.514
10138TIP3    H130359   2.631   0.359   2.590
10138TIP3    H230360   2.726   0.248   2.552
10139TIP3   OH230361   8.095   6.078   6.471
10139TIP3    H130362   8.136   6.163   6.488
10139TIP3    H230363   8.136   6.018   6.534
10140TIP3   OH230364   6.496   5.133   5.755
10140TIP3    H130365   6.415   5.112   5.801
10140TIP3    H230366   6.508   5.061   5.694
10141TIP3   OH230367   0.883   6.781   1.938
10141TIP3    H130368   0.796   6.763   1.904
10141TIP3    H230369   0.899   6.711   2.002
10142TIP3   OH230370   6.238   0.273   0.479
10142TIP3    H130371   6.230   0.178   0.493
10142TIP3    H230372   6.149   0.302   0.460
10143TIP3   OH230373   0.342   3.666   0.753
10143TIP3    H130374   0.271   3.716   0.792
10143TIP3    H230375   0.322   3.575   0.776
10144TIP3   OH230376   1.971   5.634   0.954
10144TIP3    H130377   2.038   5.642   1.022
10144TIP3    H230378   1.993   5.553   0.909
10145TIP3   OH230379  -0.034   7.351   5.399
10145TIP3    H130380  -0.045   7.257   5.412
10145TIP3    H230381   0.053   7.371   5.434
10146TIP3   OH230382   5.529   5.440   4.576
10146TIP3    H130383   5.556   5.509   4.637
10146TIP3    H230384   5.487   5.487   4.504
10147TIP3   OH230385   1.328   2.289   6.173
10147TIP3    H130386   1.378   2.239   6.108
10147TIP3    H230387   1.243   2.244   6.177
10148TIP3   OH230388   4.482   7.834   5.788
10148TIP3    H130389   4.500   7.740   5.783
10148TIP3    H230390   4.435   7.845   5.870
10149TIP3   OH230391   1.976   7.004   3.690
10149TIP3    H130392   1.905   7.039   3.637
10149TIP3    H230393   1.933   6.968   3.767
10150TIP3   OH230394   0.979   3.511   2.437
10150TIP3    H130395   1.025   3.447   2.491
10150TIP3    H230396   1.014   3.498   2.349
10151TIP3   OH230397   8.279   4.746   6.028
10151TIP3    H130398   8.302   4.665   5.981
10151TIP3    H230399   8.262   4.810   5.959
10152TIP3   OH230400   6.262   2.630   5.110
10152TIP3    H130401   6.290   2.645   5.200
10152TIP3    H230402   6.178   2.584   5.118
10153TIP3   OH230403   1.057   5.825   6.342
10153TIP3    H130404   1.121   5.892   6.316
10153TIP3    H230405   1.021   5.793   6.260
10154TIP3   OH230406   5.386   5.271   0.251
10154TIP3    H130407   5.445   5.208   0.292
10154TIP3    H230408   5.353   5.324   0.323
10155TIP3   OH230409   5.655   3.160   5.330
10155TIP3    H130410   5.734   3.165   5.384
10155TIP3    H230411   5.671   3.085   5.272
10156TIP3   OH230412   4.330   4.548   3.725
10156TIP3    H130413   4.369   4.476   3.675
10156TIP3    H230414   4.398   4.574   3.786
10157TIP3   OH230415   2.569   6.820   3.289
10157TIP3    H130416   2.573   6.915   3.274
10157TIP3    H230417   2.484   6.794   3.254
10158TIP3   OH230418   2.138   7.628   0.122
10158TIP3    H130419   2.232   7.612   0.113
10158TIP3    H230420   2.117   7.598   0.211
10159TIP3   OH230421   1.045   3.019   0.807
10159TIP3    H130422   1.073   2.958   0.875
10159TIP3    H230423   1.119   3.025   0.747
10160TIP3   OH230424   5.282   0.793   5.996
10160TIP3    H130425   5.243   0.731   6.057
10160TIP3    H230426   5.358   0.748   5.961
10161TIP3   OH230427   2.427   6.945   1.440
10161TIP3    H130428   2.450   7.028   1.482
10161TIP3    H230429   2.497   6.929   1.378
10162TIP3   OH230430   5.352   6.153   0.619
10162TIP3    H130431   5.416   6.081   0.617
10162TIP3    H230432   5.394   6.224   0.571
10163TIP3   OH230433   4.817   7.660   4.303
10163TIP3    H130434   4.810   7.565   4.297
10163TIP3    H230435   4.774   7.682   4.386
10164TIP3   OH230436   7.676   3.988   2.152
10164TIP3    H130437   7.760   4.032   2.164
10164TIP3    H230438   7.620   4.024   2.221
10165TIP3   OH230439   7.706   5.161   4.418
10165TIP3    H130440   7.735   5.097   4.353
10165TIP3    H230441   7.744   5.131   4.501
10166TIP3   OH230442   8.267   6.570   4.058
10166TIP3    H130443   8.240   6.486   4.020
10166TIP3    H230444   8.258   6.557   4.153
10167TIP3   OH230445   3.696   4.010   1.323
10167TIP3    H130446   3.604   3.986   1.315
10167TIP3    H230447   3.732   3.949   1.387
10168TIP3   OH230448   2.099   1.409   2.332
10168TIP3    H130449   2.132   1.435   2.418
10168TIP3    H230450   2.096   1.491   2.282
10169TIP3   OH230451   3.899   5.061   0.395
10169TIP3    H130452   3.976   5.011   0.369
10169TIP3    H230453   3.880   5.116   0.319
10170TIP3   OH230454   1.236   0.571   6.587
10170TIP3    H130455   1.221   0.638   6.653
10170TIP3    H230456   1.233   0.619   6.504
10171TIP3   OH230457   4.543   6.727   5.714
10171TIP3    H130458   4.457   6.715   5.756
10171TIP3    H230459   4.559   6.645   5.669
10172TIP3   OH230460   3.513   7.045   3.496
10172TIP3    H130461   3.438   7.101   3.514
10172TIP3    H230462   3.514   6.981   3.566
10173TIP3   OH230463   7.374   3.508   1.859
10173TIP3    H130464   7.341   3.560   1.932
10173TIP3    H230465   7.403   3.574   1.795
10174TIP3   OH230466   8.024   5.706   4.645
10174TIP3    H130467   8.071   5.756   4.712
10174TIP3    H230468   7.934   5.703   4.676
10175TIP3   OH230469   6.601   7.655   1.538
10175TIP3    H130470   6.676   7.595   1.545
10175TIP3    H230471   6.530   7.600   1.504
10176TIP3   OH230472   8.281   2.260   1.910
10176TIP3    H130473   8.225   2.337   1.906
10176TIP3    H230474   8.321   2.255   1.823
10177TIP3   OH230475   1.113   1.347   3.839
10177TIP3    H130476   1.182   1.349   3.905
10177TIP3    H230477   1.088   1.255   3.832
10178TIP3   OH230478   6.007   2.439   6.367
10178TIP3    H130479   5.925   2.488   6.378
10178TIP3    H230480   6.009   2.378   6.441
10179TIP3   OH230481   2.057   1.125   0.144
10179TIP3    H130482   2.109   1.189   0.191
10179TIP3    H230483   2.062   1.153   0.053
10180TIP3   OH230484   2.625   6.179   1.548
10180TIP3    H130485   2.590   6.090   1.555
10180TIP3    H230486   2.575   6.229   1.613
10181TIP3   OH230487   5.904   1.815   2.417
10181TIP3    H130488   5.848   1.871   2.363
10181TIP3    H230489   5.868   1.727   2.407
10182TIP3   OH230490   2.920   6.063   6.647
10182TIP3    H130491   2.976   6.134   6.678
10182TIP3    H230492   2.904   6.010   6.725
10183TIP3   OH230493   3.907   6.397   5.684
10183TIP3    H130494   3.994   6.386   5.647
10183TIP3    H230495   3.870   6.309   5.687
10184TIP3   OH230496   5.726   2.024   0.668
10184TIP3    H130497   5.674   1.960   0.717
10184TIP3    H230498   5.817   2.000   0.688
10185TIP3   OH230499   6.299   0.523   0.866
10185TIP3    H130500   6.361   0.556   0.801
10185TIP3    H230501   6.282   0.433   0.839
10186TIP3   OH230502   4.589   3.112   0.852
10186TIP3    H130503   4.567   3.129   0.944
10186TIP3    H230504   4.579   3.017   0.842
10187TIP3   OH230505   7.630   0.284   2.886
10187TIP3    H130506   7.637   0.339   2.964
10187TIP3    H230507   7.669   0.336   2.816
10188TIP3   OH230508   5.967   4.937   2.050
10188TIP3    H130509   5.906   4.922   1.978
10188TIP3    H230510   6.029   5.001   2.016
10189TIP3   OH230511   0.523   7.669   2.069
10189TIP3    H130512   0.600   7.699   2.020
10189TIP3    H230513   0.559   7.621   2.143
10190TIP3   OH230514   6.316   5.547   0.189
10190TIP3    H130515   6.340   5.637   0.171
10190TIP3    H230516   6.316   5.540   0.285
10191TIP3   OH230517   2.253   4.011   4.275
10191TIP3    H130518   2.186   4.001   4.342
10191TIP3    H230519   2.303   3.930   4.277
10192TIP3   OH230520   0.537   6.938   5.660
10192TIP3    H130521   0.609   6.928   5.723
10192TIP3    H230522   0.570   7.003   5.597
10193TIP3   OH230523   4.909   4.476   5.810
10193TIP3    H130524   4.818   4.496   5.785
10193TIP3    H230525   4.962   4.528   5.750
10194TIP3   OH230526   4.170   6.073   2.326
10194TIP3    H130527   4.096   6.051   2.382
10194TIP3    H230528   4.209   6.151   2.367
10195TIP3   OH230529   7.060   0.424   1.696
10195TIP3    H130530   7.055   0.329   1.710
10195TIP3    H230531   7.030   0.436   1.606
10196TIP3   OH230532   1.529   5.657   3.373
10196TIP3    H130533   1.537   5.561   3.374
10196TIP3    H230534   1.490   5.679   3.458
10197TIP3   OH230535   0.977   4.308   0.562
10197TIP3    H130536   0.909   4.310   0.629
10197TIP3    H230537   0.929   4.301   0.479
10198TIP3   OH230538   2.329   6.059   4.945
10198TIP3    H130539   2.352   6.037   5.035
10198TIP3    H230540   2.378   6.139   4.926
10199TIP3   OH230541   0.510   3.963   0.871
10199TIP3    H130542   0.542   4.003   0.790
10199TIP3    H230543   0.583   3.973   0.932
10200TIP3   OH230544   0.825   1.634   6.553
10200TIP3    H130545   0.755   1.582   6.512
10200TIP3    H230546   0.898   1.573   6.561
10201TIP3   OH230547   6.735   1.557   5.128
10201TIP3    H130548   6.702   1.511   5.051
10201TIP3    H230549   6.658   1.571   5.183
10202TIP3   OH230550   4.191   5.559   0.349
10202TIP3    H130551   4.099   5.537   0.363
10202TIP3    H230552   4.217   5.504   0.274
10203TIP3   OH230553   4.825   1.374   5.658
10203TIP3    H130554   4.895   1.338   5.712
10203TIP3    H230555   4.780   1.436   5.715
10204TIP3   OH230556   6.471   4.325   0.246
10204TIP3    H130557   6.393   4.352   0.296
10204TIP3    H230558   6.543   4.372   0.288
10205TIP3   OH230559   2.799   7.480   0.297
10205TIP3    H130560   2.893   7.488   0.314
10205TIP3    H230561   2.794   7.420   0.222
10206TIP3   OH230562   6.276   4.225   3.853
10206TIP3    H130563   6.225   4.251   3.776
10206TIP3    H230564   6.232   4.147   3.885
10207TIP3   OH230565   0.424   3.350   4.390
10207TIP3    H130566   0.417   3.431   4.340
10207TIP3    H230567   0.353   3.295   4.358
10208TIP3   OH230568   2.224   7.349   2.069
10208TIP3    H130569   2.153   7.286   2.053
10208TIP3    H230570   2.281   7.340   1.993
10209TIP3   OH230571   0.851   5.572   6.680
10209TIP3    H130572   0.877   5.648   6.733
10209TIP3    H230573   0.756   5.567   6.690
10210TIP3   OH230574   6.676   3.093   0.875
10210TIP3    H130575   6.642   3.182   0.890
10210TIP3    H230576   6.599   3.043   0.847
10211TIP3   OH230577   5.799   1.232   2.267
10211TIP3    H130578   5.823   1.185   2.347
10211TIP3    H230579   5.855   1.309   2.266
10212TIP3   OH230580   2.479   5.728   5.266
10212TIP3    H130581   2.535   5.650   5.261
10212TIP3    H230582   2.496   5.775   5.185
10213TIP3   OH230583   3.109   1.936   6.340
10213TIP3    H130584   3.148   2.021   6.317
10213TIP3    H230585   3.142   1.876   6.274
10214TIP3   OH230586   7.299   6.737   3.126
10214TIP3    H130587   7.388   6.769   3.111
10214TIP3    H230588   7.304   6.643   3.109
10215TIP3   OH230589   2.550   7.655   6.068
10215TIP3    H130590   2.470   7.690   6.107
10215TIP3    H230591   2.528   7.565   6.045
10216TIP3   OH230592   0.880   3.025   5.671
10216TIP3    H130593   0.869   2.953   5.610
10216TIP3    H230594   0.793   3.040   5.707
10217TIP3   OH230595   2.382   6.367   1.307
10217TIP3    H130596   2.359   6.391   1.217
10217TIP3    H230597   2.433   6.441   1.340
10218TIP3   OH230598   0.904   3.059   0.241
10218TIP3    H130599   0.923   3.150   0.221
10218TIP3    H230600   0.854   3.062   0.323
10219TIP3   OH230601   0.893   2.818   5.471
10219TIP3    H130602   0.825   2.767   5.514
10219TIP3    H230603   0.856   2.839   5.385
10220TIP3   OH230604   5.477   6.667   2.535
10220TIP3    H130605   5.445   6.654   2.445
10220TIP3    H230606   5.572   6.669   2.527
10221TIP3   OH230607   1.268   7.265   0.570
10221TIP3    H130608   1.178   7.235   0.585
10221TIP3    H230609   1.259   7.335   0.505
10222TIP3   OH230610   3.860   5.048   5.956
10222TIP3    H130611   3.894   5.137   5.962
10222TIP3    H230612   3.935   4.992   5.976
10223TIP3   OH230613   2.909   4.112   3.325
10223TIP3    H130614   2.851   4.174   3.281
10223TIP3    H230615   2.861   4.030   3.324
10224TIP3   OH230616   7.630   5.366   6.678
10224TIP3    H130617   7.558   5.365   6.615
10224TIP3    H230618   7.702   5.409   6.632
10225TIP3   OH230619   7.947   5.464   3.870
10225TIP3    H130620   7.979   5.403   3.937
10225TIP3    H230621   8.026   5.501   3.832
10226TIP3   OH230622   2.824   1.779   0.932
10226TIP3    H130623   2.920   1.776   0.939
10226TIP3    H230624   2.806   1.750   0.843
10227TIP3   OH230625   7.350   0.765   1.819
10227TIP3    H130626   7.315   0.733   1.736
10227TIP3    H230627   7.304   0.847   1.834
10228TIP3   OH230628   7.833   1.794   3.671
10228TIP3    H130629   7.761   1.757   3.619
10228TIP3    H230630   7.902   1.811   3.607
10229TIP3   OH230631   5.415   1.180   2.931
10229TIP3    H130632   5.502   1.200   2.898
10229TIP3    H230633   5.377   1.266   2.952
10230TIP3   OH230634   2.604   1.171   4.083
10230TIP3    H130635   2.541   1.181   4.154
10230TIP3    H230636   2.627   1.261   4.059
10231TIP3   OH230637   1.842   4.114   6.073
10231TIP3    H130638   1.781   4.049   6.110
10231TIP3    H230639   1.926   4.094   6.115
10232TIP3   OH230640   7.506   3.672   4.852
10232TIP3    H130641   7.467   3.592   4.886
10232TIP3    H230642   7.598   3.650   4.838
10233TIP3   OH230643   4.680   0.774   0.716
10233TIP3    H130644   4.645   0.859   0.741
10233TIP3    H230645   4.612   0.735   0.662
10234TIP3   OH230646   6.636   6.217   6.140
10234TIP3    H130647   6.602   6.170   6.216
10234TIP3    H230648   6.572   6.286   6.124
10235TIP3   OH230649   8.023   3.026   0.154
10235TIP3    H130650   8.093   3.045   0.092
10235TIP3    H230651   7.943   3.031   0.102
10236TIP3   OH230652   6.192   6.171   1.277
10236TIP3    H130653   6.233   6.197   1.194
10236TIP3    H230654   6.099   6.183   1.262
10237TIP3   OH230655   4.662   1.544   2.931
10237TIP3    H130656   4.678   1.637   2.915
10237TIP3    H230657   4.669   1.504   2.844
10238TIP3   OH230658   7.892   4.504   4.386
10238TIP3    H130659   7.933   4.492   4.301
10238TIP3    H230660   7.844   4.423   4.401
10239TIP3   OH230661   7.290   1.996   6.328
10239TIP3    H130662   7.330   2.046   6.257
10239TIP3    H230663   7.255   2.062   6.387
10240TIP3   OH230664   4.858   6.423   5.313
10240TIP3    H130665   4.771   6.429   5.275
10240TIP3    H230666   4.844   6.380   5.397
10241TIP3   OH230667   0.801   4.101   3.817
10241TIP3    H130668   0.800   4.187   3.775
10241TIP3    H230669   0.716   4.094   3.860
10242TIP3   OH230670   6.871   0.040   3.255
10242TIP3    H130671   6.845   0.109   3.193
10242TIP3    H230672   6.942   0.080   3.306
10243TIP3   OH230673   2.827   5.625   0.298
10243TIP3    H130674   2.765   5.595   0.364
10243TIP3    H230675   2.893   5.673   0.347
10244TIP3   OH230676   4.502   3.344   6.449
10244TIP3    H130677   4.551   3.364   6.529
10244TIP3    H230678   4.560   3.375   6.379
10245TIP3   OH230679   6.997   0.107   5.154
10245TIP3    H130680   7.048   0.068   5.225
10245TIP3    H230681   6.987   0.037   5.090
10246TIP3   OH230682   0.612   2.748   1.379
10246TIP3    H130683   0.564   2.762   1.461
10246TIP3    H230684   0.570   2.807   1.316
10247TIP3   OH230685   3.131   2.200   3.053
10247TIP3    H130686   3.203   2.172   2.997
10247TIP3    H230687   3.089   2.118   3.081
10248TIP3   OH230688   0.602   6.896   2.657
10248TIP3    H130689   0.528   6.862   2.708
10248TIP3    H230690   0.580   6.875   2.566
10249TIP3   OH230691   3.682   2.949   4.925
10249TIP3    H130692   3.771   2.969   4.895
10249TIP3    H230693   3.648   2.888   4.859
10250TIP3   OH230694   2.043   0.466   3.647
10250TIP3    H130695   2.134   0.437   3.643
10250TIP3    H230696   2.048   0.553   3.687
10251TIP3   OH230697   3.070   3.040   3.760
10251TIP3    H130698   2.977   3.026   3.780
10251TIP3    H230699   3.111   3.051   3.845
10252TIP3   OH230700   5.340   0.234   3.860
10252TIP3    H130701   5.251   0.219   3.829
10252TIP3    H230702   5.347   0.181   3.939
10253TIP3   OH230703   4.382   4.030   2.625
10253TIP3    H130704   4.312   4.011   2.562
10253TIP3    H230705   4.438   3.953   2.622
10254TIP3   OH230706   7.902   7.659   1.672
10254TIP3    H130707   7.838   7.724   1.641
10254TIP3    H230708   7.905   7.594   1.602
10255TIP3   OH230709   3.877   2.272   4.860
10255TIP3    H130710   3.935   2.307   4.928
10255TIP3    H230711   3.806   2.335   4.853
10256TIP3   OH230712   7.563   3.534   6.175
10256TIP3    H130713   7.579   3.605   6.114
10256TIP3    H230714   7.575   3.454   6.124
10257TIP3   OH230715   3.048   4.704   6.335
10257TIP3    H130716   3.075   4.612   6.342
10257TIP3    H230717   3.097   4.748   6.405
10258TIP3   OH230718   7.968   3.373   4.058
10258TIP3    H130719   7.911   3.428   4.004
10258TIP3    H230720   7.923   3.367   4.142
10259TIP3   OH230721   1.141   7.033   0.304
10259TIP3    H130722   1.150   7.017   0.210
10259TIP3    H230723   1.065   6.981   0.330
10260TIP3   OH230724   7.793   7.500   1.890
10260TIP3    H130725   7.852   7.532   1.822
10260TIP3    H230726   7.840   7.516   1.972
10261TIP3   OH230727   1.953   7.101   5.624
10261TIP3    H130728   2.031   7.116   5.571
10261TIP3    H230729   1.916   7.020   5.590
10262TIP3   OH230730   5.878   5.122   2.794
10262TIP3    H130731   5.872   5.180   2.871
10262TIP3    H230732   5.843   5.174   2.722
10263TIP3   OH230733   7.634   2.882   3.451
10263TIP3    H130734   7.554   2.849   3.493
10263TIP3    H230735   7.604   2.916   3.367
10264TIP3   OH230736   0.465   3.118   6.301
10264TIP3    H130737   0.508   3.033   6.309
10264TIP3    H230738   0.403   3.107   6.229
10265TIP3   OH230739   2.433   5.724   6.095
10265TIP3    H130740   2.456   5.779   6.021
10265TIP3    H230741   2.337   5.721   6.093
10266TIP3   OH230742   6.985   4.985   3.956
10266TIP3    H130743   7.061   4.933   3.985
10266TIP3    H230744   6.919   4.920   3.933
10267TIP3   OH230745   7.827   7.830   0.115
10267TIP3    H130746   7.827   7.734   0.119
10267TIP3    H230747   7.919   7.854   0.103
10268TIP3   OH230748   0.200   4.103   6.106
10268TIP3    H130749   0.185   4.195   6.084
10268TIP3    H230750   0.253   4.106   6.186
10269TIP3   OH230751   5.148   3.125   2.385
10269TIP3    H130752   5.177   3.215   2.401
10269TIP3    H230753   5.229   3.077   2.367
10270TIP3   OH230754   7.834   3.380   0.529
10270TIP3    H130755   7.800   3.429   0.454
10270TIP3    H230756   7.929   3.391   0.523
10271TIP3   OH230757   0.069   5.161   0.280
10271TIP3    H130758   0.111   5.128   0.359
10271TIP3    H230759  -0.021   5.179   0.306
10272TIP3   OH230760   0.642   2.162   4.791
10272TIP3    H130761   0.698   2.139   4.717
10272TIP3    H230762   0.589   2.084   4.805
10273TIP3   OH230763   0.284   2.116   3.184
10273TIP3    H130764   0.279   2.152   3.095
10273TIP3    H230765   0.291   2.192   3.241
10274TIP3   OH230766   4.992   1.079   4.936
10274TIP3    H130767   5.016   1.156   4.986
10274TIP3    H230768   4.939   1.026   4.995
10275TIP3   OH230769   1.613   7.095   1.911
10275TIP3    H130770   1.626   7.000   1.921
10275TIP3    H230771   1.632   7.112   1.819
10276TIP3   OH230772   3.759   5.180   3.053
10276TIP3    H130773   3.739   5.257   3.107
10276TIP3    H230774   3.685   5.121   3.068
10277TIP3   OH230775   5.196   5.720   2.740
10277TIP3    H130776   5.224   5.804   2.776
10277TIP3    H230777   5.228   5.655   2.802
10278TIP3   OH230778   6.246   0.766   5.863
10278TIP3    H130779   6.296   0.845   5.882
10278TIP3    H230780   6.191   0.752   5.940
10279TIP3   OH230781   0.429   6.340   6.230
10279TIP3    H130782   0.387   6.405   6.287
10279TIP3    H230783   0.523   6.353   6.245
10280TIP3   OH230784   2.942   2.565   1.425
10280TIP3    H130785   2.893   2.631   1.475
10280TIP3    H230786   3.004   2.615   1.373
10281TIP3   OH230787  -0.006   4.515   2.858
10281TIP3    H130788   0.041   4.565   2.925
10281TIP3    H230789   0.000   4.569   2.779
10282TIP3   OH230790   0.430   1.421   0.518
10282TIP3    H130791   0.371   1.484   0.559
10282TIP3    H230792   0.451   1.360   0.588
10283TIP3   OH230793   6.407   5.941   3.766
10283TIP3    H130794   6.414   6.001   3.692
10283TIP3    H230795   6.363   5.864   3.730
10284TIP3   OH230796   4.083   2.949   3.096
10284TIP3    H130797   4.172   2.969   3.064
10284TIP3    H230798   4.047   3.035   3.118
10285TIP3   OH230799   0.472   1.349   3.770
10285TIP3    H130800   0.514   1.335   3.685
10285TIP3    H230801   0.492   1.440   3.792
10286TIP3   OH230802   1.033   2.124   1.737
10286TIP3    H130803   1.067   2.115   1.826
10286TIP3    H230804   0.968   2.194   1.743
10287TIP3   OH230805   0.405   0.122   1.738
10287TIP3    H130806   0.481   0.181   1.737
10287TIP3    H230807   0.380   0.118   1.830
10288TIP3   OH230808   0.697   4.382   3.694
10288TIP3    H130809   0.682   4.397   3.788
10288TIP3    H230810   0.726   4.468   3.661
10289TIP3   OH230811   1.403   2.037   4.568
10289TIP3    H130812   1.320   1.990   4.576
10289TIP3    H230813   1.454   2.007   4.643
10290TIP3   OH230814   0.244   4.785   0.741
10290TIP3    H130815   0.298   4.760   0.816
10290TIP3    H230816   0.296   4.760   0.665
10291TIP3   OH230817   0.831   1.822   3.706
10291TIP3    H130818   0.868   1.858   3.625
10291TIP3    H230819   0.736   1.833   3.696
10292TIP3   OH230820   4.222   5.189   4.444
10292TIP3    H130821   4.293   5.206   4.382
10292TIP3    H230822   4.159   5.138   4.394
10293TIP3   OH230823   2.577   6.030   2.836
10293TIP3    H130824   2.666   6.032   2.799
10293TIP3    H230825   2.580   5.961   2.902
10294TIP3   OH230826   5.851   3.922   0.380
10294TIP3    H130827   5.903   3.997   0.351
10294TIP3    H230828   5.878   3.851   0.322
10295TIP3   OH230829   4.743   2.367   5.976
10295TIP3    H130830   4.672   2.370   6.041
10295TIP3    H230831   4.725   2.289   5.924
10296TIP3   OH230832   8.072   0.823   6.509
10296TIP3    H130833   8.100   0.825   6.601
10296TIP3    H230834   8.140   0.771   6.465
10297TIP3   OH230835   6.784   2.689   5.240
10297TIP3    H130836   6.729   2.747   5.187
10297TIP3    H230837   6.797   2.611   5.186
10298TIP3   OH230838   8.289   1.540   2.170
10298TIP3    H130839   8.264   1.628   2.142
10298TIP3    H230840   8.369   1.554   2.222
10299TIP3   OH230841   6.317   1.056   2.136
10299TIP3    H130842   6.324   1.124   2.203
10299TIP3    H230843   6.318   0.974   2.185
10300TIP3   OH230844   0.261   1.485   1.232
10300TIP3    H130845   0.338   1.533   1.201
10300TIP3    H230846   0.292   1.396   1.248
10301TIP3   OH230847   4.376   4.353   5.505
10301TIP3    H130848   4.311   4.325   5.570
10301TIP3    H230849   4.373   4.286   5.438
10302TIP3   OH230850   3.424   4.302   3.826
10302TIP3    H130851   3.443   4.273   3.915
10302TIP3    H230852   3.365   4.236   3.791
10303TIP3   OH230853   0.114   2.400   2.147
10303TIP3    H130854   0.116   2.489   2.112
10303TIP3    H230855   0.114   2.344   2.069
10304TIP3   OH230856   3.729   5.759   1.104
10304TIP3    H130857   3.810   5.802   1.130
10304TIP3    H230858   3.662   5.828   1.111
10305TIP3   OH230859   6.337   7.029   4.342
10305TIP3    H130860   6.360   6.966   4.411
10305TIP3    H230861   6.402   7.014   4.274
10306TIP3   OH230862   2.947   5.720   5.223
10306TIP3    H130863   2.904   5.666   5.289
10306TIP3    H230864   3.037   5.688   5.221
10307TIP3   OH230865   7.036   2.139   3.405
10307TIP3    H130866   7.010   2.230   3.411
10307TIP3    H230867   6.962   2.095   3.364
10308TIP3   OH230868   0.521   4.101   3.917
10308TIP3    H130869   0.495   4.187   3.884
10308TIP3    H230870   0.445   4.071   3.968
10309TIP3   OH230871   7.172   2.238   0.701
10309TIP3    H130872   7.102   2.295   0.734
10309TIP3    H230873   7.238   2.298   0.668
10310TIP3   OH230874   5.084   4.294   1.508
10310TIP3    H130875   5.180   4.300   1.499
10310TIP3    H230876   5.070   4.255   1.594
10311TIP3   OH230877   2.179   1.344   2.788
10311TIP3    H130878   2.246   1.401   2.751
10311TIP3    H230879   2.124   1.319   2.713
10312TIP3   OH230880   3.535   1.964   3.917
10312TIP3    H130881   3.452   1.927   3.887
10312TIP3    H230882   3.561   1.908   3.990
10313TIP3   OH230883   0.275   2.910   5.078
10313TIP3    H130884   0.198   2.888   5.130
10313TIP3    H230885   0.309   2.825   5.049
10314TIP3   OH230886   1.397   3.788   2.194
10314TIP3    H130887   1.418   3.706   2.240
10314TIP3    H230888   1.477   3.840   2.203
10315TIP3   OH230889   3.244   2.163   6.269
10315TIP3    H130890   3.308   2.157   6.340
10315TIP3    H230891   3.201   2.248   6.283
10316TIP3   OH230892   7.389   7.478   3.253
10316TIP3    H130893   7.361   7.570   3.251
10316TIP3    H230894   7.313   7.430   3.285
10317TIP3   OH230895   2.575   5.184   1.264
10317TIP3    H130896   2.668   5.198   1.242
10317TIP3    H230897   2.552   5.258   1.320
10318TIP3   OH230898   4.343   5.328   1.037
10318TIP3    H130899   4.249   5.347   1.043
10318TIP3    H230900   4.381   5.373   1.113
10319TIP3   OH230901   4.155   0.347   1.717
10319TIP3    H130902   4.194   0.270   1.677
10319TIP3    H230903   4.123   0.317   1.802
10320TIP3   OH230904   5.741   5.143   0.125
10320TIP3    H130905   5.658   5.104   0.096
10320TIP3    H230906   5.718   5.232   0.152
10321TIP3   OH230907   7.458   1.450   1.941
10321TIP3    H130908   7.492   1.407   2.019
10321TIP3    H230909   7.440   1.540   1.969
10322TIP3   OH230910   5.075   4.408   2.988
10322TIP3    H130911   5.000   4.440   3.039
10322TIP3    H230912   5.126   4.487   2.971
10323TIP3   OH230913   1.714   5.746   4.006
10323TIP3    H130914   1.648   5.746   4.076
10323TIP3    H230915   1.729   5.839   3.988
10324TIP3   OH230916   7.834   7.351   6.714
10324TIP3    H130917   7.863   7.436   6.746
10324TIP3    H230918   7.893   7.331   6.641
10325TIP3   OH230919   5.770   5.292   4.502
10325TIP3    H130920   5.824   5.250   4.569
10325TIP3    H230921   5.713   5.351   4.552
10326TIP3   OH230922   2.507   3.256   2.023
10326TIP3    H130923   2.446   3.259   2.097
10326TIP3    H230924   2.550   3.171   2.031
10327TIP3   OH230925   0.371   2.890   2.429
10327TIP3    H130926   0.379   2.976   2.470
10327TIP3    H230927   0.459   2.870   2.399
10328TIP3   OH230928   6.856   0.868   5.014
10328TIP3    H130929   6.878   0.901   5.101
10328TIP3    H230930   6.762   0.887   5.005
10329TIP3   OH230931   1.455   1.221   3.127
10329TIP3    H130932   1.418   1.310   3.132
10329TIP3    H230933   1.475   1.209   3.035
10330TIP3   OH230934   4.116   7.225   0.614
10330TIP3    H130935   4.040   7.200   0.666
10330TIP3    H230936   4.141   7.145   0.569
10331TIP3   OH230937   6.016   0.240   4.582
10331TIP3    H130938   5.978   0.220   4.497
10331TIP3    H230939   6.045   0.331   4.575
10332TIP3   OH230940   7.223   2.840   4.411
10332TIP3    H130941   7.170   2.778   4.462
10332TIP3    H230942   7.308   2.840   4.455
10333TIP3   OH230943   2.765   5.627   5.433
10333TIP3    H130944   2.686   5.579   5.409
10333TIP3    H230945   2.732   5.713   5.461
10334TIP3   OH230946   0.868   5.952   5.407
10334TIP3    H130947   0.811   5.916   5.475
10334TIP3    H230948   0.957   5.928   5.435
10335TIP3   OH230949   0.422   3.134   4.067
10335TIP3    H130950   0.372   3.210   4.037
10335TIP3    H230951   0.493   3.170   4.120
10336TIP3   OH230952   0.565   7.602   4.457
10336TIP3    H130953   0.531   7.666   4.519
10336TIP3    H230954   0.546   7.639   4.371
10337TIP3   OH230955   1.056   5.433   5.060
10337TIP3    H130956   1.067   5.398   5.148
10337TIP3    H230957   1.128   5.395   5.010
10338TIP3   OH230958   1.981   2.985   1.557
10338TIP3    H130959   2.040   2.978   1.482
10338TIP3    H230960   1.967   2.894   1.585
10339TIP3   OH230961   7.333   2.940   3.517
10339TIP3    H130962   7.287   2.915   3.437
10339TIP3    H230963   7.311   3.032   3.530
10340TIP3   OH230964   0.737   4.247   4.190
10340TIP3    H130965   0.776   4.310   4.250
10340TIP3    H230966   0.688   4.186   4.246
10341TIP3   OH230967   4.638   7.591   3.142
10341TIP3    H130968   4.601   7.619   3.058
10341TIP3    H230969   4.692   7.514   3.120
10342TIP3   OH230970   5.640   5.277   3.189
10342TIP3    H130971   5.546   5.270   3.171
10342TIP3    H230972   5.647   5.270   3.284
10343TIP3   OH230973   6.228   2.845   0.101
10343TIP3    H130974   6.164   2.817   0.035
10343TIP3    H230975   6.223   2.778   0.169
10344TIP3   OH230976   7.478   5.884   2.845
10344TIP3    H130977   7.559   5.914   2.804
10344TIP3    H230978   7.410   5.940   2.809
10345TIP3   OH230979   7.675   1.506   2.190
10345TIP3    H130980   7.684   1.430   2.133
10345TIP3    H230981   7.620   1.476   2.262
10346TIP3   OH230982   0.749   6.509   4.572
10346TIP3    H130983   0.831   6.461   4.559
10346TIP3    H230984   0.753   6.541   4.662
10347TIP3   OH230985   5.092   1.401   0.923
10347TIP3    H130986   5.079   1.461   0.996
10347TIP3    H230987   5.111   1.457   0.848
10348TIP3   OH230988   2.709   1.845   2.854
10348TIP3    H130989   2.769   1.791   2.802
10348TIP3    H230990   2.676   1.787   2.922
10349TIP3   OH230991   5.212   6.406   1.861
10349TIP3    H130992   5.190   6.499   1.866
10349TIP3    H230993   5.222   6.389   1.767
10350TIP3   OH230994   4.544   5.819   3.499
10350TIP3    H130995   4.584   5.734   3.517
10350TIP3    H230996   4.504   5.809   3.413
10351TIP3   OH230997   1.756   5.981   0.102
10351TIP3    H130998   1.746   5.887   0.120
10351TIP3    H230999   1.800   5.984   0.017
10352TIP3   OH231000   7.545   6.932   1.208
10352TIP3    H131001   7.578   6.844   1.189
10352TIP3    H231002   7.458   6.934   1.166
10353TIP3   OH231003   2.163   6.099   2.969
10353TIP3    H131004   2.207   6.130   3.048
10353TIP3    H231005   2.070   6.108   2.988
10354TIP3   OH231006   6.533   5.330   0.419
10354TIP3    H131007   6.478   5.290   0.486
10354TIP3    H231008   6.479   5.398   0.380
10355TIP3   OH231009   8.285   1.373   3.457
10355TIP3    H131010   8.374   1.405   3.471
10355TIP3    H231011   8.235   1.410   3.529
10356TIP3   OH231012   7.967   7.367   3.894
10356TIP3    H131013   7.942   7.458   3.912
10356TIP3    H231014   7.923   7.317   3.963
10357TIP3   OH231015   2.527   3.911   5.468
10357TIP3    H131016   2.525   3.959   5.385
10357TIP3    H231017   2.478   3.831   5.450
10358TIP3   OH231018   6.280   5.209   0.328
10358TIP3    H131019   6.370   5.188   0.305
10358TIP3    H231020   6.228   5.140   0.287
10359TIP3   OH231021   3.186   2.742   2.580
10359TIP3    H131022   3.104   2.774   2.543
10359TIP3    H231023   3.160   2.673   2.641
10360TIP3   OH231024   5.705   1.696   5.365
10360TIP3    H131025   5.617   1.668   5.341
10360TIP3    H231026   5.695   1.790   5.385
10361TIP3   OH231027   2.890   0.327   1.244
10361TIP3    H131028   2.813   0.345   1.298
10361TIP3    H231029   2.884   0.390   1.172
10362TIP3   OH231030   3.377   6.267   6.320
10362TIP3    H131031   3.427   6.186   6.331
10362TIP3    H231032   3.302   6.257   6.380
10363TIP3   OH231033   3.545   4.729   4.948
10363TIP3    H131034   3.547   4.810   5.000
10363TIP3    H231035   3.631   4.690   4.964
10364TIP3   OH231036   0.765   2.989   6.030
10364TIP3    H131037   0.852   2.987   6.068
10364TIP3    H231038   0.752   2.901   5.994
10365TIP3   OH231039   1.589   4.297   5.817
10365TIP3    H131040   1.661   4.234   5.816
10365TIP3    H231041   1.617   4.364   5.880
10366TIP3   OH231042   8.213   6.997   0.952
10366TIP3    H131043   8.222   7.076   0.900
10366TIP3    H231044   8.299   6.984   0.992
10367TIP3   OH231045   7.197   4.377   5.771
10367TIP3    H131046   7.164   4.301   5.819
10367TIP3    H231047   7.201   4.348   5.680
10368TIP3   OH231048   4.359   0.903   3.674
10368TIP3    H131049   4.399   0.818   3.657
10368TIP3    H231050   4.400   0.963   3.612
10369TIP3   OH231051   0.800   4.235   4.490
10369TIP3    H131052   0.719   4.188   4.473
10369TIP3    H231053   0.867   4.185   4.445
10370TIP3   OH231054   8.200   7.045   3.689
10370TIP3    H131055   8.106   7.047   3.707
10370TIP3    H231056   8.222   7.135   3.667
10371TIP3   OH231057   1.643   4.825   1.325
10371TIP3    H131058   1.609   4.746   1.284
10371TIP3    H231059   1.565   4.877   1.347
10372TIP3   OH231060   3.213   6.731   0.628
10372TIP3    H131061   3.129   6.687   0.613
10372TIP3    H231062   3.267   6.704   0.554
10373TIP3   OH231063   8.289   4.655   1.902
10373TIP3    H131064   8.209   4.658   1.955
10373TIP3    H231065   8.329   4.741   1.915
10374TIP3   OH231066   8.120   0.144   1.072
10374TIP3    H131067   8.120   0.232   1.035
10374TIP3    H231068   8.183   0.096   1.019
10375TIP3   OH231069   4.746   2.229   4.197
10375TIP3    H131070   4.838   2.230   4.173
10375TIP3    H231071   4.700   2.216   4.114
10376TIP3   OH231072   0.476   5.169   0.162
10376TIP3    H131073   0.486   5.093   0.104
10376TIP3    H231074   0.404   5.146   0.220
10377TIP3   OH231075   0.166   2.376   3.916
10377TIP3    H131076   0.154   2.422   3.999
10377TIP3    H231077   0.081   2.335   3.899
10378TIP3   OH231078   7.468   3.496   0.886
10378TIP3    H131079   7.442   3.572   0.834
10378TIP3    H231080   7.409   3.496   0.961
10379TIP3   OH231081   7.032   4.223   4.428
10379TIP3    H131082   7.054   4.294   4.367
10379TIP3    H231083   7.115   4.176   4.440
10380TIP3   OH231084   0.986   1.729   3.888
10380TIP3    H131085   1.068   1.723   3.840
10380TIP3    H231086   0.925   1.769   3.827
10381TIP3   OH231087   3.031   5.160   6.471
10381TIP3    H131088   3.002   5.222   6.538
10381TIP3    H231089   3.004   5.200   6.388
10382TIP3   OH231090   0.324   3.623   2.048
10382TIP3    H131091   0.289   3.700   2.003
10382TIP3    H231092   0.315   3.643   2.141
10383TIP3   OH231093   4.447   3.317   3.285
10383TIP3    H131094   4.388   3.381   3.325
10383TIP3    H231095   4.479   3.361   3.205
10384TIP3   OH231096   5.686   0.384   5.344
10384TIP3    H131097   5.644   0.464   5.375
10384TIP3    H231098   5.617   0.336   5.298
10385TIP3   OH231099   1.150   5.487   0.320
10385TIP3    H131100   1.160   5.435   0.399
10385TIP3    H231101   1.099   5.563   0.347
10386TIP3   OH231102   3.843   1.127   4.989
10386TIP3    H131103   3.813   1.210   5.027
10386TIP3    H231104   3.938   1.138   4.981
10387TIP3   OH231105   1.346   2.163   2.440
10387TIP3    H131106   1.332   2.224   2.512
10387TIP3    H231107   1.354   2.219   2.363
10388TIP3   OH231108   0.919   1.002   1.846
10388TIP3    H131109   0.918   1.097   1.840
10388TIP3    H231110   0.936   0.973   1.756
10389TIP3   OH231111   7.025   0.117   1.116
10389TIP3    H131112   7.066   0.037   1.083
10389TIP3    H231113   7.066   0.187   1.066
10390TIP3   OH231114   8.170   0.955   4.865
10390TIP3    H131115   8.217   0.878   4.898
10390TIP3    H231116   8.235   1.024   4.862
10391TIP3   OH231117   2.675   0.007   2.032
10391TIP3    H131118   2.762   0.021   1.995
10391TIP3    H231119   2.626  -0.038   1.963
10392TIP3   OH231120   2.264   0.056   5.078
10392TIP3    H131121   2.217   0.125   5.124
10392TIP3    H231122   2.294  -0.003   5.147
10393TIP3   OH231123   2.371   6.451   4.713
10393TIP3    H131124   2.348   6.506   4.638
10393TIP3    H231125   2.389   6.365   4.675
10394TIP3   OH231126   5.117   4.578   5.633
10394TIP3    H131127   5.199   4.624   5.611
10394TIP3    H231128   5.060   4.593   5.557
10395TIP3   OH231129   0.826   7.374   1.897
10395TIP3    H131130   0.854   7.292   1.939
10395TIP3    H231131   0.731   7.365   1.888
10396TIP3   OH231132   5.465   2.425   6.388
10396TIP3    H131133   5.393   2.458   6.334
10396TIP3    H231134   5.514   2.366   6.330
10397TIP3   OH231135   0.506   7.742   1.510
10397TIP3    H131136   0.485   7.668   1.566
10397TIP3    H231137   0.597   7.763   1.531
10398TIP3   OH231138   6.992   4.286   6.222
10398TIP3    H131139   6.907   4.247   6.203
10398TIP3    H231140   6.972   4.378   6.239
10399TIP3   OH231141   0.340   5.119   5.724
10399TIP3    H131142   0.262   5.086   5.769
10399TIP3    H231143   0.385   5.172   5.789
10400TIP3   OH231144   5.825   5.481   0.574
10400TIP3    H131145   5.807   5.474   0.668
10400TIP3    H231146   5.906   5.432   0.561
10401TIP3   OH231147   0.462   3.026   3.785
10401TIP3    H131148   0.483   3.111   3.747
10401TIP3    H231149   0.490   3.034   3.877
10402TIP3   OH231150   6.395   3.277   0.855
10402TIP3    H131151   6.299   3.286   0.856
10402TIP3    H231152   6.417   3.272   0.762
10403TIP3   OH231153   0.059   3.414   4.300
10403TIP3    H131154   0.086   3.457   4.381
10403TIP3    H231155   0.066   3.321   4.319
10404TIP3   OH231156   2.896   0.132   3.690
10404TIP3    H131157   2.865   0.060   3.635
10404TIP3    H231158   2.983   0.104   3.720
10405TIP3   OH231159   4.883   3.015   3.100
10405TIP3    H131160   4.910   2.983   3.014
10405TIP3    H231161   4.857   2.936   3.147
10406TIP3   OH231162   5.675   0.308   2.246
10406TIP3    H131163   5.643   0.222   2.219
10406TIP3    H231164   5.606   0.342   2.304
10407TIP3   OH231165   2.326   4.431   2.237
10407TIP3    H131166   2.255   4.375   2.270
10407TIP3    H231167   2.393   4.369   2.207
10408TIP3   OH231168   5.691   0.647   3.102
10408TIP3    H131169   5.676   0.581   3.035
10408TIP3    H231170   5.725   0.723   3.055
10409TIP3   OH231171   3.825   6.449   2.632
10409TIP3    H131172   3.775   6.404   2.700
10409TIP3    H231173   3.812   6.395   2.553
10410TIP3   OH231174   6.856   6.148   4.891
10410TIP3    H131175   6.815   6.185   4.813
10410TIP3    H231176   6.913   6.079   4.857
10411TIP3   OH231177   3.027   1.575   0.322
10411TIP3    H131178   2.985   1.504   0.275
10411TIP3    H231179   3.115   1.544   0.341
10412TIP3   OH231180   2.455   0.944   1.203
10412TIP3    H131181   2.488   0.978   1.286
10412TIP3    H231182   2.515   0.980   1.137
10413TIP3   OH231183   5.799   7.052   5.911
10413TIP3    H131184   5.834   7.001   5.984
10413TIP3    H231185   5.723   7.002   5.880
10414TIP3   OH231186   6.051   5.495   1.022
10414TIP3    H131187   6.008   5.560   0.967
10414TIP3    H231188   6.091   5.545   1.093
10415TIP3   OH231189   4.697   3.757   6.322
10415TIP3    H131190   4.654   3.692   6.267
10415TIP3    H231191   4.747   3.706   6.385
10416TIP3   OH231192   5.808   1.487   1.572
10416TIP3    H131193   5.804   1.582   1.561
10416TIP3    H231194   5.817   1.474   1.666
10417TIP3   OH231195   2.826   3.135   4.475
10417TIP3    H131196   2.911   3.096   4.496
10417TIP3    H231197   2.819   3.127   4.379
10418TIP3   OH231198   0.136   6.897   3.150
10418TIP3    H131199   0.044   6.872   3.156
10418TIP3    H231200   0.134   6.987   3.118
10419TIP3   OH231201   7.840   5.771   1.327
10419TIP3    H131202   7.881   5.763   1.414
10419TIP3    H231203   7.879   5.700   1.276
10420TIP3   OH231204   0.179   3.130   6.560
10420TIP3    H131205   0.139   3.095   6.480
10420TIP3    H231206   0.224   3.210   6.531
10421TIP3   OH231207   2.025   2.280   2.110
10421TIP3    H131208   2.088   2.317   2.049
10421TIP3    H231209   2.054   2.309   2.196
10422TIP3   OH231210   2.219   3.319   1.270
10422TIP3    H131211   2.289   3.349   1.329
10422TIP3    H231212   2.187   3.399   1.229
10423TIP3   OH231213   2.102   3.425   3.233
10423TIP3    H131214   2.143   3.505   3.201
10423TIP3    H231215   2.079   3.446   3.324
10424TIP3   OH231216   6.221   6.758   1.310
10424TIP3    H131217   6.295   6.790   1.259
10424TIP3    H231218   6.144   6.791   1.263
10425TIP3   OH231219   3.971   1.020   5.944
10425TIP3    H131220   3.918   0.987   5.871
10425TIP3    H231221   3.919   1.001   6.021
10426TIP3   OH231222   0.452   5.994   6.151
10426TIP3    H131223   0.533   5.982   6.199
10426TIP3    H231224   0.383   5.981   6.216
10427TIP3   OH231225   0.692   6.055   0.245
10427TIP3    H131226   0.716   6.038   0.154
10427TIP3    H231227   0.653   6.143   0.243
10428TIP3   OH231228   4.991   2.488  -0.004
10428TIP3    H131229   4.957   2.437   0.070
10428TIP3    H231230   5.046   2.555   0.036
10429TIP3   OH231231   0.685   7.242   2.550
10429TIP3    H131232   0.766   7.256   2.598
10429TIP3    H231233   0.658   7.153   2.573
10430TIP3   OH231234   1.241   2.842   1.491
10430TIP3    H131235   1.279   2.904   1.553
10430TIP3    H231236   1.251   2.884   1.405
10431TIP3   OH231237   5.321   2.167   6.416
10431TIP3    H131238   5.362   2.148   6.500
10431TIP3    H231239   5.333   2.261   6.404
10432TIP3   OH231240   6.329   1.295   4.949
10432TIP3    H131241   6.314   1.256   5.035
10432TIP3    H231242   6.256   1.356   4.937
10433TIP3   OH231243   3.835   0.714   1.695
10433TIP3    H131244   3.804   0.784   1.638
10433TIP3    H231245   3.855   0.642   1.636
10434TIP3   OH231246   6.834   3.067   1.393
10434TIP3    H131247   6.832   3.073   1.297
10434TIP3    H231248   6.825   2.973   1.410
10435TIP3   OH231249   0.053   0.399   4.546
10435TIP3    H131250   0.084   0.354   4.624
10435TIP3    H231251   0.096   0.354   4.473
10436TIP3   OH231252   6.033   5.604   6.182
10436TIP3    H131253   5.962   5.610   6.246
10436TIP3    H231254   6.111   5.631   6.231
10437TIP3   OH231255   0.225   0.274   1.587
10437TIP3    H131256   0.266   0.210   1.645
10437TIP3    H231257   0.298   0.322   1.549
10438TIP3   OH231258   1.809   5.234   0.304
10438TIP3    H131259   1.887   5.235   0.249
10438TIP3    H231260   1.765   5.152   0.281
10439TIP3   OH231261   3.243   0.843   3.325
10439TIP3    H131262   3.148   0.840   3.315
10439TIP3    H231263   3.258   0.861   3.417
10440TIP3   OH231264   0.521   4.591   2.454
10440TIP3    H131265   0.431   4.561   2.442
10440TIP3    H231266   0.544   4.631   2.371
10441TIP3   OH231267   7.116   2.947   1.076
10441TIP3    H131268   7.144   2.964   0.986
10441TIP3    H231269   7.187   2.983   1.129
10442TIP3   OH231270   0.158   4.691   6.496
10442TIP3    H131271   0.172   4.633   6.422
10442TIP3    H231272   0.087   4.749   6.468
10443TIP3   OH231273   1.910   7.783   0.170
10443TIP3    H131274   1.928   7.718   0.103
10443TIP3    H231275   1.987   7.781   0.228
10444TIP3   OH231276   7.750   3.910   2.708
10444TIP3    H131277   7.659   3.898   2.738
10444TIP3    H231278   7.742   3.923   2.613
10445TIP3   OH231279   3.933   6.203   1.221
10445TIP3    H131280   3.877   6.280   1.232
10445TIP3    H231281   3.941   6.167   1.310
10446TIP3   OH231282   7.314   4.124   4.504
10446TIP3    H131283   7.350   4.036   4.503
10446TIP3    H231284   7.385   4.180   4.471
10447TIP3   OH231285   5.733   3.912   6.557
10447TIP3    H131286   5.784   3.938   6.633
10447TIP3    H231287   5.795   3.919   6.484
10448TIP3   OH231288   6.356   0.003   5.808
10448TIP3    H131289   6.442  -0.003   5.850
10448TIP3    H231290   6.373   0.047   5.724
10449TIP3   OH231291   5.897   4.707   5.432
10449TIP3    H131292   5.903   4.802   5.421
10449TIP3    H231293   5.884   4.694   5.526
10450TIP3   OH231294   7.929   0.673   2.012
10450TIP3    H131295   7.904   0.723   2.090
10450TIP3    H231296   7.872   0.596   2.013
10451TIP3   OH231297   5.354   7.062   5.665
10451TIP3    H131298   5.265   7.043   5.637
10451TIP3    H231299   5.368   7.007   5.742
10452TIP3   OH231300   3.589   4.205   5.248
10452TIP3    H131301   3.615   4.171   5.333
10452TIP3    H231302   3.495   4.223   5.257
10453TIP3   OH231303   5.566   3.755   0.195
10453TIP3    H131304   5.560   3.719   0.284
10453TIP3    H231305   5.512   3.834   0.198
10454TIP3   OH231306   5.339   3.205   0.620
10454TIP3    H131307   5.364   3.267   0.550
10454TIP3    H231308   5.394   3.128   0.603
10455TIP3   OH231309   1.807   3.057   5.358
10455TIP3    H131310   1.728   3.014   5.326
10455TIP3    H231311   1.781   3.149   5.369
10456TIP3   OH231312   3.157   6.178   2.579
10456TIP3    H131313   3.219   6.217   2.518
10456TIP3    H231314   3.182   6.086   2.583
10457TIP3   OH231315   4.254   5.393   5.881
10457TIP3    H131316   4.222   5.314   5.925
10457TIP3    H231317   4.204   5.464   5.920
10458TIP3   OH231318   4.367   7.506   4.514
10458TIP3    H131319   4.352   7.597   4.487
10458TIP3    H231320   4.461   7.500   4.528
10459TIP3   OH231321   3.625   2.544   3.381
10459TIP3    H131322   3.623   2.639   3.368
10459TIP3    H231323   3.567   2.509   3.314
10460TIP3   OH231324   5.369   1.913   2.802
10460TIP3    H131325   5.458   1.919   2.768
10460TIP3    H231326   5.359   1.990   2.857
10461TIP3   OH231327   5.019   7.375   0.917
10461TIP3    H131328   5.068   7.456   0.923
10461TIP3    H231329   4.948   7.385   0.980
10462TIP3   OH231330   7.903   5.704   6.205
10462TIP3    H131331   7.873   5.792   6.183
10462TIP3    H231332   7.988   5.718   6.247
10463TIP3   OH231333   5.746   4.742   4.443
10463TIP3    H131334   5.815   4.683   4.413
10463TIP3    H231335   5.735   4.805   4.371
10464TIP3   OH231336   0.575   7.123   1.927
10464TIP3    H131337   0.603   7.084   2.010
10464TIP3    H231338   0.498   7.174   1.949
10465TIP3   OH231339   1.807   5.691   3.221
10465TIP3    H131340   1.837   5.611   3.264
10465TIP3    H231341   1.732   5.720   3.273
10466TIP3   OH231342   3.821   3.079   2.515
10466TIP3    H131343   3.849   3.105   2.603
10466TIP3    H231344   3.843   3.155   2.460
10467TIP3   OH231345   0.353   7.213   0.189
10467TIP3    H131346   0.322   7.124   0.209
10467TIP3    H231347   0.395   7.241   0.271
10468TIP3   OH231348   1.108   2.200   4.014
10468TIP3    H131349   1.045   2.266   4.043
10468TIP3    H231350   1.077   2.119   4.053
10469TIP3   OH231351   8.076   5.562   5.101
10469TIP3    H131352   8.071   5.476   5.142
10469TIP3    H231353   7.984   5.588   5.088
10470TIP3   OH231354   1.489   6.400   5.946
10470TIP3    H131355   1.568   6.424   5.995
10470TIP3    H231356   1.506   6.310   5.916
10471TIP3   OH231357   0.323   2.147   4.921
10471TIP3    H131358   0.391   2.082   4.941
10471TIP3    H231359   0.242   2.097   4.916
10472TIP3   OH231360   4.184   4.271   4.785
10472TIP3    H131361   4.278   4.266   4.798
10472TIP3    H231362   4.157   4.180   4.772
10473TIP3   OH231363   7.305   4.098   1.509
10473TIP3    H131364   7.237   4.117   1.574
10473TIP3    H231365   7.377   4.061   1.560
10474TIP3   OH231366   7.356   4.458   1.927
10474TIP3    H131367   7.425   4.495   1.981
10474TIP3    H231368   7.400   4.433   1.845
10475TIP3   OH231369   3.792   0.595   2.513
10475TIP3    H131370   3.873   0.566   2.553
10475TIP3    H231371   3.814   0.678   2.472
10476TIP3   OH231372   7.562   7.711   1.563
10476TIP3    H131373   7.574   7.663   1.645
10476TIP3    H231374   7.467   7.721   1.555
10477TIP3   OH231375   7.453   0.910   3.909
10477TIP3    H131376   7.455   0.856   3.830
10477TIP3    H231377   7.367   0.893   3.947
10478TIP3   OH231378   0.839   5.684   1.096
10478TIP3    H131379   0.815   5.753   1.035
10478TIP3    H231380   0.773   5.616   1.084
10479TIP3   OH231381   3.849   6.837   5.110
10479TIP3    H131382   3.941   6.809   5.117
10479TIP3    H231383   3.842   6.876   5.023
10480TIP3   OH231384   0.251   4.393   5.077
10480TIP3    H131385   0.314   4.435   5.018
10480TIP3    H231386   0.301   4.374   5.156
10481TIP3   OH231387   1.771   1.405   3.097
10481TIP3    H131388   1.865   1.401   3.078
10481TIP3    H231389   1.741   1.487   3.056
10482TIP3   OH231390   6.776   6.013   3.481
10482TIP3    H131391   6.865   5.978   3.472
10482TIP3    H231392   6.789   6.104   3.510
10483TIP3   OH231393   7.006   5.861   3.151
10483TIP3    H131394   7.012   5.854   3.056
10483TIP3    H231395   6.931   5.806   3.174
10484TIP3   OH231396   3.655   1.808   1.571
10484TIP3    H131397   3.652   1.755   1.650
10484TIP3    H231398   3.699   1.752   1.506
10485TIP3   OH231399   7.387   2.079   6.085
10485TIP3    H131400   7.407   2.163   6.043
10485TIP3    H231401   7.431   2.014   6.031
10486TIP3   OH231402   8.196   0.851   1.623
10486TIP3    H131403   8.176   0.806   1.705
10486TIP3    H231404   8.205   0.780   1.559
10487TIP3   OH231405   1.417   2.050   4.188
10487TIP3    H131406   1.430   1.967   4.142
10487TIP3    H231407   1.322   2.053   4.204
10488TIP3   OH231408   5.282   6.852   0.429
10488TIP3    H131409   5.294   6.870   0.335
10488TIP3    H231410   5.198   6.893   0.450
10489TIP3   OH231411   6.063   6.736   2.568
10489TIP3    H131412   6.047   6.757   2.660
10489TIP3    H231413   6.034   6.813   2.520
10490TIP3   OH231414   5.083   4.207   5.270
10490TIP3    H131415   5.008   4.250   5.311
10490TIP3    H231416   5.142   4.189   5.343
10491TIP3   OH231417   3.516   4.886   0.633
10491TIP3    H131418   3.429   4.846   0.644
10491TIP3    H231419   3.577   4.812   0.637
10492TIP3   OH231420   5.696   6.204   2.146
10492TIP3    H131421   5.762   6.136   2.130
10492TIP3    H231422   5.631   6.191   2.077
10493TIP3   OH231423   1.262   4.538   1.619
10493TIP3    H131424   1.214   4.599   1.563
10493TIP3    H231425   1.351   4.572   1.621
10494TIP3   OH231426   0.455   2.215   4.164
10494TIP3    H131427   0.519   2.209   4.235
10494TIP3    H231428   0.407   2.132   4.167
10495TIP3   OH231429   0.348   0.198   3.421
10495TIP3    H131430   0.342   0.197   3.326
10495TIP3    H231431   0.401   0.275   3.441
10496TIP3   OH231432   5.722   3.010   1.844
10496TIP3    H131433   5.767   3.022   1.761
10496TIP3    H231434   5.691   2.920   1.841
10497TIP3   OH231435   3.387   5.331   1.037
10497TIP3    H131436   3.392   5.336   0.941
10497TIP3    H231437   3.453   5.393   1.067
10498TIP3   OH231438   3.208   1.418   5.658
10498TIP3    H131439   3.184   1.472   5.733
10498TIP3    H231440   3.283   1.366   5.688
10499TIP3   OH231441   0.920   1.003   6.528
10499TIP3    H131442   0.905   1.038   6.441
10499TIP3    H231443   0.846   0.943   6.543
10500TIP3   OH231444   5.950   2.698   4.072
10500TIP3    H131445   6.027   2.653   4.036
10500TIP3    H231446   5.878   2.636   4.060
10501TIP3   OH231447   0.629   3.814   2.569
10501TIP3    H131448   0.567   3.860   2.512
10501TIP3    H231449   0.688   3.882   2.601
10502TIP3   OH231450   2.117   6.214   2.612
10502TIP3    H131451   2.128   6.218   2.517
10502TIP3    H231452   2.205   6.228   2.647
10503TIP3   OH231453   0.043   2.281   1.130
10503TIP3    H131454  -0.030   2.342   1.127
10503TIP3    H231455   0.012   2.204   1.083
10504TIP3   OH231456   4.687   2.164   0.704
10504TIP3    H131457   4.756   2.099   0.693
10504TIP3    H231458   4.734   2.247   0.712
10505TIP3   OH231459   7.475   7.224   5.393
10505TIP3    H131460   7.532   7.169   5.445
10505TIP3    H231461   7.465   7.305   5.444
10506TIP3   OH231462   4.946   3.035   1.413
10506TIP3    H131463   4.961   2.941   1.402
10506TIP3    H231464   4.851   3.045   1.409
10507TIP3   OH231465   6.839   2.815   5.471
10507TIP3    H131466   6.853   2.782   5.382
10507TIP3    H231467   6.745   2.830   5.477
10508TIP3   OH231468   1.080   5.490   0.648
10508TIP3    H131469   1.124   5.519   0.728
10508TIP3    H231470   1.136   5.421   0.612
10509TIP3   OH231471   7.930   6.495   2.542
10509TIP3    H131472   7.975   6.543   2.472
10509TIP3    H231473   7.837   6.516   2.529
10510TIP3   OH231474   4.383   0.737   1.493
10510TIP3    H131475   4.315   0.723   1.428
10510TIP3    H231476   4.351   0.693   1.572
10511TIP3   OH231477   7.433   1.235   3.326
10511TIP3    H131478   7.523   1.248   3.296
10511TIP3    H231479   7.435   1.154   3.376
10512TIP3   OH231480   7.588   3.456   6.769
10512TIP3    H131481   7.586   3.538   6.817
10512TIP3    H231482   7.592   3.482   6.677
10513TIP3   OH231483   1.831   4.036   2.763
10513TIP3    H131484   1.849   4.007   2.673
10513TIP3    H231485   1.918   4.054   2.800
10514TIP3   OH231486   1.610   2.132   3.961
10514TIP3    H131487   1.663   2.211   3.951
10514TIP3    H231488   1.552   2.151   4.035
10515TIP3   OH231489   8.005   2.013   2.269
10515TIP3    H131490   8.040   2.092   2.230
10515TIP3    H231491   8.073   1.983   2.329
10516TIP3   OH231492   3.559   5.691   3.952
10516TIP3    H131493   3.650   5.721   3.956
10516TIP3    H231494   3.507   5.767   3.978
10517TIP3   OH231495   3.848   7.467   1.632
10517TIP3    H131496   3.836   7.449   1.725
10517TIP3    H231497   3.838   7.382   1.589
10518TIP3   OH231498   3.896   6.169   6.157
10518TIP3    H131499   3.855   6.235   6.101
10518TIP3    H231500   3.947   6.220   6.220
10519TIP3   OH231501   2.808   2.232   3.059
10519TIP3    H131502   2.813   2.211   2.966
10519TIP3    H231503   2.869   2.171   3.101
10520TIP3   OH231504   1.738   5.214   0.846
10520TIP3    H131505   1.788   5.148   0.894
10520TIP3    H231506   1.653   5.217   0.891
10521TIP3   OH231507   1.540   6.845   2.862
10521TIP3    H131508   1.494   6.897   2.796
10521TIP3    H231509   1.575   6.770   2.813
10522TIP3   OH231510   1.539   1.488   2.445
10522TIP3    H131511   1.476   1.506   2.375
10522TIP3    H231512   1.595   1.566   2.447
10523TIP3   OH231513   2.664   6.390   6.264
10523TIP3    H131514   2.661   6.432   6.178
10523TIP3    H231515   2.573   6.383   6.291
10524TIP3   OH231516   1.534   2.009   4.809
10524TIP3    H131517   1.603   1.952   4.843
10524TIP3    H231518   1.523   2.076   4.876
10525TIP3   OH231519   8.077   3.191   4.249
10525TIP3    H131520   8.088   3.251   4.175
10525TIP3    H231521   8.112   3.108   4.218
10526TIP3   OH231522   3.560   3.996   2.421
10526TIP3    H131523   3.626   4.051   2.462
10526TIP3    H231524   3.507   3.964   2.494
10527TIP3   OH231525   1.560   0.435   4.943
10527TIP3    H131526   1.525   0.420   4.855
10527TIP3    H231527   1.516   0.370   4.998
10528TIP3   OH231528   2.800   6.340   3.398
10528TIP3    H131529   2.892   6.315   3.391
10528TIP3    H231530   2.768   6.294   3.475
10529TIP3   OH231531   6.307   5.270   4.550
10529TIP3    H131532   6.289   5.200   4.487
10529TIP3    H231533   6.313   5.225   4.635
10530TIP3   OH231534   5.849   2.400   0.736
10530TIP3    H131535   5.758   2.383   0.715
10530TIP3    H231536   5.847   2.465   0.806
10531TIP3   OH231537   4.070   3.470   6.116
10531TIP3    H131538   3.997   3.531   6.115
10531TIP3    H231539   4.099   3.469   6.207
10532TIP3   OH231540   5.391   6.716   5.881
10532TIP3    H131541   5.437   6.682   5.958
10532TIP3    H231542   5.356   6.801   5.909
10533TIP3   OH231543   5.610   1.116   4.452
10533TIP3    H131544   5.621   1.084   4.542
10533TIP3    H231545   5.651   1.202   4.452
10534TIP3   OH231546   5.772   7.003   3.652
10534TIP3    H131547   5.758   6.910   3.674
10534TIP3    H231548   5.794   7.044   3.736
10535TIP3   OH231549   7.441   2.424   1.257
10535TIP3    H131550   7.391   2.455   1.182
10535TIP3    H231551   7.434   2.328   1.252
10536TIP3   OH231552   6.352   2.864   5.961
10536TIP3    H131553   6.257   2.878   5.959
10536TIP3    H231554   6.388   2.937   5.911
10537TIP3   OH231555   2.311   1.054   6.589
10537TIP3    H131556   2.265   0.977   6.556
10537TIP3    H231557   2.401   1.023   6.606
10538TIP3   OH231558   7.787   7.602   6.198
10538TIP3    H131559   7.818   7.563   6.116
10538TIP3    H231560   7.770   7.528   6.256
10539TIP3   OH231561   5.677   2.546   5.113
10539TIP3    H131562   5.739   2.492   5.065
10539TIP3    H231563   5.606   2.562   5.051
10540TIP3   OH231564   2.758   0.464   6.363
10540TIP3    H131565   2.805   0.410   6.300
10540TIP3    H231566   2.826   0.506   6.414
10541TIP3   OH231567   1.672   3.543   2.338
10541TIP3    H131568   1.701   3.617   2.284
10541TIP3    H231569   1.588   3.517   2.300
10542TIP3   OH231570   8.207   4.120   0.316
10542TIP3    H131571   8.190   4.045   0.259
10542TIP3    H231572   8.275   4.089   0.376
10543TIP3   OH231573   6.226   4.552   1.582
10543TIP3    H131574   6.172   4.608   1.527
10543TIP3    H231575   6.256   4.482   1.524
10544TIP3   OH231576   4.856   6.840   1.175
10544TIP3    H131577   4.944   6.866   1.147
10544TIP3    H231578   4.865   6.747   1.197
10545TIP3   OH231579   3.672   4.048   2.080
10545TIP3    H131580   3.690   3.976   2.140
10545TIP3    H231581   3.756   4.066   2.037
10546TIP3   OH231582   0.322   6.082   4.654
10546TIP3    H131583   0.327   6.007   4.713
10546TIP3    H231584   0.243   6.129   4.682
10547TIP3   OH231585   6.459   6.614   0.110
10547TIP3    H131586   6.454   6.709   0.101
10547TIP3    H231587   6.368   6.586   0.122
10548TIP3   OH231588   3.756   6.829   6.735
10548TIP3    H131589   3.759   6.737   6.761
10548TIP3    H231590   3.848   6.857   6.736
10549TIP3   OH231591   0.174   4.444   3.695
10549TIP3    H131592   0.140   4.355   3.706
10549TIP3    H231593   0.132   4.476   3.615
10550TIP3   OH231594   6.781   1.404   2.743
10550TIP3    H131595   6.708   1.358   2.702
10550TIP3    H231596   6.818   1.458   2.673
10551TIP3   OH231597   5.103   0.959   2.518
10551TIP3    H131598   5.012   0.955   2.489
10551TIP3    H231599   5.124   1.052   2.517
10552TIP3   OH231600   1.710   4.367   0.949
10552TIP3    H131601   1.652   4.334   1.018
10552TIP3    H231602   1.685   4.459   0.938
10553TIP3   OH231603   7.563   5.729   6.337
10553TIP3    H131604   7.624   5.757   6.269
10553TIP3    H231605   7.585   5.637   6.353
10554TIP3   OH231606   8.016   3.489   2.456
10554TIP3    H131607   8.070   3.541   2.396
10554TIP3    H231608   7.951   3.551   2.488
10555TIP3   OH231609   6.215   0.002   3.846
10555TIP3    H131610   6.244  -0.070   3.790
10555TIP3    H231611   6.256   0.080   3.808
10556TIP3   OH231612   0.144   1.944   0.118
10556TIP3    H131613   0.172   1.856   0.143
10556TIP3    H231614   0.053   1.950   0.147
10557TIP3   OH231615   5.908   4.385   3.223
10557TIP3    H131616   5.974   4.316   3.211
10557TIP3    H231617   5.926   4.419   3.311
10558TIP3   OH231618   6.836   5.088   6.421
10558TIP3    H131619   6.800   5.112   6.336
10558TIP3    H231620   6.914   5.036   6.401
10559TIP3   OH231621   5.213   0.964   5.174
10559TIP3    H131622   5.212   0.899   5.104
10559TIP3    H231623   5.214   1.048   5.128
10560TIP3   OH231624   1.208   3.748   2.852
10560TIP3    H131625   1.271   3.813   2.821
10560TIP3    H231626   1.192   3.692   2.776
10561TIP3   OH231627   7.528   6.947   4.980
10561TIP3    H131628   7.455   6.995   4.940
10561TIP3    H231629   7.509   6.950   5.074
10562TIP3   OH231630   3.122   5.415   3.984
10562TIP3    H131631   3.090   5.351   4.048
10562TIP3    H231632   3.102   5.376   3.899
10563TIP3   OH231633   3.233   1.053   1.641
10563TIP3    H131634   3.210   1.027   1.552
10563TIP3    H231635   3.219   0.975   1.694
10564TIP3   OH231636   5.045   3.107   0.936
10564TIP3    H131637   5.043   3.130   1.029
10564TIP3    H231638   5.137   3.115   0.911
10565TIP3   OH231639   1.875   1.969   5.075
10565TIP3    H131640   1.861   1.966   5.170
10565TIP3    H231641   1.918   2.053   5.060
10566TIP3   OH231642   7.262   2.971   1.512
10566TIP3    H131643   7.240   2.884   1.480
10566TIP3    H231644   7.181   3.021   1.503
10567TIP3   OH231645   4.964   6.872   3.323
10567TIP3    H131646   5.007   6.950   3.358
10567TIP3    H231647   4.870   6.892   3.329
10568TIP3   OH231648   0.603   5.944   3.765
10568TIP3    H131649   0.524   5.896   3.741
10568TIP3    H231650   0.595   6.029   3.722
10569TIP3   OH231651   3.658   5.436   1.818
10569TIP3    H131652   3.708   5.482   1.886
10569TIP3    H231653   3.615   5.364   1.864
10570TIP3   OH231654   5.770   7.120   1.682
10570TIP3    H131655   5.729   7.085   1.603
10570TIP3    H231656   5.765   7.215   1.671
10571TIP3   OH231657   7.634   2.791   1.880
10571TIP3    H131658   7.645   2.882   1.907
10571TIP3    H231659   7.552   2.790   1.831
10572TIP3   OH231660   6.900   6.215   6.245
10572TIP3    H131661   6.827   6.214   6.182
10572TIP3    H231662   6.859   6.193   6.329
10573TIP3   OH231663   7.418   0.830   2.689
10573TIP3    H131664   7.367   0.772   2.633
10573TIP3    H231665   7.472   0.771   2.743
10574TIP3   OH231666   3.020   1.316   2.652
10574TIP3    H131667   2.949   1.300   2.590
10574TIP3    H231668   3.078   1.240   2.642
10575TIP3   OH231669   7.164   0.622   5.232
10575TIP3    H131670   7.129   0.550   5.180
10575TIP3    H231671   7.227   0.665   5.175
10576TIP3   OH231672   0.325   7.803   3.992
10576TIP3    H131673   0.242   7.845   3.971
10576TIP3    H231674   0.301   7.715   4.021
10577TIP3   OH231675   2.392   3.569   0.195
10577TIP3    H131676   2.349   3.536   0.116
10577TIP3    H231677   2.338   3.642   0.223
10578TIP3   OH231678   6.579   0.800   2.125
10578TIP3    H131679   6.537   0.797   2.211
10578TIP3    H231680   6.588   0.708   2.100
10579TIP3   OH231681   5.389   1.601   4.949
10579TIP3    H131682   5.299   1.629   4.968
10579TIP3    H231683   5.382   1.557   4.864
10580TIP3   OH231684   6.530   2.423   1.806
10580TIP3    H131685   6.500   2.447   1.718
10580TIP3    H231686   6.503   2.497   1.861
10581TIP3   OH231687   0.749   4.977   0.704
10581TIP3    H131688   0.674   5.026   0.738
10581TIP3    H231689   0.783   4.929   0.780
10582TIP3   OH231690   5.868   3.293   6.380
10582TIP3    H131691   5.784   3.340   6.383
10582TIP3    H231692   5.927   3.346   6.434
10583TIP3   OH231693   0.059   5.126   1.245
10583TIP3    H131694   0.116   5.171   1.182
10583TIP3    H231695   0.044   5.040   1.207
10584TIP3   OH231696   0.672   2.927   0.153
10584TIP3    H131697   0.765   2.947   0.140
10584TIP3    H231698   0.659   2.932   0.247
10585TIP3   OH231699   7.461   5.115   4.770
10585TIP3    H131700   7.475   5.031   4.814
10585TIP3    H231701   7.526   5.116   4.699
10586TIP3   OH231702   0.889   5.112   2.092
10586TIP3    H131703   0.978   5.138   2.113
10586TIP3    H231704   0.886   5.019   2.112
10587TIP3   OH231705   1.300   6.278   3.975
10587TIP3    H131706   1.286   6.371   3.993
10587TIP3    H231707   1.332   6.276   3.884
10588TIP3   OH231708   0.722   1.410   1.994
10588TIP3    H131709   0.704   1.501   2.017
10588TIP3    H231710   0.650   1.360   2.032
10589TIP3   OH231711   7.650   4.637   6.548
10589TIP3    H131712   7.694   4.584   6.482
10589TIP3    H231713   7.678   4.727   6.530
10590TIP3   OH231714   5.083   5.034   1.267
10590TIP3    H131715   5.087   5.077   1.182
10590TIP3    H231716   5.079   5.106   1.330
10591TIP3   OH231717   2.836   4.414   2.624
10591TIP3    H131718   2.858   4.507   2.618
10591TIP3    H231719   2.911   4.374   2.667
10592TIP3   OH231720   1.673   7.641   4.962
10592TIP3    H131721   1.714   7.654   5.047
10592TIP3    H231722   1.633   7.725   4.942
10593TIP3   OH231723   7.952   4.310   1.213
10593TIP3    H131724   7.974   4.261   1.293
10593TIP3    H231725   8.029   4.302   1.157
10594TIP3   OH231726   0.266   0.261   2.652
10594TIP3    H131727   0.211   0.183   2.651
10594TIP3    H231728   0.348   0.231   2.691
10595TIP3   OH231729   5.231   4.369   1.998
10595TIP3    H131730   5.290   4.294   2.005
10595TIP3    H231731   5.152   4.335   1.957
10596TIP3   OH231732   3.318   4.772   3.903
10596TIP3    H131733   3.380   4.705   3.932
10596TIP3    H231734   3.258   4.782   3.977
10597TIP3   OH231735   0.713   6.607   0.490
10597TIP3    H131736   0.733   6.638   0.401
10597TIP3    H231737   0.641   6.546   0.477
10598TIP3   OH231738   2.043   4.578   0.885
10598TIP3    H131739   2.138   4.579   0.893
10598TIP3    H231740   2.021   4.486   0.876
10599TIP3   OH231741   1.657   3.733   3.752
10599TIP3    H131742   1.681   3.735   3.659
10599TIP3    H231743   1.599   3.658   3.760
10600TIP3   OH231744   2.224   6.923   1.746
10600TIP3    H131745   2.283   6.985   1.790
10600TIP3    H231746   2.159   6.979   1.702
10601TIP3   OH231747   7.860   3.771   2.224
10601TIP3    H131748   7.770   3.791   2.195
10601TIP3    H231749   7.849   3.737   2.313
10602TIP3   OH231750   1.950   3.610   5.609
10602TIP3    H131751   2.033   3.656   5.621
10602TIP3    H231752   1.971   3.539   5.547
10603TIP3   OH231753   2.427   3.665   2.778
10603TIP3    H131754   2.348   3.720   2.781
10603TIP3    H231755   2.494   3.723   2.741
10604TIP3   OH231756   0.342   0.312   6.575
10604TIP3    H131757   0.320   0.322   6.483
10604TIP3    H231758   0.438   0.321   6.578
10605TIP3   OH231759   7.303   2.368   5.996
10605TIP3    H131760   7.224   2.337   6.041
10605TIP3    H231761   7.269   2.428   5.929
10606TIP3   OH231762   7.061   6.522   1.674
10606TIP3    H131763   7.050   6.512   1.579
10606TIP3    H231764   7.033   6.438   1.710
10607TIP3   OH231765   4.836   4.752   4.142
10607TIP3    H131766   4.859   4.731   4.232
10607TIP3    H231767   4.840   4.669   4.095
10608TIP3   OH231768   7.166   4.894   4.138
10608TIP3    H131769   7.157   4.989   4.144
10608TIP3    H231770   7.230   4.880   4.068
10609TIP3   OH231771   4.450   1.543   2.456
10609TIP3    H131772   4.388   1.471   2.444
10609TIP3    H231773   4.460   1.551   2.551
10610TIP3   OH231774   6.242   4.743   6.182
10610TIP3    H131775   6.303   4.817   6.189
10610TIP3    H231776   6.299   4.666   6.183
10611TIP3   OH231777   4.188   3.480   1.961
10611TIP3    H131778   4.188   3.575   1.968
10611TIP3    H231779   4.229   3.462   1.876
10612TIP3   OH231780   8.122   5.242   6.085
10612TIP3    H131781   8.068   5.320   6.067
10612TIP3    H231782   8.063   5.168   6.070
10613TIP3   OH231783   3.945   2.653   6.666
10613TIP3    H131784   3.934   2.741   6.701
10613TIP3    H231785   4.021   2.659   6.608
10614TIP3   OH231786   7.677   5.677   0.661
10614TIP3    H131787   7.730   5.703   0.736
10614TIP3    H231788   7.587   5.679   0.693
10615TIP3   OH231789   2.168   0.837   6.540
10615TIP3    H131790   2.103   0.768   6.530
10615TIP3    H231791   2.238   0.797   6.592
10616TIP3   OH231792   7.219   2.692   1.458
10616TIP3    H131793   7.197   2.670   1.368
10616TIP3    H231794   7.313   2.710   1.457
10617TIP3   OH231795   1.011   3.672   5.621
10617TIP3    H131796   0.963   3.651   5.541
10617TIP3    H231797   0.948   3.655   5.692
10618TIP3   OH231798   2.353   7.745   6.210
10618TIP3    H131799   2.386   7.777   6.294
10618TIP3    H231800   2.367   7.819   6.150
10619TIP3   OH231801   5.063   6.071   1.122
10619TIP3    H131802   5.100   6.098   1.206
10619TIP3    H231803   5.115   5.995   1.096
10620TIP3   OH231804   7.496   5.273   0.123
10620TIP3    H131805   7.499   5.177   0.120
10620TIP3    H231806   7.544   5.295   0.203
10621TIP3   OH231807   1.733   0.822   6.650
10621TIP3    H131808   1.694   0.838   6.564
10621TIP3    H231809   1.661   0.837   6.712
10622TIP3   OH231810   4.918   0.664   2.079
10622TIP3    H131811   4.998   0.644   2.031
10622TIP3    H231812   4.939   0.744   2.128
10623TIP3   OH231813   1.601   5.785   4.789
10623TIP3    H131814   1.555   5.701   4.802
10623TIP3    H231815   1.687   5.760   4.756
10624TIP3   OH231816   4.527   0.325   0.529
10624TIP3    H131817   4.499   0.362   0.446
10624TIP3    H231818   4.464   0.359   0.593
10625TIP3   OH231819   0.562   1.960   4.413
10625TIP3    H131820   0.520   1.884   4.371
10625TIP3    H231821   0.642   1.925   4.451
10626TIP3   OH231822   3.358   2.821   1.678
10626TIP3    H131823   3.402   2.791   1.758
10626TIP3    H231824   3.429   2.834   1.615
10627TIP3   OH231825   6.443   6.357   1.403
10627TIP3    H131826   6.450   6.262   1.393
10627TIP3    H231827   6.354   6.377   1.374
10628TIP3   OH231828   6.269   3.350   5.658
10628TIP3    H131829   6.189   3.399   5.674
10628TIP3    H231830   6.244   3.258   5.670
10629TIP3   OH231831   6.001   6.734   5.362
10629TIP3    H131832   6.055   6.659   5.384
10629TIP3    H231833   6.061   6.795   5.319
10630TIP3   OH231834   7.222   2.245   6.439
10630TIP3    H131835   7.213   2.307   6.367
10630TIP3    H231836   7.161   2.276   6.505
10631TIP3   OH231837   1.536   7.351   1.310
10631TIP3    H131838   1.508   7.303   1.388
10631TIP3    H231839   1.520   7.290   1.237
10632TIP3   OH231840   1.053   3.310   5.298
10632TIP3    H131841   1.124   3.245   5.293
10632TIP3    H231842   1.057   3.342   5.388
10633TIP3   OH231843   1.480   4.969   4.945
10633TIP3    H131844   1.414   4.904   4.970
10633TIP3    H231845   1.534   4.980   5.023
10634TIP3   OH231846   1.301   6.699   2.985
10634TIP3    H131847   1.390   6.717   2.954
10634TIP3    H231848   1.250   6.776   2.957
10635TIP3   OH231849   1.476   4.810   0.290
10635TIP3    H131850   1.419   4.880   0.321
10635TIP3    H231851   1.481   4.823   0.195
10636TIP3   OH231852   3.148   1.007   0.649
10636TIP3    H131853   3.219   1.066   0.673
10636TIP3    H231854   3.109   1.046   0.570
10637TIP3   OH231855   5.121   0.344   0.884
10637TIP3    H131856   5.113   0.360   0.790
10637TIP3    H231857   5.031   0.326   0.913
10638TIP3   OH231858   6.373   7.572   5.869
10638TIP3    H131859   6.328   7.657   5.872
10638TIP3    H231860   6.307   7.511   5.837
10639TIP3   OH231861   1.695   3.672   3.270
10639TIP3    H131862   1.725   3.685   3.360
10639TIP3    H231863   1.715   3.580   3.251
10640TIP3   OH231864   4.650   2.224   3.232
10640TIP3    H131865   4.665   2.316   3.209
10640TIP3    H231866   4.557   2.219   3.254
10641TIP3   OH231867   7.653   3.179   1.681
10641TIP3    H131868   7.660   3.240   1.608
10641TIP3    H231869   7.717   3.111   1.662
10642TIP3   OH231870   4.607   0.317   6.262
10642TIP3    H131871   4.618   0.398   6.212
10642TIP3    H231872   4.674   0.258   6.227
10643TIP3   OH231873   7.691   1.051   1.596
10643TIP3    H131874   7.776   1.009   1.584
10643TIP3    H231875   7.648   1.042   1.512
10644TIP3   OH231876   6.620   1.383   0.629
10644TIP3    H131877   6.596   1.464   0.673
10644TIP3    H231878   6.577   1.314   0.679
10645TIP3   OH231879   2.022   3.375   1.603
10645TIP3    H131880   2.024   3.458   1.556
10645TIP3    H231881   1.934   3.341   1.589
10646TIP3   OH231882   4.491   6.787   2.615
10646TIP3    H131883   4.528   6.729   2.681
10646TIP3    H231884   4.566   6.832   2.577
10647TIP3   OH231885   7.038   4.982   1.090
10647TIP3    H131886   7.115   4.985   1.148
10647TIP3    H231887   7.009   5.074   1.085
10648TIP3   OH231888   6.053   1.374   3.724
10648TIP3    H131889   6.149   1.373   3.717
10648TIP3    H231890   6.026   1.448   3.670
10649TIP3   OH231891   1.758   0.506   1.619
10649TIP3    H131892   1.845   0.546   1.625
10649TIP3    H231893   1.726   0.533   1.533
10650TIP3   OH231894   6.017   3.235   6.721
10650TIP3    H131895   6.030   3.306   6.659
10650TIP3    H231896   6.000   3.278   6.804
10651TIP3   OH231897   7.169   2.733   3.115
10651TIP3    H131898   7.216   2.672   3.171
10651TIP3    H231899   7.172   2.816   3.163
10652TIP3   OH231900   2.729   5.587   4.957
10652TIP3    H131901   2.682   5.669   4.973
10652TIP3    H231902   2.768   5.598   4.870
10653TIP3   OH231903   8.141   4.452   0.785
10653TIP3    H131904   8.123   4.359   0.771
10653TIP3    H231905   8.054   4.493   0.783
10654TIP3   OH231906   1.906   0.040   0.750
10654TIP3    H131907   1.928  -0.031   0.690
10654TIP3    H231908   1.964   0.027   0.825
10655TIP3   OH231909   0.362   4.966   6.612
10655TIP3    H131910   0.433   5.021   6.644
10655TIP3    H231911   0.406   4.890   6.572
10656TIP3   OH231912   5.610   6.896   1.664
10656TIP3    H131913   5.688   6.886   1.718
10656TIP3    H231914   5.644   6.908   1.575
10657TIP3   OH231915   0.367   0.505   1.014
10657TIP3    H131916   0.425   0.573   1.046
10657TIP3    H231917   0.415   0.465   0.941
10658TIP3   OH231918   8.247   5.461   4.740
10658TIP3    H131919   8.317   5.396   4.756
10658TIP3    H231920   8.264   5.530   4.803
10659TIP3   OH231921   8.208   5.145   3.873
10659TIP3    H131922   8.269   5.084   3.915
10659TIP3    H231923   8.242   5.232   3.895
10660TIP3   OH231924   4.676   6.934   1.404
10660TIP3    H131925   4.771   6.935   1.390
10660TIP3    H231926   4.658   6.849   1.443
10661TIP3   OH231927   5.533   3.456   0.199
10661TIP3    H131928   5.596   3.423   0.263
10661TIP3    H231929   5.568   3.541   0.172
10662TIP3   OH231930   4.855   2.292   1.692
10662TIP3    H131931   4.904   2.329   1.619
10662TIP3    H231932   4.766   2.279   1.657
10663TIP3   OH231933   1.494   1.347   1.945
10663TIP3    H131934   1.525   1.405   2.015
10663TIP3    H231935   1.428   1.292   1.987
10664TIP3   OH231936   1.933   4.895   4.511
10664TIP3    H131937   1.953   4.981   4.548
10664TIP3    H231938   1.846   4.874   4.545
10665TIP3   OH231939   5.961   7.130   2.796
10665TIP3    H131940   5.965   7.225   2.807
10665TIP3    H231941   5.886   7.116   2.738
10666TIP3   OH231942   6.784   2.572   0.982
10666TIP3    H131943   6.785   2.614   1.068
10666TIP3    H231944   6.724   2.499   0.992
10667TIP3   OH231945   4.102   1.574   2.295
10667TIP3    H131946   4.122   1.588   2.388
10667TIP3    H231947   4.101   1.662   2.257
10668TIP3   OH231948   5.672   3.875   2.876
10668TIP3    H131949   5.602   3.939   2.865
10668TIP3    H231950   5.748   3.915   2.834
10669TIP3   OH231951   4.794   7.151   5.261
10669TIP3    H131952   4.861   7.215   5.282
10669TIP3    H231953   4.842   7.072   5.236
10670TIP3   OH231954   4.087   6.162   2.723
10670TIP3    H131955   4.128   6.082   2.755
10670TIP3    H231956   4.000   6.134   2.696
10671TIP3   OH231957   4.576   4.220   6.744
10671TIP3    H131958   4.611   4.150   6.798
10671TIP3    H231959   4.653   4.264   6.707
10672TIP3   OH231960   3.491   7.653   0.896
10672TIP3    H131961   3.440   7.716   0.948
10672TIP3    H231962   3.564   7.629   0.953
10673TIP3   OH231963   0.469   4.480   3.123
10673TIP3    H131964   0.435   4.569   3.126
10673TIP3    H231965   0.473   4.453   3.214
10674TIP3   OH231966   6.425   1.121   3.356
10674TIP3    H131967   6.458   1.145   3.270
10674TIP3    H231968   6.497   1.072   3.396
10675TIP3   OH231969   3.162   0.266   6.577
10675TIP3    H131970   3.256   0.279   6.587
10675TIP3    H231971   3.133   0.233   6.662
10676TIP3   OH231972   5.645   3.045   2.975
10676TIP3    H131973   5.660   3.057   2.881
10676TIP3    H231974   5.558   3.005   2.981
10677TIP3   OH231975   3.935   3.876   6.300
10677TIP3    H131976   3.906   3.874   6.209
10677TIP3    H231977   3.996   3.803   6.308
10678TIP3   OH231978   6.003   0.626   1.593
10678TIP3    H131979   5.913   0.600   1.614
10678TIP3    H231980   6.057   0.580   1.657
10679TIP3   OH231981   2.283   0.491   5.283
10679TIP3    H131982   2.365   0.530   5.253
10679TIP3    H231983   2.237   0.468   5.202
10680TIP3   OH231984   1.441   4.277   5.587
10680TIP3    H131985   1.512   4.268   5.524
10680TIP3    H231986   1.484   4.267   5.673
10681TIP3   OH231987   2.302   0.081   6.210
10681TIP3    H131988   2.259  -0.003   6.224
10681TIP3    H231989   2.354   0.068   6.130
10682TIP3   OH231990   6.363   0.289   4.279
10682TIP3    H131991   6.358   0.283   4.183
10682TIP3    H231992   6.272   0.288   4.307
10683TIP3   OH231993   4.117   6.346   2.917
10683TIP3    H131994   4.117   6.271   2.858
10683TIP3    H231995   4.052   6.406   2.882
10684TIP3   OH231996   5.538   1.715   5.690
10684TIP3    H131997   5.604   1.735   5.756
10684TIP3    H231998   5.539   1.791   5.632
10685TIP3   OH231999   2.118   0.335   1.746
10685TIP3    H132000   2.045   0.333   1.685
10685TIP3    H232001   2.140   0.428   1.755
10686TIP3   OH232002   5.799   2.302   2.457
10686TIP3    H132003   5.868   2.252   2.413
10686TIP3    H232004   5.774   2.369   2.393
10687TIP3   OH232005   0.127   2.975   1.198
10687TIP3    H132006   0.061   3.040   1.172
10687TIP3    H232007   0.076   2.896   1.215
10688TIP3   OH232008   7.139   0.686   3.604
10688TIP3    H132009   7.102   0.614   3.656
10688TIP3    H232010   7.083   0.761   3.625
10689TIP3   OH232011   2.815   3.723   6.636
10689TIP3    H132012   2.747   3.695   6.574
10689TIP3    H232013   2.774   3.716   6.722
10690TIP3   OH232014   1.733   0.674   4.011
10690TIP3    H132015   1.792   0.696   4.084
10690TIP3    H232016   1.751   0.582   3.993
10691TIP3   OH232017   5.294   3.417   0.820
10691TIP3    H132018   5.298   3.513   0.816
10691TIP3    H232019   5.314   3.389   0.730
10692TIP3   OH232020   4.434   5.154   2.378
10692TIP3    H132021   4.378   5.231   2.373
10692TIP3    H232022   4.401   5.105   2.453
10693TIP3   OH232023   5.259   1.864   1.377
10693TIP3    H132024   5.241   1.948   1.335
10693TIP3    H232025   5.255   1.882   1.471
10694TIP3   OH232026   3.016   4.657   1.006
10694TIP3    H132027   3.082   4.619   1.063
10694TIP3    H232028   3.008   4.747   1.035
10695TIP3   OH232029   5.283   0.291   3.335
10695TIP3    H132030   5.206   0.334   3.297
10695TIP3    H232031   5.345   0.362   3.351
10696TIP3   OH232032   5.497   4.152   1.161
10696TIP3    H132033   5.590   4.163   1.141
10696TIP3    H232034   5.466   4.240   1.181
10697TIP3   OH232035   7.565   6.966   1.486
10697TIP3    H132036   7.588   6.978   1.394
10697TIP3    H232037   7.614   6.888   1.513
10698TIP3   OH232038   1.783   6.608   1.753
10698TIP3    H132039   1.809   6.691   1.714
10698TIP3    H232040   1.793   6.544   1.683
10699TIP3   OH232041   0.248   6.745   4.459
10699TIP3    H132042   0.237   6.699   4.376
10699TIP3    H232043   0.163   6.739   4.502
10700TIP3   OH232044   4.784   0.991   0.037
10700TIP3    H132045   4.842   1.005   0.112
10700TIP3    H232046   4.817   1.051  -0.030
10701TIP3   OH232047   3.131   2.940   5.143
10701TIP3    H132048   3.155   2.961   5.234
10701TIP3    H232049   3.089   2.854   5.149
10702TIP3   OH232050   0.359   5.831   0.634
10702TIP3    H132051   0.413   5.845   0.556
10702TIP3    H232052   0.402   5.883   0.702
10703TIP3   OH232053   4.004   6.553   1.404
10703TIP3    H132054   4.011   6.466   1.442
10703TIP3    H232055   3.925   6.550   1.350
10704TIP3   OH232056   6.207   4.366   0.315
10704TIP3    H132057   6.152   4.292   0.288
10704TIP3    H232058   6.152   4.443   0.302
10705TIP3   OH232059   4.467   4.075   1.458
10705TIP3    H132060   4.556   4.079   1.495
10705TIP3    H232061   4.445   4.167   1.440
10706TIP3   OH232062   6.339   2.865   1.968
10706TIP3    H132063   6.399   2.893   2.037
10706TIP3    H232064   6.255   2.905   1.991
10707TIP3   OH232065   3.517   3.639   4.812
10707TIP3    H132066   3.539   3.583   4.737
10707TIP3    H232067   3.424   3.658   4.801
10708TIP3   OH232068   8.250   7.457   6.601
10708TIP3    H132069   8.163   7.497   6.597
10708TIP3    H232070   8.307   7.528   6.630
10709TIP3   OH232071   0.295   5.024   2.958
10709TIP3    H132072   0.255   4.943   2.925
10709TIP3    H232073   0.294   5.083   2.883
10710TIP3   OH232074   7.361   4.526   6.172
10710TIP3    H132075   7.349   4.488   6.259
10710TIP3    H232076   7.369   4.450   6.114
10711TIP3   OH232077   2.373   4.092   0.956
10711TIP3    H132078   2.421   4.008   0.955
10711TIP3    H232079   2.346   4.103   1.047
10712TIP3   OH232080   4.727   6.952   2.583
10712TIP3    H132081   4.698   7.042   2.600
10712TIP3    H232082   4.788   6.933   2.654
10713TIP3   OH232083   5.631   0.276   6.725
10713TIP3    H132084   5.655   0.330   6.649
10713TIP3    H232085   5.557   0.223   6.694
10714TIP3   OH232086   7.442   4.230   3.646
10714TIP3    H132087   7.527   4.193   3.624
10714TIP3    H232088   7.407   4.173   3.714
10715TIP3   OH232089   1.421   3.956   2.827
10715TIP3    H132090   1.480   3.931   2.898
10715TIP3    H232091   1.479   3.982   2.755
10716TIP3   OH232092   1.979   0.066   6.230
10716TIP3    H132093   1.924  -0.001   6.188
10716TIP3    H232094   2.032   0.102   6.159
10717TIP3   OH232095   6.503   2.401   6.110
10717TIP3    H132096   6.487   2.460   6.036
10717TIP3    H232097   6.571   2.341   6.079
10718TIP3   OH232098   2.706   2.315   0.061
10718TIP3    H132099   2.656   2.278   0.134
10718TIP3    H232100   2.655   2.293  -0.017
10719TIP3   OH232101   7.224   4.356   1.233
10719TIP3    H132102   7.319   4.340   1.236
10719TIP3    H232103   7.216   4.438   1.184
10720TIP3   OH232104   1.956   4.989   1.848
10720TIP3    H132105   2.027   5.026   1.900
10720TIP3    H232106   1.915   5.064   1.805
10721TIP3   OH232107   2.713   3.937   0.617
10721TIP3    H132108   2.654   4.007   0.644
10721TIP3    H232109   2.664   3.888   0.551
10722TIP3   OH232110   0.198   5.853   4.072
10722TIP3    H132111   0.251   5.901   4.135
10722TIP3    H232112   0.230   5.763   4.076
10723TIP3   OH232113   0.246   6.235   1.564
10723TIP3    H132114   0.179   6.206   1.503
10723TIP3    H232115   0.201   6.245   1.647
10724TIP3   OH232116   6.295   2.738   4.868
10724TIP3    H132117   6.271   2.730   4.960
10724TIP3    H232118   6.320   2.650   4.842
10725TIP3   OH232119   5.288   0.347   6.493
10725TIP3    H132120   5.226   0.376   6.426
10725TIP3    H232121   5.370   0.392   6.471
10726TIP3   OH232122   7.601   0.704   0.875
10726TIP3    H132123   7.521   0.711   0.823
10726TIP3    H232124   7.572   0.723   0.965
10727TIP3   OH232125   0.632   0.904   5.524
10727TIP3    H132126   0.626   0.985   5.575
10727TIP3    H232127   0.616   0.931   5.434
10728TIP3   OH232128   2.997   6.082   4.549
10728TIP3    H132129   2.904   6.104   4.560
10728TIP3    H232130   3.030   6.075   4.639
10729TIP3   OH232131   3.941   0.165   1.828
10729TIP3    H132132   3.940   0.199   1.917
10729TIP3    H232133   3.943   0.070   1.838
10730TIP3   OH232134   5.313   4.813   3.166
10730TIP3    H132135   5.407   4.816   3.144
10730TIP3    H232136   5.306   4.865   3.246
10731TIP3   OH232137   1.703   5.920   4.458
10731TIP3    H132138   1.625   5.887   4.503
10731TIP3    H232139   1.743   5.980   4.521
10732TIP3   OH232140   1.212   4.473   4.874
10732TIP3    H132141   1.118   4.465   4.862
10732TIP3    H232142   1.245   4.383   4.874
10733TIP3   OH232143   1.177   5.408   2.184
10733TIP3    H132144   1.097   5.459   2.175
10733TIP3    H232145   1.171   5.367   2.271
10734TIP3   OH232146   6.333   4.248   5.376
10734TIP3    H132147   6.345   4.315   5.442
10734TIP3    H232148   6.242   4.220   5.387
10735TIP3   OH232149   3.838   6.357   3.736
10735TIP3    H132150   3.903   6.363   3.667
10735TIP3    H232151   3.889   6.354   3.817
10736TIP3   OH232152   1.062   7.202   4.599
10736TIP3    H132153   0.984   7.172   4.646
10736TIP3    H232154   1.067   7.295   4.617
10737TIP3   OH232155   0.927   4.249   5.119
10737TIP3    H132156   0.899   4.229   5.208
10737TIP3    H232157   1.020   4.270   5.127
10738TIP3   OH232158   4.250   7.710   2.953
10738TIP3    H132159   4.277   7.801   2.938
10738TIP3    H232160   4.246   7.702   3.049
10739TIP3   OH232161   5.912   3.197   1.863
10739TIP3    H132162   5.975   3.130   1.836
10739TIP3    H232163   5.832   3.148   1.882
10740TIP3   OH232164   6.491   5.002   0.307
10740TIP3    H132165   6.544   5.049   0.243
10740TIP3    H232166   6.422   4.961   0.256
10741TIP3   OH232167   2.312   2.203   4.460
10741TIP3    H132168   2.300   2.190   4.554
10741TIP3    H232169   2.229   2.238   4.429
10742TIP3   OH232170   2.202   5.684   3.122
10742TIP3    H132171   2.186   5.768   3.077
10742TIP3    H232172   2.214   5.708   3.214
10743TIP3   OH232173   2.176   3.241   0.672
10743TIP3    H132174   2.090   3.260   0.708
10743TIP3    H232175   2.163   3.162   0.619
10744TIP3   OH232176   3.159   5.668   5.911
10744TIP3    H132177   3.069   5.636   5.901
10744TIP3    H232178   3.196   5.661   5.823
10745TIP3   OH232179   8.271   2.276   0.204
10745TIP3    H132180   8.361   2.273   0.171
10745TIP3    H232181   8.217   2.258   0.127
10746TIP3   OH232182   7.583   0.145   4.803
10746TIP3    H132183   7.659   0.154   4.746
10746TIP3    H232184   7.587   0.221   4.860
10747TIP3   OH232185   4.063   0.719   5.854
10747TIP3    H132186   3.998   0.678   5.797
10747TIP3    H232187   4.026   0.710   5.942
10748TIP3   OH232188   7.155   5.714   2.221
10748TIP3    H132189   7.115   5.654   2.158
10748TIP3    H232190   7.161   5.663   2.302
10749TIP3   OH232191   3.013   2.469   3.141
10749TIP3    H132192   2.984   2.392   3.093
10749TIP3    H232193   3.104   2.482   3.112
10750TIP3   OH232194   7.499   6.215   2.990
10750TIP3    H132195   7.594   6.210   2.998
10750TIP3    H232196   7.479   6.181   2.903
10751TIP3   OH232197   2.134   3.817   0.832
10751TIP3    H132198   2.125   3.752   0.901
10751TIP3    H232199   2.045   3.833   0.802
10752TIP3   OH232200   5.578   6.146   2.416
10752TIP3    H132201   5.643   6.200   2.460
10752TIP3    H232202   5.628   6.070   2.384
10753TIP3   OH232203   8.256   4.134   4.539
10753TIP3    H132204   8.337   4.083   4.533
10753TIP3    H232205   8.200   4.083   4.598
10754TIP3   OH232206   2.174   7.255   4.433
10754TIP3    H132207   2.118   7.249   4.511
10754TIP3    H232208   2.260   7.280   4.467
10755TIP3   OH232209   6.653   4.533   0.385
10755TIP3    H132210   6.680   4.617   0.424
10755TIP3    H232211   6.566   4.552   0.349
10756TIP3   OH232212   6.816   4.429   3.374
10756TIP3    H132213   6.882   4.464   3.434
10756TIP3    H232214   6.839   4.467   3.289
10757TIP3   OH232215   5.063   1.376   5.811
10757TIP3    H132216   5.127   1.344   5.747
10757TIP3    H232217   5.072   1.316   5.885
10758TIP3   OH232218   8.104   0.772   6.102
10758TIP3    H132219   8.120   0.728   6.019
10758TIP3    H232220   8.039   0.718   6.146
10759TIP3   OH232221   2.757   6.078   0.723
10759TIP3    H132222   2.787   6.115   0.806
10759TIP3    H232223   2.761   6.151   0.661
10760TIP3   OH232224   3.337   6.828   2.223
10760TIP3    H132225   3.271   6.895   2.203
10760TIP3    H232226   3.365   6.849   2.312
10761TIP3   OH232227   1.012   1.301   2.235
10761TIP3    H132228   0.986   1.377   2.183
10761TIP3    H232229   1.081   1.259   2.184
10762TIP3   OH232230   7.360   5.108   1.648
10762TIP3    H132231   7.428   5.045   1.623
10762TIP3    H232232   7.308   5.120   1.569
10763TIP3   OH232233   0.033   3.641   0.976
10763TIP3    H132234  -0.039   3.661   1.035
10763TIP3    H232235   0.073   3.726   0.956
10764TIP3   OH232236   1.956   6.811   4.212
10764TIP3    H132237   1.961   6.869   4.288
10764TIP3    H232238   2.020   6.847   4.151
10765TIP3   OH232239   0.301   6.951   4.022
10765TIP3    H132240   0.357   7.010   3.973
10765TIP3    H232241   0.305   6.868   3.974
10766TIP3   OH232242   1.220   5.180   6.532
10766TIP3    H132243   1.205   5.089   6.506
10766TIP3    H232244   1.140   5.226   6.505
10767TIP3   OH232245   4.632   3.358   4.874
10767TIP3    H132246   4.595   3.444   4.893
10767TIP3    H232247   4.556   3.299   4.870
10768TIP3   OH232248   6.822   1.968   3.354
10768TIP3    H132249   6.742   1.924   3.382
10768TIP3    H232250   6.793   2.047   3.310
10769TIP3   OH232251   6.751   5.377   3.266
10769TIP3    H132252   6.716   5.291   3.244
10769TIP3    H232253   6.685   5.415   3.324
10770TIP3   OH232254   6.808   5.874   5.264
10770TIP3    H132255   6.740   5.813   5.236
10770TIP3    H232256   6.791   5.954   5.213
10771TIP3   OH232257   4.194   0.606   0.075
10771TIP3    H132258   4.289   0.615   0.065
10771TIP3    H232259   4.178   0.619   0.168
10772TIP3   OH232260   6.233   5.009   3.740
10772TIP3    H132261   6.178   5.086   3.747
10772TIP3    H232262   6.205   4.952   3.812
10773TIP3   OH232263   5.967   1.453   2.290
10773TIP3    H132264   6.038   1.477   2.349
10773TIP3    H232265   5.899   1.518   2.307
10774TIP3   OH232266  -0.005   7.154   4.681
10774TIP3    H132267   0.071   7.111   4.641
10774TIP3    H232268  -0.060   7.180   4.607
10775TIP3   OH232269   7.560   0.243   0.068
10775TIP3    H132270   7.519   0.317   0.111
10775TIP3    H232271   7.548   0.259  -0.025
10776TIP3   OH232272   0.258   2.408   1.214
10776TIP3    H132273   0.172   2.372   1.192
10776TIP3    H232274   0.239   2.481   1.273
10777TIP3   OH232275   5.765   6.770   0.811
10777TIP3    H132276   5.743   6.771   0.904
10777TIP3    H232277   5.802   6.857   0.794
10778TIP3   OH232278   4.205   4.692   1.145
10778TIP3    H132279   4.119   4.698   1.103
10778TIP3    H232280   4.187   4.662   1.233
10779TIP3   OH232281   3.576   6.834   1.514
10779TIP3    H132282   3.632   6.832   1.591
10779TIP3    H232283   3.635   6.819   1.441
10780TIP3   OH232284   0.640   7.631   4.855
10780TIP3    H132285   0.696   7.695   4.811
10780TIP3    H232286   0.556   7.638   4.810
10781TIP3   OH232287   0.180   0.886   6.441
10781TIP3    H132288   0.221   0.802   6.417
10781TIP3    H232289   0.243   0.952   6.413
10782TIP3   OH232290   7.838   0.966   6.458
10782TIP3    H132291   7.921   0.917   6.456
10782TIP3    H232292   7.831   0.997   6.548
10783TIP3   OH232293   8.234   2.758   1.840
10783TIP3    H132294   8.165   2.748   1.774
10783TIP3    H232295   8.197   2.821   1.902
10784TIP3   OH232296   2.097   0.842   5.194
10784TIP3    H132297   2.178   0.886   5.169
10784TIP3    H232298   2.042   0.846   5.116
10785TIP3   OH232299   5.544   6.427   3.154
10785TIP3    H132300   5.491   6.393   3.081
10785TIP3    H232301   5.629   6.446   3.114
10786TIP3   OH232302   2.914   2.723   3.167
10786TIP3    H132303   2.989   2.777   3.191
10786TIP3    H232304   2.952   2.649   3.120
10787TIP3   OH232305   7.106   0.439   3.760
10787TIP3    H132306   7.035   0.375   3.768
10787TIP3    H232307   7.170   0.413   3.826
10788TIP3   OH232308   0.211   1.672   3.949
10788TIP3    H132309   0.260   1.642   4.026
10788TIP3    H232310   0.125   1.631   3.958
10789TIP3   OH232311   4.586   0.898   1.158
10789TIP3    H132312   4.594   0.878   1.251
10789TIP3    H232313   4.557   0.989   1.155
10790TIP3   OH232314   1.029   1.820   1.711
10790TIP3    H132315   1.034   1.873   1.791
10790TIP3    H232316   1.011   1.883   1.642
10791TIP3   OH232317   4.076   5.723   2.485
10791TIP3    H132318   4.167   5.709   2.459
10791TIP3    H232319   4.077   5.709   2.580
10792TIP3   OH232320   2.175   2.945   0.774
10792TIP3    H132321   2.124   2.864   0.775
10792TIP3    H232322   2.176   2.971   0.681
10793TIP3   OH232323   0.416   5.316   4.417
10793TIP3    H132324   0.404   5.315   4.322
10793TIP3    H232325   0.508   5.294   4.429
10794TIP3   OH232326   6.704   5.985   0.859
10794TIP3    H132327   6.686   5.937   0.778
10794TIP3    H232328   6.636   5.955   0.920
10795TIP3   OH232329   4.317   5.702   5.806
10795TIP3    H132330   4.325   5.683   5.713
10795TIP3    H232331   4.229   5.675   5.829
10796TIP3   OH232332   5.852   3.870   1.207
10796TIP3    H132333   5.806   3.833   1.131
10796TIP3    H232334   5.845   3.802   1.274
10797TIP3   OH232335   7.654   4.053   4.531
10797TIP3    H132336   7.579   4.044   4.472
10797TIP3    H232337   7.716   3.985   4.502
10798TIP3   OH232338   1.484   3.653   5.945
10798TIP3    H132339   1.494   3.748   5.943
10798TIP3    H232340   1.404   3.636   5.896
10799TIP3   OH232341   5.937   7.867   1.186
10799TIP3    H132342   5.993   7.883   1.110
10799TIP3    H232343   5.984   7.801   1.237
10800TIP3   OH232344   5.825   2.953   1.256
10800TIP3    H132345   5.868   3.002   1.185
10800TIP3    H232346   5.760   3.014   1.291
10801TIP3   OH232347   5.422   4.838   3.864
10801TIP3    H132348   5.328   4.844   3.852
10801TIP3    H232349   5.458   4.904   3.804
10802TIP3   OH232350   5.828   0.519   0.863
10802TIP3    H132351   5.737   0.547   0.876
10802TIP3    H232352   5.877   0.564   0.932
10803TIP3   OH232353   7.025   1.378   3.773
10803TIP3    H132354   6.938   1.342   3.754
10803TIP3    H232355   7.007   1.464   3.812
10804TIP3   OH232356   6.113   7.289   0.566
10804TIP3    H132357   6.191   7.343   0.580
10804TIP3    H232358   6.041   7.344   0.596
10805TIP3   OH232359   0.571   4.468   6.635
10805TIP3    H132360   0.499   4.411   6.607
10805TIP3    H232361   0.624   4.412   6.692
10806TIP3   OH232362   1.564   5.854   2.017
10806TIP3    H132363   1.504   5.928   2.005
10806TIP3    H232364   1.507   5.777   2.015
10807TIP3   OH232365   0.071   6.622   5.934
10807TIP3    H132366   0.023   6.541   5.952
10807TIP3    H232367   0.162   6.594   5.923
10808TIP3   OH232368   6.884   0.764   0.953
10808TIP3    H132369   6.945   0.697   0.921
10808TIP3    H232370   6.885   0.831   0.885
10809TIP3   OH232371   3.956   0.874   3.061
10809TIP3    H132372   3.881   0.839   3.108
10809TIP3    H232373   3.948   0.841   2.972
10810TIP3   OH232374   6.209   1.324   0.677
10810TIP3    H132375   6.201   1.389   0.608
10810TIP3    H232376   6.121   1.288   0.687
10811TIP3   OH232377   0.573   0.105   0.950
10811TIP3    H132378   0.521   0.085   0.872
10811TIP3    H232379   0.644   0.041   0.949
10812TIP3   OH232380   6.641   5.365   2.244
10812TIP3    H132381   6.546   5.373   2.250
10812TIP3    H232382   6.673   5.455   2.241
10813TIP3   OH232383   1.152   5.321   5.298
10813TIP3    H132384   1.182   5.251   5.357
10813TIP3    H232385   1.118   5.388   5.357
10814TIP3   OH232386   1.585   0.592   2.506
10814TIP3    H132387   1.598   0.656   2.436
10814TIP3    H232388   1.493   0.600   2.530
10815TIP3   OH232389   7.065   5.809   5.826
10815TIP3    H132390   7.143   5.819   5.772
10815TIP3    H232391   7.039   5.718   5.812
10816TIP3   OH232392   4.806   0.663   2.521
10816TIP3    H132393   4.853   0.744   2.539
10816TIP3    H232394   4.873   0.602   2.490
10817TIP3   OH232395   3.675   3.181   6.044
10817TIP3    H132396   3.639   3.113   6.101
10817TIP3    H232397   3.755   3.210   6.088
10818TIP3   OH232398   6.564   0.443   5.377
10818TIP3    H132399   6.645   0.487   5.351
10818TIP3    H232400   6.496   0.488   5.327
10819TIP3   OH232401   0.630   2.312   5.910
10819TIP3    H132402   0.633   2.404   5.935
10819TIP3    H232403   0.611   2.266   5.991
10820TIP3   OH232404   0.866   7.395   6.409
10820TIP3    H132405   0.787   7.405   6.356
10820TIP3    H232406   0.835   7.391   6.499
10821TIP3   OH232407   4.258   4.335   0.356
10821TIP3    H132408   4.179   4.281   0.358
10821TIP3    H232409   4.329   4.271   0.349
10822TIP3   OH232410   2.131   5.556   5.622
10822TIP3    H132411   2.102   5.503   5.548
10822TIP3    H232412   2.175   5.631   5.582
10823TIP3   OH232413   5.913   1.938   2.680
10823TIP3    H132414   5.921   1.908   2.590
10823TIP3    H232415   5.933   2.032   2.675
10824TIP3   OH232416   7.545   2.760   2.399
10824TIP3    H132417   7.473   2.777   2.339
10824TIP3    H232418   7.624   2.778   2.348
10825TIP3   OH232419   4.792   5.152   0.439
10825TIP3    H132420   4.825   5.119   0.355
10825TIP3    H232421   4.708   5.192   0.417
10826TIP3   OH232422   4.859   7.805   6.396
10826TIP3    H132423   4.766   7.786   6.383
10826TIP3    H232424   4.898   7.720   6.419
10827TIP3   OH232425   3.073   4.865   6.597
10827TIP3    H132426   3.023   4.892   6.674
10827TIP3    H232427   3.075   4.943   6.541
10828TIP3   OH232428   3.975   6.463   6.611
10828TIP3    H132429   4.063   6.495   6.629
10828TIP3    H232430   3.919   6.511   6.672
10829TIP3   OH232431   5.309   4.192   3.379
10829TIP3    H132432   5.360   4.222   3.455
10829TIP3    H232433   5.224   4.236   3.388
10830TIP3   OH232434   1.990   7.394   0.797
10830TIP3    H132435   1.952   7.448   0.727
10830TIP3    H232436   2.084   7.396   0.780
10831TIP3   OH232437   7.096   6.393   3.540
10831TIP3    H132438   7.115   6.404   3.447
10831TIP3    H232439   7.004   6.417   3.549
10832TIP3   OH232440   0.119   3.269   6.052
10832TIP3    H132441   0.194   3.230   6.008
10832TIP3    H232442   0.079   3.325   5.985
10833TIP3   OH232443   7.294   2.685   6.107
10833TIP3    H132444   7.386   2.695   6.128
10833TIP3    H232445   7.278   2.750   6.038
10834TIP3   OH232446   7.911   1.097   3.077
10834TIP3    H132447   7.977   1.068   3.015
10834TIP3    H232448   7.955   1.162   3.132
10835TIP3   OH232449   1.525   7.523   2.485
10835TIP3    H132450   1.524   7.520   2.580
10835TIP3    H232451   1.550   7.613   2.463
10836TIP3   OH232452   0.913   5.278   2.909
10836TIP3    H132453   0.967   5.236   2.976
10836TIP3    H232454   0.835   5.222   2.903
10837TIP3   OH232455   8.077   0.787   1.209
10837TIP3    H132456   8.150   0.815   1.154
10837TIP3    H232457   8.116   0.766   1.293
10838TIP3   OH232458   3.022   7.305   1.350
10838TIP3    H132459   3.100   7.361   1.354
10838TIP3    H232460   2.960   7.354   1.296
10839TIP3   OH232461   2.913   7.545   5.011
10839TIP3    H132462   2.888   7.621   5.064
10839TIP3    H232463   2.996   7.515   5.049
10840TIP3   OH232464   2.111   0.989   3.489
10840TIP3    H132465   2.204   0.987   3.466
10840TIP3    H232466   2.074   0.911   3.447
10841TIP3   OH232467   2.590   7.093   0.990
10841TIP3    H132468   2.582   7.061   0.900
10841TIP3    H232469   2.663   7.156   0.986
10842TIP3   OH232470   6.103   0.213   6.681
10842TIP3    H132471   6.094   0.128   6.638
10842TIP3    H232472   6.119   0.275   6.609
10843TIP3   OH232473   4.772   3.023   2.579
10843TIP3    H132474   4.700   2.959   2.581
10843TIP3    H232475   4.728   3.108   2.586
10844TIP3   OH232476   2.004   7.770   3.643
10844TIP3    H132477   1.942   7.762   3.571
10844TIP3    H232478   1.963   7.725   3.716
10845TIP3   OH232479   0.960   3.577   0.666
10845TIP3    H132480   1.013   3.656   0.661
10845TIP3    H232481   1.014   3.516   0.717
10846TIP3   OH232482   2.378   6.804   0.920
10846TIP3    H132483   2.326   6.874   0.881
10846TIP3    H232484   2.465   6.816   0.883
10847TIP3   OH232485   5.205   2.102   3.590
10847TIP3    H132486   5.262   2.063   3.524
10847TIP3    H232487   5.180   2.186   3.553
10848TIP3   OH232488   2.577   1.698   6.810
10848TIP3    H132489   2.530   1.741   6.739
10848TIP3    H232490   2.534   1.728   6.890
10849TIP3   OH232491   1.038   5.408   3.539
10849TIP3    H132492   1.003   5.426   3.626
10849TIP3    H232493   0.963   5.381   3.487
10850TIP3   OH232494   2.043   4.495   6.685
10850TIP3    H132495   2.004   4.471   6.769
10850TIP3    H232496   1.979   4.553   6.644
10851TIP3   OH232497   5.871   5.957   5.395
10851TIP3    H132498   5.955   5.933   5.357
10851TIP3    H232499   5.859   6.049   5.369
10852TIP3   OH232500   5.770   7.449   6.429
10852TIP3    H132501   5.714   7.506   6.482
10852TIP3    H232502   5.830   7.509   6.384
10853TIP3   OH232503   2.914   5.138   4.984
10853TIP3    H132504   2.878   5.192   5.055
10853TIP3    H232505   2.889   5.183   4.904
10854TIP3   OH232506   8.266   4.523   6.293
10854TIP3    H132507   8.222   4.446   6.259
10854TIP3    H232508   8.202   4.594   6.285
10855TIP3   OH232509   0.730   3.794   6.334
10855TIP3    H132510   0.732   3.724   6.270
10855TIP3    H232511   0.720   3.749   6.418
10856TIP3   OH232512   3.424   7.177   4.124
10856TIP3    H132513   3.469   7.248   4.169
10856TIP3    H232514   3.332   7.186   4.151
10857TIP3   OH232515   7.522   3.560   5.637
10857TIP3    H132516   7.449   3.556   5.698
10857TIP3    H232517   7.597   3.585   5.691
10858TIP3   OH232518   0.976   4.007   5.868
10858TIP3    H132519   1.017   3.934   5.915
10858TIP3    H232520   0.998   4.084   5.921
10859TIP3   OH232521   1.334   3.369   3.279
10859TIP3    H132522   1.339   3.464   3.293
10859TIP3    H232523   1.248   3.354   3.241
10860TIP3   OH232524   2.378   3.862   3.995
10860TIP3    H132525   2.465   3.841   4.026
10860TIP3    H232526   2.358   3.947   4.036
10861TIP3   OH232527   6.106   6.473   4.470
10861TIP3    H132528   6.028   6.505   4.516
10861TIP3    H232529   6.178   6.526   4.504
10862TIP3   OH232530   5.359   2.764   2.716
10862TIP3    H132531   5.320   2.790   2.633
10862TIP3    H232532   5.291   2.712   2.760
10863TIP3   OH232533   0.993   7.027   6.411
10863TIP3    H132534   1.076   7.049   6.368
10863TIP3    H232535   1.019   6.979   6.490
10864TIP3   OH232536   6.650   5.216   3.789
10864TIP3    H132537   6.731   5.165   3.793
10864TIP3    H232538   6.679   5.307   3.799
10865TIP3   OH232539   5.950   7.762   5.372
10865TIP3    H132540   5.892   7.753   5.448
10865TIP3    H232541   6.031   7.798   5.408
10866TIP3   OH232542   0.489   5.426   0.054
10866TIP3    H132543   0.467   5.419  -0.039
10866TIP3    H232544   0.481   5.336   0.087
10867TIP3   OH232545   1.088   3.058   4.073
10867TIP3    H132546   1.003   3.098   4.091
10867TIP3    H232547   1.089   3.044   3.979
10868TIP3   OH232548   7.863   4.185   2.248
10868TIP3    H132549   7.834   4.232   2.326
10868TIP3    H232550   7.860   4.250   2.178
10869TIP3   OH232551   3.318   0.985   5.914
10869TIP3    H132552   3.375   0.961   5.841
10869TIP3    H232553   3.235   0.941   5.896
10870TIP3   OH232554   3.139   7.543   5.499
10870TIP3    H132555   3.103   7.630   5.516
10870TIP3    H232556   3.066   7.494   5.460
10871TIP3   OH232557   3.216   5.470   1.833
10871TIP3    H132558   3.202   5.376   1.824
10871TIP3    H232559   3.129   5.506   1.850
10872TIP3   OH232560   7.523   6.242   1.551
10872TIP3    H132561   7.538   6.160   1.598
10872TIP3    H232562   7.570   6.232   1.469
10873TIP3   OH232563   6.963   4.798   4.922
10873TIP3    H132564   6.926   4.850   4.851
10873TIP3    H232565   6.887   4.765   4.971
10874TIP3   OH232566   2.537   7.819   4.776
10874TIP3    H132567   2.594   7.834   4.852
10874TIP3    H232568   2.578   7.746   4.729
10875TIP3   OH232569   2.309   4.454   0.108
10875TIP3    H132570   2.301   4.471   0.014
10875TIP3    H232571   2.353   4.369   0.113
10876TIP3   OH232572   5.342   1.803   2.150
10876TIP3    H132573   5.339   1.799   2.245
10876TIP3    H232574   5.366   1.893   2.129
10877TIP3   OH232575   4.812   7.572   0.033
10877TIP3    H132576   4.906   7.587   0.023
10877TIP3    H232577   4.772   7.658   0.020
10878TIP3   OH232578   5.526   2.990   0.676
10878TIP3    H132579   5.584   3.021   0.606
10878TIP3    H232580   5.586   2.965   0.746
10879TIP3   OH232581   1.414   2.420   3.074
10879TIP3    H132582   1.470   2.491   3.102
10879TIP3    H232583   1.470   2.343   3.074
10880TIP3   OH232584   4.958   1.917   0.375
10880TIP3    H132585   4.962   2.012   0.385
10880TIP3    H232586   5.050   1.891   0.365
10881TIP3   OH232587   1.980   2.215   4.172
10881TIP3    H132588   2.029   2.151   4.120
10881TIP3    H232589   1.893   2.218   4.131
10882TIP3   OH232590   4.116   4.634   0.804
10882TIP3    H132591   4.143   4.549   0.771
10882TIP3    H232592   4.055   4.614   0.876
10883TIP3   OH232593   3.887   6.383   5.998
10883TIP3    H132594   3.895   6.377   5.903
10883TIP3    H232595   3.865   6.475   6.015
10884TIP3   OH232596   4.411   2.973   6.230
10884TIP3    H132597   4.501   2.978   6.262
10884TIP3    H232598   4.373   3.057   6.253
10885TIP3   OH232599   4.943   7.755   0.506
10885TIP3    H132600   5.033   7.731   0.487
10885TIP3    H232601   4.915   7.694   0.574
10886TIP3   OH232602   4.622   3.770   2.375
10886TIP3    H132603   4.681   3.745   2.304
10886TIP3    H232604   4.611   3.865   2.365
10887TIP3   OH232605   0.908   0.356   1.983
10887TIP3    H132606   0.833   0.414   1.974
10887TIP3    H232607   0.954   0.387   2.061
10888TIP3   OH232608   3.239   3.245   2.665
10888TIP3    H132609   3.294   3.323   2.674
10888TIP3    H232610   3.264   3.209   2.579
10889TIP3   OH232611   4.603   2.183   1.055
10889TIP3    H132612   4.561   2.258   1.012
10889TIP3    H232613   4.695   2.208   1.062
10890TIP3   OH232614   1.618   3.559   5.405
10890TIP3    H132615   1.534   3.594   5.435
10890TIP3    H232616   1.667   3.636   5.375
10891TIP3   OH232617   1.725   6.250   6.731
10891TIP3    H132618   1.675   6.168   6.732
10891TIP3    H232619   1.658   6.319   6.738
10892TIP3   OH232620   3.032   0.905   5.885
10892TIP3    H132621   3.040   0.868   5.797
10892TIP3    H232622   2.995   0.992   5.872
10893TIP3   OH232623   2.012   3.778   6.360
10893TIP3    H132624   1.973   3.705   6.408
10893TIP3    H232625   1.977   3.770   6.271
10894TIP3   OH232626  -0.005   4.697   3.281
10894TIP3    H132627  -0.002   4.793   3.280
10894TIP3    H232628   0.087   4.671   3.278
10895TIP3   OH232629   2.010   0.933   4.160
10895TIP3    H132630   2.070   0.923   4.234
10895TIP3    H232631   2.066   0.930   4.082
10896TIP3   OH232632   3.616   3.516   3.523
10896TIP3    H132633   3.552   3.532   3.592
10896TIP3    H232634   3.697   3.557   3.555
10897TIP3   OH232635   6.982   1.825   2.525
10897TIP3    H132636   7.057   1.771   2.552
10897TIP3    H232637   6.946   1.779   2.449
10898TIP3   OH232638   0.662   0.421   3.668
10898TIP3    H132639   0.732   0.360   3.644
10898TIP3    H232640   0.581   0.370   3.659
10899TIP3   OH232641   3.823   1.420   3.688
10899TIP3    H132642   3.781   1.430   3.774
10899TIP3    H232643   3.916   1.418   3.707
10900TIP3   OH232644   7.620   7.450   0.336
10900TIP3    H132645   7.529   7.420   0.335
10900TIP3    H232646   7.640   7.468   0.244
10901TIP3   OH232647   7.054   7.750   3.190
10901TIP3    H132648   7.103   7.818   3.143
10901TIP3    H232649   7.082   7.761   3.281
10902TIP3   OH232650   1.415   4.928   6.760
10902TIP3    H132651   1.386   4.836   6.767
10902TIP3    H232652   1.503   4.922   6.723
10903TIP3   OH232653   4.009   4.753   0.397
10903TIP3    H132654   4.085   4.782   0.447
10903TIP3    H232655   4.045   4.700   0.326
10904TIP3   OH232656   3.604   4.498   3.769
10904TIP3    H132657   3.602   4.530   3.858
10904TIP3    H232658   3.549   4.420   3.770
10905TIP3   OH232659   1.133   1.474   4.849
10905TIP3    H132660   1.152   1.466   4.942
10905TIP3    H232661   1.070   1.403   4.832
10906TIP3   OH232662   0.626   2.739   3.676
10906TIP3    H132663   0.640   2.832   3.660
10906TIP3    H232664   0.547   2.735   3.730
10907TIP3   OH232665   2.641   3.684   3.348
10907TIP3    H132666   2.588   3.623   3.297
10907TIP3    H232667   2.612   3.671   3.439
10908TIP3   OH232668   2.667   6.451   5.062
10908TIP3    H132669   2.756   6.443   5.027
10908TIP3    H232670   2.677   6.509   5.138
10909TIP3   OH232671   6.091   5.167   3.357
10909TIP3    H132672   6.169   5.221   3.346
10909TIP3    H232673   6.021   5.229   3.379
10910TIP3   OH232674   4.924   4.441   1.776
10910TIP3    H132675   4.892   4.470   1.690
10910TIP3    H232676   4.991   4.505   1.799
10911TIP3   OH232677   1.321   3.888   6.702
10911TIP3    H132678   1.384   3.824   6.670
10911TIP3    H232679   1.352   3.910   6.790
10912TIP3   OH232680   4.143   4.128   0.155
10912TIP3    H132681   4.051   4.146   0.135
10912TIP3    H232682   4.140   4.051   0.212
10913TIP3   OH232683   5.897   7.254   5.324
10913TIP3    H132684   5.950   7.333   5.319
10913TIP3    H232685   5.879   7.231   5.233
10914TIP3   OH232686   1.462   1.835   3.207
10914TIP3    H132687   1.461   1.928   3.229
10914TIP3    H232688   1.417   1.830   3.123
10915TIP3   OH232689   6.657   5.869   4.258
10915TIP3    H132690   6.592   5.886   4.191
10915TIP3    H232691   6.607   5.865   4.340
10916TIP3   OH232692   0.623   2.107   0.793
10916TIP3    H132693   0.639   2.196   0.825
10916TIP3    H232694   0.562   2.118   0.720
10917TIP3   OH232695   0.380   6.161   4.391
10917TIP3    H132696   0.426   6.245   4.390
10917TIP3    H232697   0.360   6.145   4.483
10918TIP3   OH232698   6.704   2.141   1.411
10918TIP3    H132699   6.760   2.196   1.356
10918TIP3    H232700   6.690   2.193   1.490
10919TIP3   OH232701   1.084   3.338   3.126
10919TIP3    H132702   1.118   3.392   3.054
10919TIP3    H232703   0.989   3.341   3.115
10920TIP3   OH232704   6.513   7.395   6.130
10920TIP3    H132705   6.546   7.463   6.189
10920TIP3    H232706   6.582   7.329   6.130
10921TIP3   OH232707   2.382   6.370   6.313
10921TIP3    H132708   2.330   6.318   6.251
10921TIP3    H232709   2.334   6.453   6.320
10922TIP3   OH232710   2.255   4.934   1.297
10922TIP3    H132711   2.162   4.952   1.287
10922TIP3    H232712   2.295   4.972   1.219
10923TIP3   OH232713   5.477   2.006   0.573
10923TIP3    H132714   5.559   2.032   0.615
10923TIP3    H232715   5.480   1.911   0.572
10924TIP3   OH232716   4.733   1.273   6.238
10924TIP3    H132717   4.743   1.338   6.308
10924TIP3    H232718   4.648   1.231   6.257
10925TIP3   OH232719   2.490   5.381   2.465
10925TIP3    H132720   2.410   5.352   2.507
10925TIP3    H232721   2.554   5.386   2.536
10926TIP3   OH232722   6.522   0.258   0.508
10926TIP3    H132723   6.553   0.167   0.499
10926TIP3    H232724   6.427   0.251   0.502
10927TIP3   OH232725   5.228   7.508   4.718
10927TIP3    H132726   5.163   7.533   4.653
10927TIP3    H232727   5.306   7.557   4.694
10928TIP3   OH232728   1.017   6.781   6.200
10928TIP3    H132729   1.104   6.741   6.193
10928TIP3    H232730   1.034   6.873   6.221
10929TIP3   OH232731   4.441   1.136   0.618
10929TIP3    H132732   4.528   1.096   0.615
10929TIP3    H232733   4.457   1.226   0.647
10930TIP3   OH232734   2.546   6.757   6.303
10930TIP3    H132735   2.455   6.757   6.332
10930TIP3    H232736   2.596   6.781   6.382
10931TIP3   OH232737   2.091   2.648   4.585
10931TIP3    H132738   2.046   2.651   4.501
10931TIP3    H232739   2.033   2.597   4.641
10932TIP3   OH232740   6.718   5.493   4.887
10932TIP3    H132741   6.783   5.480   4.956
10932TIP3    H232742   6.768   5.529   4.813
10933TIP3   OH232743   7.626   5.840   2.120
10933TIP3    H132744   7.581   5.911   2.165
10933TIP3    H232745   7.713   5.838   2.159
10934TIP3   OH232746   0.951   1.378   0.298
10934TIP3    H132747   0.921   1.373   0.389
10934TIP3    H232748   0.974   1.288   0.275
10935TIP3   OH232749   3.086   2.050   2.495
10935TIP3    H132750   3.178   2.047   2.524
10935TIP3    H232751   3.082   1.986   2.424
10936TIP3   OH232752   3.609   0.160   0.453
10936TIP3    H132753   3.593   0.186   0.363
10936TIP3    H232754   3.582   0.235   0.505
10937TIP3   OH232755   6.154   2.836   1.582
10937TIP3    H132756   6.126   2.904   1.520
10937TIP3    H232757   6.249   2.845   1.586
10938TIP3   OH232758   5.272   0.689   1.169
10938TIP3    H132759   5.223   0.771   1.175
10938TIP3    H232760   5.283   0.674   1.075
10939TIP3   OH232761   4.420   3.998   1.778
10939TIP3    H132762   4.474   4.059   1.828
10939TIP3    H232763   4.370   4.054   1.718
10940TIP3   OH232764   4.307   4.249   1.016
10940TIP3    H132765   4.354   4.200   0.950
10940TIP3    H232766   4.370   4.260   1.088
10941TIP3   OH232767   0.230   3.424   6.236
10941TIP3    H132768   0.168   3.436   6.308
10941TIP3    H232769   0.188   3.360   6.179
10942TIP3   OH232770   0.189   3.627   0.041
10942TIP3    H132771   0.096   3.611   0.028
10942TIP3    H232772   0.222   3.547   0.081
10943TIP3   OH232773   1.017   0.636   2.475
10943TIP3    H132774   1.048   0.628   2.565
10943TIP3    H232775   0.947   0.702   2.479
10944TIP3   OH232776   1.892   2.345   3.029
10944TIP3    H132777   1.910   2.399   3.106
10944TIP3    H232778   1.969   2.358   2.972
10945TIP3   OH232779   4.776   6.120   4.862
10945TIP3    H132780   4.764   6.213   4.877
10945TIP3    H232781   4.695   6.080   4.892
10946TIP3   OH232782   3.423   6.103   4.760
10946TIP3    H132783   3.454   6.026   4.713
10946TIP3    H232784   3.432   6.080   4.853
10947TIP3   OH232785   5.717   5.620   2.344
10947TIP3    H132786   5.706   5.549   2.281
10947TIP3    H232787   5.805   5.654   2.326
10948TIP3   OH232788   2.321   6.635   0.674
10948TIP3    H132789   2.226   6.641   0.665
10948TIP3    H232790   2.338   6.653   0.766
10949TIP3   OH232791   5.748   4.222   1.108
10949TIP3    H132792   5.790   4.273   1.177
10949TIP3    H232793   5.718   4.287   1.045
10950TIP3   OH232794   3.929   7.506   6.118
10950TIP3    H132795   3.890   7.503   6.031
10950TIP3    H232796   4.001   7.444   6.115
10951TIP3   OH232797   0.600   7.110   4.100
10951TIP3    H132798   0.535   7.116   4.030
10951TIP3    H232799   0.559   7.154   4.175
10952TIP3   OH232800   5.364   4.972   3.398
10952TIP3    H132801   5.317   4.921   3.465
10952TIP3    H232802   5.456   4.965   3.424
10953TIP3   OH232803   1.471   6.783   3.270
10953TIP3    H132804   1.424   6.865   3.254
10953TIP3    H232805   1.439   6.754   3.355
10954TIP3   OH232806   5.523   4.162   4.530
10954TIP3    H132807   5.601   4.129   4.487
10954TIP3    H232808   5.549   4.176   4.621
10955TIP3   OH232809   4.617   1.425   5.296
10955TIP3    H132810   4.555   1.488   5.258
10955TIP3    H232811   4.657   1.382   5.220
10956TIP3   OH232812   6.813   6.429   0.125
10956TIP3    H132813   6.887   6.489   0.134
10956TIP3    H232814   6.770   6.456   0.043
10957TIP3   OH232815   1.180   3.784   0.371
10957TIP3    H132816   1.156   3.810   0.282
10957TIP3    H232817   1.134   3.702   0.385
10958TIP3   OH232818   1.740   2.124   2.546
10958TIP3    H132819   1.744   2.090   2.456
10958TIP3    H232820   1.831   2.126   2.574
10959TIP3   OH232821   6.582   1.683   6.153
10959TIP3    H132822   6.585   1.777   6.166
10959TIP3    H232823   6.502   1.655   6.197
10960TIP3   OH232824   3.804   3.868   5.378
10960TIP3    H132825   3.837   3.957   5.366
10960TIP3    H232826   3.836   3.820   5.301
10961TIP3   OH232827   4.158   6.632   2.079
10961TIP3    H132828   4.136   6.558   2.021
10961TIP3    H232829   4.178   6.703   2.019
10962TIP3   OH232830   0.133   6.677   4.938
10962TIP3    H132831   0.085   6.595   4.932
10962TIP3    H232832   0.111   6.711   5.025
10963TIP3   OH232833   0.796   2.378   0.548
10963TIP3    H132834   0.786   2.389   0.643
10963TIP3    H232835   0.880   2.334   0.538
10964TIP3   OH232836   1.640   4.000   0.430
10964TIP3    H132837   1.562   4.054   0.444
10964TIP3    H232838   1.702   4.029   0.497
10965TIP3   OH232839   0.821   2.180   6.243
10965TIP3    H132840   0.809   2.086   6.252
10965TIP3    H232841   0.733   2.214   6.230
10966TIP3   OH232842   2.920   7.405   2.482
10966TIP3    H132843   3.014   7.386   2.482
10966TIP3    H232844   2.914   7.495   2.514
10967TIP3   OH232845   1.949   5.493   3.382
10967TIP3    H132846   1.959   5.562   3.448
10967TIP3    H232847   2.014   5.427   3.406
10968TIP3   OH232848   3.878   4.505   1.350
10968TIP3    H132849   3.832   4.582   1.317
10968TIP3    H232850   3.897   4.453   1.271
10969TIP3   OH232851   5.979   6.101   1.884
10969TIP3    H132852   6.070   6.127   1.867
10969TIP3    H232853   5.964   6.027   1.825
10970TIP3   OH232854   1.305   2.936   4.531
10970TIP3    H132855   1.212   2.955   4.528
10970TIP3    H232856   1.329   2.947   4.623
10971TIP3   OH232857   6.717   1.069   2.059
10971TIP3    H132858   6.678   0.988   2.091
10971TIP3    H232859   6.784   1.091   2.124
10972TIP3   OH232860   6.645   1.362   4.463
10972TIP3    H132861   6.585   1.357   4.388
10972TIP3    H232862   6.725   1.400   4.426
10973TIP3   OH232863   4.207   5.057   4.090
10973TIP3    H132864   4.136   5.112   4.057
10973TIP3    H232865   4.164   4.996   4.150
10974TIP3   OH232866   4.165   5.246   3.244
10974TIP3    H132867   4.171   5.320   3.303
10974TIP3    H232868   4.116   5.180   3.293
10975TIP3   OH232869   7.634   1.899   1.513
10975TIP3    H132870   7.708   1.953   1.541
10975TIP3    H232871   7.558   1.941   1.553
10976TIP3   OH232872   6.331   4.867   1.394
10976TIP3    H132873   6.348   4.792   1.337
10976TIP3    H232874   6.345   4.943   1.338
10977TIP3   OH232875   0.121   6.393   5.141
10977TIP3    H132876   0.102   6.334   5.214
10977TIP3    H232877   0.039   6.440   5.126
10978TIP3   OH232878   7.746   1.248   4.174
10978TIP3    H132879   7.734   1.160   4.209
10978TIP3    H232880   7.671   1.261   4.116
10979TIP3   OH232881   1.007   3.784   4.458
10979TIP3    H132882   1.064   3.812   4.386
10979TIP3    H232883   0.958   3.710   4.423
10980TIP3   OH232884   2.235   5.415   5.025
10980TIP3    H132885   2.298   5.425   4.954
10980TIP3    H232886   2.151   5.443   4.988
10981TIP3   OH232887   4.377   3.928   2.192
10981TIP3    H132888   4.430   3.966   2.262
10981TIP3    H232889   4.371   3.997   2.126
10982TIP3   OH232890   5.219   4.822   1.593
10982TIP3    H132891   5.268   4.893   1.634
10982TIP3    H232892   5.282   4.750   1.587
10983TIP3   OH232893   2.267   7.635   2.113
10983TIP3    H132894   2.348   7.672   2.078
10983TIP3    H232895   2.260   7.549   2.071
10984TIP3   OH232896   2.252   1.051   4.743
10984TIP3    H132897   2.176   0.994   4.751
10984TIP3    H232898   2.325   1.000   4.778
10985TIP3   OH232899   3.996   3.110   5.046
10985TIP3    H132900   3.974   3.054   5.120
10985TIP3    H232901   3.954   3.194   5.066
10986TIP3   OH232902   0.089   4.996   6.639
10986TIP3    H132903   0.183   4.998   6.627
10986TIP3    H232904   0.057   4.939   6.569
10987TIP3   OH232905   4.217   3.665   3.808
10987TIP3    H132906   4.303   3.635   3.778
10987TIP3    H232907   4.163   3.586   3.811
10988TIP3   OH232908   4.071   2.296   1.581
10988TIP3    H132909   4.010   2.289   1.655
10988TIP3    H232910   4.021   2.342   1.513
10989TIP3   OH232911   1.631   6.636   2.720
10989TIP3    H132912   1.699   6.678   2.666
10989TIP3    H232913   1.680   6.593   2.790
10990TIP3   OH232914   3.119   1.141   3.229
10990TIP3    H132915   3.209   1.117   3.206
10990TIP3    H232916   3.118   1.144   3.325
10991TIP3   OH232917   6.439   2.822   0.365
10991TIP3    H132918   6.362   2.854   0.318
10991TIP3    H232919   6.486   2.902   0.390
10992TIP3   OH232920   3.072   6.853   4.388
10992TIP3    H132921   2.980   6.873   4.370
10992TIP3    H232922   3.070   6.766   4.427
10993TIP3   OH232923   1.422   1.007   0.783
10993TIP3    H132924   1.439   1.045   0.869
10993TIP3    H232925   1.435   1.079   0.722
10994TIP3   OH232926   2.972   2.351   2.319
10994TIP3    H132927   3.059   2.319   2.296
10994TIP3    H232928   2.917   2.329   2.243
10995TIP3   OH232929   7.605   4.965   3.681
10995TIP3    H132930   7.589   4.927   3.767
10995TIP3    H232931   7.595   4.892   3.620
10996TIP3   OH232932   1.905   0.353   0.461
10996TIP3    H132933   1.959   0.416   0.413
10996TIP3    H232934   1.943   0.350   0.549
10997TIP3   OH232935   5.958   1.613   0.742
10997TIP3    H132936   5.996   1.578   0.661
10997TIP3    H232937   6.033   1.626   0.800
10998TIP3   OH232938   6.550   5.840   4.900
10998TIP3    H132939   6.583   5.847   4.810
10998TIP3    H232940   6.517   5.750   4.905
10999TIP3   OH232941   5.081   0.647   6.123
10999TIP3    H132942   5.005   0.692   6.086
10999TIP3    H232943   5.062   0.641   6.217
11000TIP3   OH232944   6.711   0.480   0.432
11000TIP3    H132945   6.788   0.453   0.482
11000TIP3    H232946   6.639   0.430   0.468
11001TIP3   OH232947   7.088   3.383   4.862
11001TIP3    H132948   6.993   3.382   4.850
11001TIP3    H232949   7.112   3.476   4.860
11002TIP3   OH232950   3.772   7.534   4.688
11002TIP3    H132951   3.862   7.506   4.670
11002TIP3    H232952   3.780   7.626   4.712
11003TIP3   OH232953   1.073   5.689   5.175
11003TIP3    H132954   0.981   5.715   5.164
11003TIP3    H232955   1.076   5.599   5.144
11004TIP3   OH232956   6.659   7.518   2.730
11004TIP3    H132957   6.740   7.486   2.769
11004TIP3    H232958   6.609   7.438   2.712
11005TIP3   OH232959   3.565   7.327   2.435
11005TIP3    H132960   3.519   7.359   2.512
11005TIP3    H232961   3.590   7.237   2.457
11006TIP3   OH232962   6.811   6.583   5.104
11006TIP3    H132963   6.722   6.585   5.138
11006TIP3    H232964   6.856   6.519   5.159
11007TIP3   OH232965   6.768   3.549   1.249
11007TIP3    H132966   6.688   3.532   1.299
11007TIP3    H232967   6.799   3.463   1.223
11008TIP3   OH232968   8.124   2.882   6.116
11008TIP3    H132969   8.064   2.868   6.044
11008TIP3    H232970   8.091   2.959   6.162
11009TIP3   OH232971   5.199   2.856   4.330
11009TIP3    H132972   5.140   2.795   4.285
11009TIP3    H232973   5.141   2.908   4.386
11010TIP3   OH232974   8.097   3.649   5.561
11010TIP3    H132975   8.053   3.723   5.604
11010TIP3    H232976   8.182   3.684   5.535
11011TIP3   OH232977   5.116   1.293   6.701
11011TIP3    H132978   5.119   1.253   6.788
11011TIP3    H232979   5.205   1.324   6.686
11012TIP3   OH232980   5.498   1.779   4.095
11012TIP3    H132981   5.515   1.788   4.001
11012TIP3    H232982   5.535   1.693   4.117
11013TIP3   OH232983   2.804   3.892   3.214
11013TIP3    H132984   2.770   3.812   3.255
11013TIP3    H232985   2.874   3.861   3.157
11014TIP3   OH232986   8.227   6.651   0.728
11014TIP3    H132987   8.313   6.610   0.731
11014TIP3    H232988   8.241   6.738   0.766
11015TIP3   OH232989   1.955   7.481   5.654
11015TIP3    H132990   2.019   7.467   5.584
11015TIP3    H232991   1.996   7.545   5.712
11016TIP3   OH232992   5.941   2.451   1.425
11016TIP3    H132993   5.922   2.542   1.403
11016TIP3    H232994   5.995   2.456   1.503
11017TIP3   OH232995   0.149   7.176   1.510
11017TIP3    H132996   0.100   7.110   1.560
11017TIP3    H232997   0.199   7.223   1.576
11018TIP3   OH232998   6.192   0.537   1.759
11018TIP3    H132999   6.252   0.531   1.684
11018TIP3    H233000   6.238   0.594   1.821
11019TIP3   OH233001   0.329   6.512   6.419
11019TIP3    H133002   0.268   6.582   6.393
11019TIP3    H233003   0.363   6.541   6.503
11020TIP3   OH233004   2.850   0.050   1.155
11020TIP3    H133005   2.779   0.115   1.153
11020TIP3    H233006   2.886   0.056   1.243
11021TIP3   OH233007   5.859   0.230   1.703
11021TIP3    H133008   5.908   0.279   1.637
11021TIP3    H233009   5.825   0.297   1.762
11022TIP3   OH233010   1.796   3.740   1.854
11022TIP3    H133011   1.722   3.794   1.884
11022TIP3    H233012   1.784   3.734   1.759
11023TIP3   OH233013   2.007   7.386   2.370
11023TIP3    H133014   1.914   7.401   2.389
11023TIP3    H233015   2.043   7.473   2.353
11024TIP3   OH233016   5.710   1.789   0.425
11024TIP3    H133017   5.794   1.780   0.379
11024TIP3    H233018   5.712   1.877   0.463
11025TIP3   OH233019   6.330   2.570   4.277
11025TIP3    H133020   6.316   2.570   4.372
11025TIP3    H233021   6.242   2.580   4.240
11026TIP3   OH233022   7.989   3.546   5.824
11026TIP3    H133023   8.052   3.536   5.753
11026TIP3    H233024   7.961   3.457   5.844
11027TIP3   OH233025   6.234   4.464   1.251
11027TIP3    H133026   6.186   4.393   1.208
11027TIP3    H233027   6.166   4.515   1.297
11028TIP3   OH233028   2.114   0.054   4.838
11028TIP3    H133029   2.152   0.023   4.920
11028TIP3    H233030   2.190   0.080   4.785
11029TIP3   OH233031   4.616   6.285   1.040
11029TIP3    H133032   4.644   6.195   1.024
11029TIP3    H233033   4.520   6.281   1.040
11030TIP3   OH233034   0.779   3.041   3.926
11030TIP3    H133035   0.807   2.958   3.888
11030TIP3    H233036   0.813   3.039   4.016
11031TIP3   OH233037   1.318   1.936   5.095
11031TIP3    H133038   1.382   1.978   5.152
11031TIP3    H233039   1.233   1.959   5.133
11032TIP3   OH233040   0.137   7.126   6.510
11032TIP3    H133041   0.168   7.193   6.449
11032TIP3    H233042   0.212   7.068   6.523
11033TIP3   OH233043   3.399   5.842   1.523
11033TIP3    H133044   3.457   5.790   1.579
11033TIP3    H233045   3.313   5.801   1.533
11034TIP3   OH233046   2.368   0.240   1.737
11034TIP3    H133047   2.352   0.171   1.673
11034TIP3    H233048   2.281   0.274   1.758
11035TIP3   OH233049   7.240   0.144   2.324
11035TIP3    H133050   7.247   0.060   2.369
11035TIP3    H233051   7.160   0.135   2.271
11036TIP3   OH233052   3.920   0.809   2.780
11036TIP3    H133053   4.002   0.813   2.731
11036TIP3    H233054   3.866   0.878   2.742
11037TIP3   OH233055   2.299   1.970   6.347
11037TIP3    H133056   2.383   2.013   6.366
11037TIP3    H233057   2.313   1.927   6.263
11038TIP3   OH233058   0.869   6.084   4.681
11038TIP3    H133059   0.776   6.063   4.673
11038TIP3    H233060   0.892   6.056   4.770
11039TIP3   OH233061   5.493   2.757   3.825
11039TIP3    H133062   5.492   2.843   3.867
11039TIP3    H233063   5.403   2.725   3.836
11040TIP3   OH233064   7.906   5.846   3.949
11040TIP3    H133065   7.976   5.797   3.991
11040TIP3    H233066   7.860   5.890   4.020
11041TIP3   OH233067   7.395   2.219   1.818
11041TIP3    H133068   7.318   2.175   1.782
11041TIP3    H233069   7.360   2.299   1.857
11042TIP3   OH233070   4.919   0.056   2.312
11042TIP3    H133071   4.891   0.137   2.353
11042TIP3    H233072   4.935   0.079   2.220
11043TIP3   OH233073   0.498   0.830   3.756
11043TIP3    H133074   0.587   0.863   3.740
11043TIP3    H233075   0.444   0.909   3.758
11044TIP3   OH233076   4.048   6.311   1.510
11044TIP3    H133077   4.126   6.360   1.536
11044TIP3    H233078   4.065   6.222   1.542
11045TIP3   OH233079   7.394   0.387   4.406
11045TIP3    H133080   7.301   0.371   4.389
11045TIP3    H233081   7.426   0.427   4.325
11046TIP3   OH233082   6.796   4.580   6.113
11046TIP3    H133083   6.772   4.573   6.206
11046TIP3    H233084   6.735   4.644   6.077
11047TIP3   OH233085   1.818   6.347   5.236
11047TIP3    H133086   1.799   6.337   5.143
11047TIP3    H233087   1.892   6.287   5.251
11048TIP3   OH233088   1.032   6.803   3.344
11048TIP3    H133089   0.938   6.795   3.331
11048TIP3    H233090   1.046   6.788   3.437
11049TIP3   OH233091   2.624   3.987   3.440
11049TIP3    H133092   2.662   3.973   3.526
11049TIP3    H233093   2.683   3.944   3.379
11050TIP3   OH233094   2.349   2.967   0.362
11050TIP3    H133095   2.333   2.873   0.353
11050TIP3    H233096   2.429   2.973   0.415
11051TIP3   OH233097   4.528   0.009   4.001
11051TIP3    H133098   4.467  -0.001   4.074
11051TIP3    H233099   4.505   0.092   3.961
11052TIP3   OH233100   0.554   2.168   3.083
11052TIP3    H133101   0.491   2.225   3.038
11052TIP3    H233102   0.565   2.208   3.170
11053TIP3   OH233103   0.560   2.171   6.128
11053TIP3    H133104   0.485   2.113   6.141
11053TIP3    H233105   0.545   2.242   6.191
11054TIP3   OH233106   2.514   1.748   0.871
11054TIP3    H133107   2.586   1.774   0.813
11054TIP3    H233108   2.556   1.693   0.938
11055TIP3   OH233109   3.416   1.142   1.363
11055TIP3    H133110   3.328   1.105   1.376
11055TIP3    H233111   3.475   1.069   1.381
11056TIP3   OH233112   0.187   2.868   3.554
11056TIP3    H133113   0.200   2.790   3.608
11056TIP3    H233114   0.096   2.860   3.523
11057TIP3   OH233115   7.943   1.035   1.081
11057TIP3    H133116   8.015   0.992   1.034
11057TIP3    H233117   7.864   1.007   1.034
11058TIP3   OH233118   0.551   2.462   1.334
11058TIP3    H133119   0.493   2.451   1.259
11058TIP3    H233120   0.574   2.555   1.333
11059TIP3   OH233121   2.527   5.431   3.883
11059TIP3    H133122   2.444   5.409   3.841
11059TIP3    H233123   2.502   5.485   3.959
11060TIP3   OH233124   4.180   0.294   4.831
11060TIP3    H133125   4.217   0.331   4.912
11060TIP3    H233126   4.251   0.299   4.768
11061TIP3   OH233127   1.136   6.505   0.028
11061TIP3    H133128   1.048   6.474   0.007
11061TIP3    H233129   1.138   6.595  -0.006
11062TIP3   OH233130   5.567   2.293   2.604
11062TIP3    H133131   5.527   2.310   2.518
11062TIP3    H233132   5.661   2.291   2.586
11063TIP3   OH233133   2.272   1.030   1.530
11063TIP3    H133134   2.354   1.008   1.485
11063TIP3    H233135   2.294   1.105   1.585
11064TIP3   OH233136   3.544   3.737   1.620
11064TIP3    H133137   3.519   3.684   1.544
11064TIP3    H233138   3.630   3.772   1.597
11065TIP3   OH233139   6.670   6.164   1.715
11065TIP3    H133140   6.650   6.106   1.788
11065TIP3    H233141   6.632   6.248   1.739
11066TIP3   OH233142   1.988   5.906   2.319
11066TIP3    H133143   1.893   5.914   2.317
11066TIP3    H233144   2.012   5.874   2.232
11067TIP3   OH233145   0.053   5.605   3.962
11067TIP3    H133146   0.065   5.628   4.054
11067TIP3    H233147  -0.039   5.627   3.945
11068TIP3   OH233148   1.429   5.371   0.326
11068TIP3    H133149   1.390   5.328   0.401
11068TIP3    H233150   1.379   5.338   0.251
11069TIP3   OH233151   4.490   5.721   3.250
11069TIP3    H133152   4.504   5.781   3.177
11069TIP3    H233153   4.548   5.647   3.231
11070TIP3   OH233154   7.011   7.604   3.813
11070TIP3    H133155   6.956   7.533   3.780
11070TIP3    H233156   7.078   7.615   3.745
11071TIP3   OH233157   1.730   3.448   2.984
11071TIP3    H133158   1.712   3.533   2.944
11071TIP3    H233159   1.762   3.393   2.912
11072TIP3   OH233160   8.184   2.158   3.452
11072TIP3    H133161   8.245   2.107   3.399
11072TIP3    H233162   8.097   2.129   3.423
11073TIP3   OH233163   3.113   2.837   2.871
11073TIP3    H133164   3.017   2.841   2.874
11073TIP3    H233165   3.132   2.748   2.842
11074TIP3   OH233166   6.811   5.033   4.340
11074TIP3    H133167   6.731   4.999   4.379
11074TIP3    H233168   6.881   4.979   4.377
11075TIP3   OH233169   5.314   3.700   6.578
11075TIP3    H133170   5.347   3.786   6.549
11075TIP3    H233171   5.270   3.718   6.661
11076TIP3   OH233172   5.042   0.257   6.224
11076TIP3    H133173   5.020   0.291   6.311
11076TIP3    H233174   4.978   0.188   6.208
11077TIP3   OH233175   6.697   7.748   1.071
11077TIP3    H133176   6.638   7.810   1.028
11077TIP3    H233177   6.784   7.776   1.044
11078TIP3   OH233178   7.185   2.859   3.937
11078TIP3    H133179   7.203   2.781   3.989
11078TIP3    H233180   7.260   2.867   3.878
11079TIP3   OH233181   1.947   3.693   2.641
11079TIP3    H133182   1.869   3.688   2.697
11079TIP3    H233183   1.918   3.655   2.558
11080TIP3   OH233184   2.267   5.937   4.405
11080TIP3    H133185   2.320   5.966   4.479
11080TIP3    H233186   2.226   5.856   4.435
11081TIP3   OH233187   7.548   0.821   5.133
11081TIP3    H133188   7.485   0.852   5.069
11081TIP3    H233189   7.615   0.775   5.081
11082TIP3   OH233190   0.637   5.866   5.963
11082TIP3    H133191   0.581   5.937   5.993
11082TIP3    H233192   0.675   5.898   5.881
11083TIP3   OH233193   5.700   1.721   3.628
11083TIP3    H133194   5.792   1.701   3.646
11083TIP3    H233195   5.672   1.652   3.567
11084TIP3   OH233196   4.475   0.127   5.715
11084TIP3    H133197   4.420   0.077   5.655
11084TIP3    H233198   4.505   0.202   5.663
11085TIP3   OH233199   2.239   1.359   4.694
11085TIP3    H133200   2.213   1.346   4.785
11085TIP3    H233201   2.220   1.276   4.652
11086TIP3   OH233202   6.140   2.090   0.929
11086TIP3    H133203   6.156   2.124   0.841
11086TIP3    H233204   6.224   2.100   0.974
11087TIP3   OH233205   4.930   6.392   4.003
11087TIP3    H133206   4.972   6.439   4.075
11087TIP3    H233207   4.996   6.330   3.972
11088TIP3   OH233208   1.300   4.521   3.603
11088TIP3    H133209   1.314   4.572   3.522
11088TIP3    H233210   1.291   4.587   3.671
11089TIP3   OH233211   7.092   3.802   1.839
11089TIP3    H133212   7.027   3.866   1.810
11089TIP3    H233213   7.077   3.794   1.933
11090TIP3   OH233214   7.081   6.348   1.430
11090TIP3    H133215   7.140   6.309   1.495
11090TIP3    H233216   7.139   6.388   1.365
11091TIP3   OH233217   1.278   2.328   2.233
11091TIP3    H133218   1.296   2.408   2.183
11091TIP3    H233219   1.207   2.353   2.293
11092TIP3   OH233220   0.941   4.729   0.222
11092TIP3    H133221   0.859   4.680   0.216
11092TIP3    H233222   0.962   4.728   0.315
11093TIP3   OH233223   3.017   6.362   2.317
11093TIP3    H133224   2.971   6.442   2.291
11093TIP3    H233225   2.964   6.327   2.389
11094TIP3   OH233226   6.251   5.541   4.429
11094TIP3    H133227   6.159   5.560   4.409
11094TIP3    H233228   6.258   5.446   4.418
11095TIP3   OH233229   4.677   3.355   6.250
11095TIP3    H133230   4.758   3.375   6.202
11095TIP3    H233231   4.668   3.260   6.243
11096TIP3   OH233232   1.854   2.064   4.431
11096TIP3    H133233   1.891   2.133   4.377
11096TIP3    H233234   1.768   2.097   4.459
11097TIP3   OH233235   5.631   0.509   4.999
11097TIP3    H133236   5.717   0.477   4.974
11097TIP3    H233237   5.574   0.432   4.992
11098TIP3   OH233238   7.782   3.539   3.941
11098TIP3    H133239   7.747   3.608   3.885
11098TIP3    H233240   7.705   3.491   3.971
11099TIP3   OH233241   1.158   7.047   3.735
11099TIP3    H133242   1.144   7.020   3.825
11099TIP3    H233243   1.238   7.099   3.738
11100TIP3   OH233244   5.350   3.228   1.355
11100TIP3    H133245   5.346   3.252   1.263
11100TIP3    H233246   5.436   3.257   1.385
11101TIP3   OH233247   8.014   1.810   1.243
11101TIP3    H133248   8.023   1.728   1.195
11101TIP3    H233249   7.970   1.785   1.325
11102TIP3   OH233250   3.208   6.293   5.541
11102TIP3    H133251   3.216   6.351   5.617
11102TIP3    H233252   3.224   6.206   5.576
11103TIP3   OH233253   7.500   2.925   0.972
11103TIP3    H133254   7.460   2.984   0.908
11103TIP3    H233255   7.485   2.968   1.056
11104TIP3   OH233256   0.155   7.380   2.342
11104TIP3    H133257   0.091   7.442   2.307
11104TIP3    H233258   0.155   7.308   2.278
11105TIP3   OH233259   8.141   1.295   0.984
11105TIP3    H133260   8.169   1.344   1.061
11105TIP3    H233261   8.082   1.227   1.018
11106TIP3   OH233262   3.555   5.063   4.717
11106TIP3    H133263   3.569   5.135   4.778
11106TIP3    H233264   3.642   5.044   4.682
11107TIP3   OH233265   3.365   5.690   0.957
11107TIP3    H133266   3.312   5.687   1.037
11107TIP3    H233267   3.451   5.660   0.985
11108TIP3   OH233268   1.931   3.748   6.107
11108TIP3    H133269   1.923   3.653   6.117
11108TIP3    H233270   1.902   3.765   6.018
11109TIP3   OH233271   8.026   1.037   6.114
11109TIP3    H133272   8.019   1.094   6.190
11109TIP3    H233273   8.053   0.953   6.150
11110TIP3   OH233274   7.383   1.481   1.004
11110TIP3    H133275   7.457   1.533   1.034
11110TIP3    H233276   7.420   1.396   0.982
11111TIP3   OH233277   6.338   6.468   2.323
11111TIP3    H133278   6.263   6.512   2.284
11111TIP3    H233279   6.372   6.531   2.387
11112TIP3   OH233280   3.298   3.992   2.952
11112TIP3    H133281   3.301   4.061   3.017
11112TIP3    H233282   3.204   3.978   2.936
11113TIP3   OH233283   4.669   6.099   5.881
11113TIP3    H133284   4.763   6.116   5.883
11113TIP3    H233285   4.629   6.183   5.861
11114TIP3   OH233286   5.614   6.861   5.813
11114TIP3    H133287   5.529   6.850   5.857
11114TIP3    H233288   5.602   6.817   5.728
11115TIP3   OH233289   0.286   4.334   0.321
11115TIP3    H133290   0.345   4.326   0.396
11115TIP3    H233291   0.228   4.407   0.344
11116TIP3   OH233292   4.118   0.743   6.401
11116TIP3    H133293   4.122   0.648   6.391
11116TIP3    H233294   4.046   0.758   6.463
11117TIP3   OH233295  -0.025   0.629   5.224
11117TIP3    H133296   0.060   0.671   5.235
11117TIP3    H233297  -0.006   0.535   5.229
11118TIP3   OH233298   7.917   1.581   1.114
11118TIP3    H133299   7.964   1.581   1.031
11118TIP3    H233300   7.872   1.496   1.116
11119TIP3   OH233301   4.870   4.865   3.199
11119TIP3    H133302   4.829   4.907   3.274
11119TIP3    H233303   4.900   4.780   3.231
11120TIP3   OH233304   6.155   5.075   6.738
11120TIP3    H133305   6.150   4.996   6.686
11120TIP3    H233306   6.173   5.145   6.675
11121TIP3   OH233307   2.286   0.089   0.666
11121TIP3    H133308   2.377   0.091   0.694
11121TIP3    H233309   2.288   0.118   0.575
11122TIP3   OH233310   0.047   4.091   1.812
11122TIP3    H133311  -0.002   4.173   1.808
11122TIP3    H233312   0.114   4.106   1.878
11123TIP3   OH233313   3.176   3.030   1.301
11123TIP3    H133314   3.234   3.083   1.355
11123TIP3    H233315   3.102   3.088   1.282
11124TIP3   OH233316   2.558   6.317   5.682
11124TIP3    H133317   2.543   6.360   5.597
11124TIP3    H233318   2.524   6.378   5.746
11125TIP3   OH233319   7.357   3.672   2.075
11125TIP3    H133320   7.316   3.667   2.161
11125TIP3    H233321   7.389   3.761   2.069
11126TIP3   OH233322   7.267   0.139   1.908
11126TIP3    H133323   7.198   0.073   1.902
11126TIP3    H233324   7.308   0.138   1.821
11127TIP3   OH233325   6.221   7.671   1.530
11127TIP3    H133326   6.131   7.645   1.511
11127TIP3    H233327   6.218   7.766   1.533
11128TIP3   OH233328   0.277   2.679   6.272
11128TIP3    H133329   0.205   2.700   6.214
11128TIP3    H233330   0.243   2.694   6.360
11129TIP3   OH233331   3.064   5.259   5.852
11129TIP3    H133332   3.034   5.349   5.859
11129TIP3    H233333   2.984   5.207   5.865
11130TIP3   OH233334   5.243   0.421   3.610
11130TIP3    H133335   5.323   0.374   3.632
11130TIP3    H233336   5.266   0.475   3.535
11131TIP3   OH233337   7.217   4.129   5.330
11131TIP3    H133338   7.294   4.180   5.308
11131TIP3    H233339   7.244   4.038   5.319
11132TIP3   OH233340   2.913   6.911   5.104
11132TIP3    H133341   2.856   6.937   5.031
11132TIP3    H233342   3.001   6.913   5.068
11133TIP3   OH233343   0.415   0.218   2.937
11133TIP3    H133344   0.501   0.254   2.959
11133TIP3    H233345   0.432   0.158   2.864
11134TIP3   OH233346   4.236   6.208   6.538
11134TIP3    H133347   4.293   6.246   6.605
11134TIP3    H233348   4.293   6.195   6.462
11135TIP3   OH233349   1.858   7.262   5.813
11135TIP3    H133350   1.909   7.203   5.757
11135TIP3    H233351   1.901   7.347   5.803
11136TIP3   OH233352   2.366   5.084   1.610
11136TIP3    H133353   2.310   5.119   1.540
11136TIP3    H233354   2.422   5.020   1.566
11137TIP3   OH233355   2.866   5.435   2.316
11137TIP3    H133356   2.834   5.358   2.364
11137TIP3    H233357   2.954   5.411   2.288
11138TIP3   OH233358   0.144   3.883   0.872
11138TIP3    H133359   0.176   3.966   0.908
11138TIP3    H233360   0.110   3.906   0.785
11139TIP3   OH233361   5.522   0.724   6.554
11139TIP3    H133362   5.508   0.712   6.460
11139TIP3    H233363   5.517   0.819   6.568
11140TIP3   OH233364   1.561   0.092   1.957
11140TIP3    H133365   1.624   0.054   1.896
11140TIP3    H233366   1.502   0.020   1.979
11141TIP3   OH233367   1.560   5.442   1.451
11141TIP3    H133368   1.640   5.453   1.503
11141TIP3    H233369   1.588   5.391   1.375
11142TIP3   OH233370   2.073   4.334   1.120
11142TIP3    H133371   2.077   4.385   1.200
11142TIP3    H233372   2.104   4.247   1.146
11143TIP3   OH233373   1.523   2.836   2.934
11143TIP3    H133374   1.575   2.882   2.868
11143TIP3    H233375   1.446   2.805   2.886
11144TIP3   OH233376   3.501   0.277   2.758
11144TIP3    H133377   3.590   0.270   2.792
11144TIP3    H233378   3.448   0.306   2.832
11145TIP3   OH233379   4.407   3.235   3.962
11145TIP3    H133380   4.500   3.251   3.946
11145TIP3    H233381   4.371   3.213   3.877
11146TIP3   OH233382   3.117   0.877   6.655
11146TIP3    H133383   3.099   0.812   6.723
11146TIP3    H233384   3.213   0.879   6.649
11147TIP3   OH233385   3.051   6.270   3.324
11147TIP3    H133386   3.109   6.344   3.343
11147TIP3    H233387   3.104   6.212   3.269
11148TIP3   OH233388   0.948   1.830   2.208
11148TIP3    H133389   0.973   1.909   2.256
11148TIP3    H233390   0.869   1.799   2.253
11149TIP3   OH233391   0.400   2.483   1.630
11149TIP3    H133392   0.359   2.479   1.717
11149TIP3    H233393   0.438   2.396   1.617
11150TIP3   OH233394   4.629   0.965   2.083
11150TIP3    H133395   4.635   1.035   2.019
11150TIP3    H233396   4.610   0.887   2.031
11151TIP3   OH233397   5.572   6.158   1.917
11151TIP3    H133398   5.490   6.184   1.876
11151TIP3    H233399   5.633   6.150   1.844
11152TIP3   OH233400   0.648   4.658   1.418
11152TIP3    H133401   0.645   4.753   1.426
11152TIP3    H233402   0.725   4.632   1.469
11153TIP3   OH233403   2.578   1.726   0.027
11153TIP3    H133404   2.645   1.694  -0.034
11153TIP3    H233405   2.612   1.705   0.113
11154TIP3   OH233406   6.290   3.353   4.421
11154TIP3    H133407   6.289   3.325   4.330
11154TIP3    H233408   6.371   3.317   4.456
11155TIP3   OH233409   5.798   0.103   1.965
11155TIP3    H133410   5.735   0.146   1.908
11155TIP3    H233411   5.776   0.135   2.053
11156TIP3   OH233412   8.003   2.324   1.451
11156TIP3    H133413   8.017   2.384   1.524
11156TIP3    H233414   8.091   2.308   1.416
11157TIP3   OH233415   2.270   5.594   0.102
11157TIP3    H133416   2.326   5.548   0.164
11157TIP3    H233417   2.275   5.543   0.022
11158TIP3   OH233418   6.376   6.465   6.652
11158TIP3    H133419   6.412   6.427   6.572
11158TIP3    H233420   6.291   6.422   6.663
11159TIP3   OH233421   0.991   0.057   1.931
11159TIP3    H133422   0.925   0.013   1.878
11159TIP3    H233423   0.965   0.149   1.931
11160TIP3   OH233424   5.539   0.447   6.116
11160TIP3    H133425   5.612   0.430   6.176
11160TIP3    H233426   5.498   0.361   6.103
11161TIP3   OH233427   0.511   2.836   5.971
11161TIP3    H133428   0.432   2.826   5.917
11161TIP3    H233429   0.555   2.913   5.934
11162TIP3   OH233430   2.299   7.591   2.403
11162TIP3    H133431   2.233   7.528   2.435
11162TIP3    H233432   2.294   7.584   2.308
11163TIP3   OH233433   5.104   0.126   5.390
11163TIP3    H133434   5.123   0.145   5.298
11163TIP3    H233435   5.177   0.071   5.419
11164TIP3   OH233436   5.251   6.671   1.902
11164TIP3    H133437   5.194   6.725   1.957
11164TIP3    H233438   5.286   6.732   1.837
11165TIP3   OH233439   3.627   5.221   0.292
11165TIP3    H133440   3.647   5.128   0.303
11165TIP3    H233441   3.613   5.253   0.381
11166TIP3   OH233442   1.737   4.856   2.826
11166TIP3    H133443   1.683   4.807   2.763
11166TIP3    H233444   1.827   4.836   2.801
11167TIP3   OH233445   2.611   6.836   0.794
11167TIP3    H133446   2.645   6.785   0.720
11167TIP3    H233447   2.616   6.927   0.765
11168TIP3   OH233448   4.651   5.918   0.617
11168TIP3    H133449   4.579   5.961   0.663
11168TIP3    H233450   4.645   5.952   0.527
11169TIP3   OH233451   0.157   3.203   5.392
11169TIP3    H133452   0.172   3.274   5.455
11169TIP3    H233453   0.194   3.236   5.310
11170TIP3   OH233454   3.818   7.598   5.661
11170TIP3    H133455   3.758   7.575   5.590
11170TIP3    H233456   3.808   7.528   5.726
11171TIP3   OH233457   5.664   0.023   1.700
11171TIP3    H133458   5.747   0.048   1.660
11171TIP3    H233459   5.604   0.095   1.679
11172TIP3   OH233460   7.247   3.098   6.660
11172TIP3    H133461   7.324   3.152   6.676
11172TIP3    H233462   7.278   3.026   6.606
11173TIP3   OH233463   6.503   2.064   5.174
11173TIP3    H133464   6.437   2.005   5.139
11173TIP3    H233465   6.517   2.034   5.264
11174TIP3   OH233466   0.900   6.754   4.614
11174TIP3    H133467   0.895   6.709   4.529
11174TIP3    H233468   0.950   6.694   4.669
11175TIP3   OH233469   3.007   0.520   0.364
11175TIP3    H133470   2.930   0.520   0.421
11175TIP3    H233471   3.060   0.594   0.395
11176TIP3   OH233472   4.040   4.194   1.015
11176TIP3    H133473   4.130   4.228   1.014
11176TIP3    H233474   3.999   4.232   0.937
11177TIP3   OH233475   7.545   1.193   3.714
11177TIP3    H133476   7.605   1.222   3.646
11177TIP3    H233477   7.508   1.111   3.680
11178TIP3   OH233478   2.011   3.802   2.264
11178TIP3    H133479   2.029   3.793   2.171
11178TIP3    H233480   2.071   3.741   2.306
11179TIP3   OH233481   8.134   7.187   2.960
11179TIP3    H133482   8.106   7.184   3.052
11179TIP3    H233483   8.089   7.113   2.919
11180TIP3   OH233484   0.899   3.789   6.046
11180TIP3    H133485   0.852   3.871   6.063
11180TIP3    H233486   0.921   3.755   6.133
11181TIP3   OH233487   7.493   7.141   0.166
11181TIP3    H133488   7.569   7.183   0.205
11181TIP3    H233489   7.421   7.204   0.180
11182TIP3   OH233490   4.467   0.289   3.583
11182TIP3    H133491   4.532   0.298   3.652
11182TIP3    H233492   4.383   0.299   3.628
11183TIP3   OH233493   4.859   2.317   3.423
11183TIP3    H133494   4.795   2.335   3.492
11183TIP3    H233495   4.815   2.253   3.366
11184TIP3   OH233496   7.449   4.938   2.824
11184TIP3    H133497   7.451   4.914   2.731
11184TIP3    H233498   7.524   4.891   2.862
11185TIP3   OH233499   8.080   6.355   2.737
11185TIP3    H133500   8.142   6.340   2.665
11185TIP3    H233501   8.013   6.412   2.699
11186TIP3   OH233502   0.345   6.684   3.876
11186TIP3    H133503   0.390   6.602   3.898
11186TIP3    H233504   0.265   6.656   3.832
11187TIP3   OH233505   2.171   4.738   4.514
11187TIP3    H133506   2.214   4.799   4.574
11187TIP3    H233507   2.077   4.749   4.531
11188TIP3   OH233508   6.221   7.520   6.456
11188TIP3    H133509   6.231   7.451   6.390
11188TIP3    H233510   6.311   7.551   6.471
11189TIP3   OH233511   0.640   0.632   0.825
11189TIP3    H133512   0.651   0.633   0.920
11189TIP3    H233513   0.595   0.715   0.805
11190TIP3   OH233514   2.925   2.488   0.074
11190TIP3    H133515   2.850   2.429   0.065
11190TIP3    H233516   2.957   2.473   0.163
11191TIP3   OH233517   3.791   3.844   1.516
11191TIP3    H133518   3.812   3.759   1.555
11191TIP3    H233519   3.873   3.893   1.519
11192TIP3   OH233520   0.458   7.740   2.411
11192TIP3    H133521   0.400   7.665   2.427
11192TIP3    H233522   0.528   7.705   2.356
11193TIP3   OH233523   8.058   2.916   4.965
11193TIP3    H133524   8.052   2.834   4.917
11193TIP3    H233525   8.144   2.951   4.942
11194TIP3   OH233526   2.472   6.510   2.908
11194TIP3    H133527   2.550   6.559   2.933
11194TIP3    H233528   2.483   6.496   2.813
11195TIP3   OH233529   7.587   1.906   4.330
11195TIP3    H133530   7.608   1.874   4.242
11195TIP3    H233531   7.642   1.983   4.341
11196TIP3   OH233532   5.203   4.620   4.178
11196TIP3    H133533   5.149   4.617   4.257
11196TIP3    H233534   5.291   4.600   4.208
11197TIP3   OH233535   2.912   6.945   0.633
11197TIP3    H133536   2.830   6.894   0.636
11197TIP3    H233537   2.885   7.031   0.601
11198TIP3   OH233538   4.094   5.292   2.526
11198TIP3    H133539   4.127   5.271   2.439
11198TIP3    H233540   4.067   5.207   2.562
11199TIP3   OH233541   7.916   0.447   3.297
11199TIP3    H133542   7.944   0.521   3.350
11199TIP3    H233543   7.847   0.405   3.348
11200TIP3   OH233544   5.107   2.143   2.335
11200TIP3    H133545   5.168   2.215   2.348
11200TIP3    H233546   5.131   2.106   2.250
11201TIP3   OH233547   4.472   6.204   5.415
11201TIP3    H133548   4.444   6.279   5.467
11201TIP3    H233549   4.524   6.151   5.475
11202TIP3   OH233550   4.593   0.504   2.457
11202TIP3    H133551   4.653   0.573   2.486
11202TIP3    H233552   4.537   0.487   2.532
11203TIP3   OH233553   1.749   5.751   0.783
11203TIP3    H133554   1.802   5.713   0.852
11203TIP3    H233555   1.796   5.830   0.758
11204TIP3   OH233556   5.566   1.939   6.534
11204TIP3    H133557   5.588   2.029   6.557
11204TIP3    H233558   5.471   1.934   6.542
11205TIP3   OH233559   4.483   5.922   1.592
11205TIP3    H133560   4.574   5.930   1.621
11205TIP3    H233561   4.431   5.937   1.672
11206TIP3   OH233562   5.445   4.388   2.355
11206TIP3    H133563   5.364   4.433   2.334
11206TIP3    H233564   5.507   4.418   2.289
11207TIP3   OH233565   3.114   7.752   1.126
11207TIP3    H133566   3.184   7.744   1.062
11207TIP3    H233567   3.157   7.745   1.211
11208TIP3   OH233568   6.243   3.321   1.437
11208TIP3    H133569   6.201   3.406   1.450
11208TIP3    H233570   6.285   3.329   1.351
11209TIP3   OH233571   2.235   6.992   6.787
11209TIP3    H133572   2.204   7.050   6.855
11209TIP3    H233573   2.211   7.035   6.705
11210TIP3   OH233574   4.296   2.647   2.954
11210TIP3    H133575   4.355   2.723   2.948
11210TIP3    H233576   4.302   2.605   2.868
11211TIP3   OH233577   4.015   5.772   4.837
11211TIP3    H133578   4.002   5.777   4.932
11211TIP3    H233579   4.102   5.809   4.822
11212TIP3   OH233580   6.664   0.081   2.610
11212TIP3    H133581   6.689   0.028   2.685
11212TIP3    H233582   6.570   0.095   2.620
11213TIP3   OH233583   4.836   6.091   2.570
11213TIP3    H133584   4.862   6.097   2.478
11213TIP3    H233585   4.808   6.000   2.582
11214TIP3   OH233586   0.977   3.302   2.083
11214TIP3    H133587   0.924   3.227   2.111
11214TIP3    H233588   0.989   3.289   1.989
11215TIP3   OH233589   1.380   5.669   0.630
11215TIP3    H133590   1.383   5.637   0.539
11215TIP3    H233591   1.416   5.597   0.681
11216TIP3   OH233592   3.440   1.450   3.081
11216TIP3    H133593   3.532   1.466   3.104
11216TIP3    H233594   3.442   1.371   3.028
11217TIP3   OH233595   0.653   4.326   0.629
11217TIP3    H133596   0.697   4.384   0.567
11217TIP3    H233597   0.560   4.339   0.613
11218TIP3   OH233598   4.387   4.972   4.549
11218TIP3    H133599   4.394   4.921   4.629
11218TIP3    H233600   4.302   5.017   4.555
11219TIP3   OH233601   6.213   7.395   3.726
11219TIP3    H133602   6.251   7.445   3.798
11219TIP3    H233603   6.134   7.356   3.763
11220TIP3   OH233604   0.033   0.350   5.798
11220TIP3    H133605   0.011   0.335   5.890
11220TIP3    H233606   0.099   0.420   5.801
11221TIP3   OH233607   3.262   7.264   4.935
11221TIP3    H133608   3.208   7.342   4.950
11221TIP3    H233609   3.239   7.236   4.847
11222TIP3   OH233610   6.202   0.946   3.236
11222TIP3    H133611   6.252   0.897   3.301
11222TIP3    H233612   6.142   1.000   3.287
11223TIP3   OH233613   0.158   6.363   3.086
11223TIP3    H133614   0.125   6.320   3.007
11223TIP3    H233615   0.083   6.409   3.122
11224TIP3   OH233616   4.044   3.578   4.048
11224TIP3    H133617   4.049   3.544   3.959
11224TIP3    H233618   4.125   3.548   4.090
11225TIP3   OH233619   3.268   0.187   2.859
11225TIP3    H133620   3.191   0.244   2.867
11225TIP3    H233621   3.270   0.161   2.767
11226TIP3   OH233622   5.650   2.675   2.656
11226TIP3    H133623   5.570   2.711   2.694
11226TIP3    H233624   5.677   2.606   2.717
11227TIP3   OH233625   2.115   4.245   3.467
11227TIP3    H133626   2.154   4.158   3.476
11227TIP3    H233627   2.189   4.306   3.470
11228TIP3   OH233628   0.325   6.462   6.711
11228TIP3    H133629   0.367   6.381   6.739
11228TIP3    H233630   0.359   6.529   6.771
11229TIP3   OH233631   6.566   6.768   0.794
11229TIP3    H133632   6.486   6.784   0.744
11229TIP3    H233633   6.622   6.843   0.776
11230TIP3   OH233634   3.640   5.129   6.338
11230TIP3    H133635   3.623   5.189   6.265
11230TIP3    H233636   3.639   5.042   6.299
11231TIP3   OH233637   3.999   6.161   3.574
11231TIP3    H133638   3.928   6.108   3.610
11231TIP3    H233639   4.036   6.206   3.649
11232TIP3   OH233640   1.557   1.455   6.040
11232TIP3    H133641   1.467   1.468   6.069
11232TIP3    H233642   1.609   1.454   6.121
11233TIP3   OH233643   7.453   5.963   1.404
11233TIP3    H133644   7.486   5.892   1.349
11233TIP3    H233645   7.496   5.951   1.488
11234TIP3   OH233646   2.005   1.016   1.366
11234TIP3    H133647   2.019   0.974   1.280
11234TIP3    H233648   2.093   1.022   1.404
11235TIP3   OH233649   2.143   0.719   3.687
11235TIP3    H133650   2.072   0.764   3.734
11235TIP3    H233651   2.117   0.724   3.595
11236TIP3   OH233652   3.411   4.355   3.396
11236TIP3    H133653   3.477   4.292   3.426
11236TIP3    H233654   3.454   4.440   3.404
11237TIP3   OH233655   7.826   6.913   6.348
11237TIP3    H133656   7.850   6.876   6.263
11237TIP3    H233657   7.870   6.856   6.412
11238TIP3   OH233658   6.018   7.660   6.538
11238TIP3    H133659   6.081   7.597   6.502
11238TIP3    H233660   6.026   7.736   6.481
11239TIP3   OH233661   3.305   6.721   3.957
11239TIP3    H133662   3.335   6.812   3.946
11239TIP3    H233663   3.384   6.674   3.986
11240TIP3   OH233664   2.973   5.998   5.351
11240TIP3    H133665   2.990   5.904   5.348
11240TIP3    H233666   3.058   6.037   5.370
11241TIP3   OH233667   3.763   5.897   5.438
11241TIP3    H133668   3.698   5.855   5.494
11241TIP3    H233669   3.712   5.935   5.366
11242TIP3   OH233670   8.151   2.346   3.238
11242TIP3    H133671   8.179   2.299   3.316
11242TIP3    H233672   8.123   2.277   3.178
11243TIP3   OH233673   4.206   3.947   2.438
11243TIP3    H133674   4.222   3.921   2.347
11243TIP3    H233675   4.159   3.873   2.476
11244TIP3   OH233676   3.967   3.962   1.228
11244TIP3    H133677   4.012   4.035   1.184
11244TIP3    H233678   3.885   4.001   1.259
11245TIP3   OH233679   3.195   2.411   0.828
11245TIP3    H133680   3.127   2.378   0.886
11245TIP3    H233681   3.260   2.341   0.825
11246TIP3   OH233682   2.202   0.731   5.901
11246TIP3    H133683   2.196   0.825   5.883
11246TIP3    H233684   2.279   0.723   5.958
11247TIP3   OH233685   0.402   1.047   1.549
11247TIP3    H133686   0.345   1.089   1.484
11247TIP3    H233687   0.472   1.008   1.498
11248TIP3   OH233688   8.119   1.469   3.683
11248TIP3    H133689   8.078   1.405   3.742
11248TIP3    H233690   8.050   1.490   3.620
11249TIP3   OH233691   3.823   7.138   0.531
11249TIP3    H133692   3.775   7.072   0.580
11249TIP3    H233693   3.820   7.216   0.585
11250TIP3   OH233694   5.949   7.554   1.515
11250TIP3    H133695   5.987   7.559   1.603
11250TIP3    H233696   5.861   7.590   1.525
11251TIP3   OH233697   6.819   3.985   5.089
11251TIP3    H133698   6.728   3.973   5.116
11251TIP3    H233699   6.814   4.016   4.999
11252TIP3   OH233700   3.982   7.044   0.321
11252TIP3    H133701   3.933   7.057   0.403
11252TIP3    H233702   3.987   7.131   0.282
11253TIP3   OH233703   3.484   1.922   0.168
11253TIP3    H133704   3.481   1.880   0.254
11253TIP3    H233705   3.540   1.999   0.181
11254TIP3   OH233706   3.019   1.562   0.718
11254TIP3    H133707   3.012   1.642   0.665
11254TIP3    H233708   3.094   1.577   0.775
11255TIP3   OH233709   6.597   0.975   6.479
11255TIP3    H133710   6.508   1.010   6.472
11255TIP3    H233711   6.646   1.045   6.522
11256TIP3   OH233712   3.055   0.646   4.409
11256TIP3    H133713   3.071   0.564   4.457
11256TIP3    H233714   2.986   0.623   4.346
11257TIP3   OH233715   0.354   2.258   2.921
11257TIP3    H133716   0.386   2.306   2.844
11257TIP3    H233717   0.347   2.168   2.892
11258TIP3   OH233718   5.939   5.590   2.685
11258TIP3    H133719   6.009   5.621   2.627
11258TIP3    H233720   5.887   5.668   2.703
11259TIP3   OH233721   2.345   6.906   4.350
11259TIP3    H133722   2.314   6.820   4.320
11259TIP3    H233723   2.416   6.929   4.289
11260TIP3   OH233724   1.922   4.871   2.286
11260TIP3    H133725   1.968   4.929   2.346
11260TIP3    H233726   1.886   4.928   2.219
11261TIP3   OH233727   3.893   4.020   0.043
11261TIP3    H133728   3.936   3.983  -0.034
11261TIP3    H233729   3.815   3.966   0.056
11262TIP3   OH233730   7.624   5.707   6.007
11262TIP3    H133731   7.651   5.786   5.959
11262TIP3    H233732   7.657   5.720   6.096
11263TIP3   OH233733   4.339   1.850   0.883
11263TIP3    H133734   4.397   1.776   0.900
11263TIP3    H233735   4.358   1.912   0.954
11264TIP3   OH233736   4.607   0.764   2.820
11264TIP3    H133737   4.602   0.795   2.729
11264TIP3    H233738   4.524   0.791   2.859
11265TIP3   OH233739   1.450   0.219   5.041
11265TIP3    H133740   1.478   0.128   5.034
11265TIP3    H233741   1.435   0.233   5.134
11266TIP3   OH233742   6.698   4.775   4.984
11266TIP3    H133743   6.668   4.687   4.959
11266TIP3    H233744   6.631   4.834   4.951
11267TIP3   OH233745   6.052   3.559   2.648
11267TIP3    H133746   6.064   3.641   2.600
11267TIP3    H233747   5.984   3.579   2.712
11268TIP3   OH233748   7.079   7.698   2.656
11268TIP3    H133749   7.088   7.786   2.620
11268TIP3    H233750   7.069   7.712   2.750
11269TIP3   OH233751   3.749   1.232   2.474
11269TIP3    H133752   3.692   1.160   2.445
11269TIP3    H233753   3.836   1.209   2.441
11270TIP3   OH233754   3.477   2.371   3.181
11270TIP3    H133755   3.386   2.360   3.154
11270TIP3    H233756   3.524   2.389   3.099
11271TIP3   OH233757   5.026   3.447   2.180
11271TIP3    H133758   4.931   3.447   2.164
11271TIP3    H233759   5.034   3.437   2.275
11272TIP3   OH233760   1.695   5.290   0.569
11272TIP3    H133761   1.736   5.254   0.648
11272TIP3    H233762   1.767   5.304   0.508
11273TIP3   OH233763   3.233   1.486   2.300
11273TIP3    H133764   3.300   1.555   2.305
11273TIP3    H233765   3.273   1.411   2.344
11274TIP3   OH233766   1.970   5.491   3.773
11274TIP3    H133767   1.968   5.499   3.868
11274TIP3    H233768   1.882   5.517   3.745
11275TIP3   OH233769   1.441   7.643   1.348
11275TIP3    H133770   1.501   7.714   1.327
11275TIP3    H233771   1.490   7.563   1.327
11276TIP3   OH233772   5.634   3.547   1.938
11276TIP3    H133773   5.571   3.518   2.005
11276TIP3    H233774   5.608   3.501   1.859
11277TIP3   OH233775   7.811   6.591   4.060
11277TIP3    H133776   7.868   6.517   4.081
11277TIP3    H233777   7.736   6.581   4.120
11278TIP3   OH233778   2.680   1.871   6.216
11278TIP3    H133779   2.655   1.844   6.128
11278TIP3    H233780   2.774   1.855   6.220
11279TIP3   OH233781   0.518   2.809   1.647
11279TIP3    H133782   0.541   2.730   1.696
11279TIP3    H233783   0.547   2.881   1.701
11280TIP3   OH233784   0.011   4.526   5.837
11280TIP3    H133785   0.011   4.554   5.746
11280TIP3    H233786  -0.069   4.475   5.847
11281TIP3   OH233787   7.007   3.132   6.332
11281TIP3    H133788   7.048   3.197   6.390
11281TIP3    H233789   7.040   3.154   6.245
11282TIP3   OH233790   6.284   6.640   4.578
11282TIP3    H133791   6.293   6.722   4.530
11282TIP3    H233792   6.371   6.601   4.576
11283TIP3   OH233793   4.680   0.623   3.058
11283TIP3    H133794   4.766   0.656   3.082
11283TIP3    H233795   4.657   0.670   2.978
11284TIP3   OH233796   3.098   0.485   5.878
11284TIP3    H133797   3.130   0.575   5.867
11284TIP3    H233798   3.031   0.475   5.809
11285TIP3   OH233799   3.969   1.682   6.183
11285TIP3    H133800   4.005   1.733   6.256
11285TIP3    H233801   3.933   1.604   6.223
11286TIP3   OH233802   4.511   7.173   5.070
11286TIP3    H133803   4.545   7.084   5.063
11286TIP3    H233804   4.564   7.214   5.139
11287TIP3   OH233805   5.927   6.182   1.241
11287TIP3    H133806   5.835   6.190   1.269
11287TIP3    H233807   5.932   6.236   1.162
11288TIP3   OH233808   7.781   3.604   1.946
11288TIP3    H133809   7.731   3.535   1.901
11288TIP3    H233810   7.734   3.617   2.028
11289TIP3   OH233811   0.103   1.083   4.057
11289TIP3    H133812   0.150   1.000   4.072
11289TIP3    H233813   0.155   1.147   4.106
11290TIP3   OH233814   1.490   3.379   6.627
11290TIP3    H133815   1.495   3.305   6.567
11290TIP3    H233816   1.534   3.348   6.707
11291TIP3   OH233817   3.714   0.051   3.902
11291TIP3    H133818   3.721   0.146   3.900
11291TIP3    H233819   3.714   0.029   3.995
11292TIP3   OH233820   2.323   2.146   2.505
11292TIP3    H133821   2.372   2.064   2.505
11292TIP3    H233822   2.358   2.195   2.580
11293TIP3   OH233823   7.495   4.008   1.687
11293TIP3    H133824   7.450   3.926   1.705
11293TIP3    H233825   7.582   3.996   1.724
11294TIP3   OH233826   4.252   1.300   4.586
11294TIP3    H133827   4.286   1.211   4.575
11294TIP3    H233828   4.304   1.354   4.527
11295TIP3   OH233829   7.356   7.374   0.167
11295TIP3    H133830   7.261   7.379   0.159
11295TIP3    H233831   7.382   7.457   0.208
11296TIP3   OH233832   8.195   5.255   3.269
11296TIP3    H133833   8.224   5.164   3.276
11296TIP3    H233834   8.272   5.306   3.294
11297TIP3   OH233835   3.911   2.929   1.506
11297TIP3    H133836   3.984   2.923   1.568
11297TIP3    H233837   3.835   2.949   1.560
11298TIP3   OH233838   0.402   7.132   2.537
11298TIP3    H133839   0.446   7.096   2.460
11298TIP3    H233840   0.445   7.216   2.553
11299TIP3   OH233841   0.061   4.198   3.412
11299TIP3    H133842   0.155   4.207   3.400
11299TIP3    H233843   0.023   4.241   3.336
11300TIP3   OH233844   5.748   7.368   1.600
11300TIP3    H133845   5.744   7.452   1.645
11300TIP3    H233846   5.709   7.385   1.514
11301TIP3   OH233847   0.097   5.886   4.969
11301TIP3    H133848   0.184   5.898   4.931
11301TIP3    H233849   0.099   5.937   5.050
11302TIP3   OH233850   7.843   4.890   2.490
11302TIP3    H133851   7.839   4.985   2.493
11302TIP3    H233852   7.839   4.868   2.397
11303TIP3   OH233853   6.902   4.737   3.518
11303TIP3    H133854   6.934   4.771   3.434
11303TIP3    H233855   6.963   4.667   3.541
11304TIP3   OH233856   0.788   2.066   2.964
11304TIP3    H133857   0.728   2.128   3.006
11304TIP3    H233858   0.735   2.025   2.895
11305TIP3   OH233859   6.187   1.769   4.650
11305TIP3    H133860   6.159   1.816   4.728
11305TIP3    H233861   6.231   1.691   4.684
11306TIP3   OH233862   1.709   4.825   6.725
11306TIP3    H133863   1.778   4.880   6.763
11306TIP3    H233864   1.695   4.756   6.789
11307TIP3   OH233865   7.612   5.839   1.177
11307TIP3    H133866   7.654   5.907   1.123
11307TIP3    H233867   7.676   5.821   1.246
11308TIP3   OH233868   4.317   1.818   5.571
11308TIP3    H133869   4.318   1.819   5.667
11308TIP3    H233870   4.224   1.827   5.548
11309TIP3   OH233871   7.776   3.946   1.549
11309TIP3    H133872   7.806   4.006   1.617
11309TIP3    H233873   7.756   3.865   1.595
11310TIP3   OH233874   0.939   4.972   5.381
11310TIP3    H133875   0.875   4.909   5.416
11310TIP3    H233876   1.023   4.940   5.413
11311TIP3   OH233877   2.036   4.772   4.278
11311TIP3    H133878   2.090   4.799   4.352
11311TIP3    H233879   1.963   4.725   4.318
11312TIP3   OH233880   3.045   3.453   0.901
11312TIP3    H133881   3.039   3.525   0.838
11312TIP3    H233882   3.106   3.391   0.860
11313TIP3   OH233883   2.041   5.648   2.432
11313TIP3    H133884   2.024   5.737   2.400
11313TIP3    H233885   2.057   5.597   2.353
11314TIP3   OH233886   5.749   7.194   1.963
11314TIP3    H133887   5.740   7.184   1.868
11314TIP3    H233888   5.819   7.134   1.987
11315TIP3   OH233889   0.622   7.463   6.286
11315TIP3    H133890   0.644   7.536   6.228
11315TIP3    H233891   0.603   7.390   6.228
11316TIP3   OH233892   4.818   0.585   4.427
11316TIP3    H133893   4.878   0.529   4.476
11316TIP3    H233894   4.765   0.523   4.376
11317TIP3   OH233895   0.700   2.982   0.472
11317TIP3    H133896   0.719   2.889   0.480
11317TIP3    H233897   0.619   2.995   0.522
11318TIP3   OH233898   1.532   7.448   3.561
11318TIP3    H133899   1.607   7.476   3.509
11318TIP3    H233900   1.569   7.430   3.648
11319TIP3   OH233901   2.462   2.762   6.365
11319TIP3    H133902   2.391   2.825   6.355
11319TIP3    H233903   2.538   2.805   6.326
11320TIP3   OH233904   2.831   0.347   6.032
11320TIP3    H133905   2.876   0.266   6.008
11320TIP3    H233906   2.830   0.399   5.951
11321TIP3   OH233907   1.021   7.175   0.600
11321TIP3    H133908   0.928   7.185   0.577
11321TIP3    H233909   1.029   7.221   0.684
11322TIP3   OH233910   5.007   2.839   2.539
11322TIP3    H133911   4.949   2.779   2.587
11322TIP3    H233912   4.961   2.923   2.541
11323TIP3   OH233913   5.061   0.087   1.251
11323TIP3    H133914   5.099   0.143   1.183
11323TIP3    H233915   4.990   0.040   1.206
11324TIP3   OH233916   1.502   2.971   0.968
11324TIP3    H133917   1.528   3.006   1.054
11324TIP3    H233918   1.555   2.892   0.957
11325TIP3   OH233919   3.775   4.445   2.429
11325TIP3    H133920   3.753   4.496   2.506
11325TIP3    H233921   3.726   4.486   2.358
11326TIP3   OH233922   7.350   2.498   1.958
11326TIP3    H133923   7.305   2.568   2.005
11326TIP3    H233924   7.369   2.536   1.872
11327TIP3   OH233925   6.144   1.939   4.252
11327TIP3    H133926   6.220   1.881   4.253
11327TIP3    H233927   6.082   1.898   4.313
11328TIP3   OH233928   2.842   4.048   1.600
11328TIP3    H133929   2.912   4.110   1.620
11328TIP3    H233930   2.803   4.082   1.520
11329TIP3   OH233931   7.085   4.524   6.428
11329TIP3    H133932   7.177   4.544   6.447
11329TIP3    H233933   7.077   4.542   6.334
11330TIP3   OH233934   5.725   0.798   2.081
11330TIP3    H133935   5.642   0.845   2.091
11330TIP3    H233936   5.753   0.818   1.992
11331TIP3   OH233937   0.063   7.315   4.252
11331TIP3    H133938   0.088   7.225   4.272
11331TIP3    H233939   0.016   7.309   4.169
11332TIP3   OH233940   5.203   1.771   5.106
11332TIP3    H133941   5.157   1.855   5.111
11332TIP3    H233942   5.133   1.706   5.102
11333TIP3   OH233943   0.228   7.643   0.712
11333TIP3    H133944   0.307   7.683   0.748
11333TIP3    H233945   0.200   7.702   0.643
11334TIP3   OH233946   7.788   6.237   2.430
11334TIP3    H133947   7.778   6.332   2.429
11334TIP3    H233948   7.776   6.212   2.521
11335TIP3   OH233949   0.440   4.014   2.760
11335TIP3    H133950   0.456   3.968   2.842
11335TIP3    H233951   0.498   4.090   2.763
11336TIP3   OH233952   1.936   7.582   6.712
11336TIP3    H133953   1.920   7.514   6.646
11336TIP3    H233954   1.935   7.664   6.662
11337TIP3   OH233955   5.753   0.341   3.322
11337TIP3    H133956   5.675   0.291   3.300
11337TIP3    H233957   5.721   0.428   3.344
11338TIP3   OH233958   4.642   3.541   0.212
11338TIP3    H133959   4.721   3.519   0.163
11338TIP3    H233960   4.618   3.460   0.257
11339TIP3   OH233961   0.952   2.760   4.097
11339TIP3    H133962   0.959   2.690   4.032
11339TIP3    H233963   0.980   2.839   4.051
11340TIP3   OH233964   7.170   2.081   3.000
11340TIP3    H133965   7.077   2.107   2.999
11340TIP3    H233966   7.206   2.127   3.075
11341TIP3   OH233967   2.831   6.034   2.771
11341TIP3    H133968   2.872   5.957   2.810
11341TIP3    H233969   2.870   6.108   2.818
11342TIP3   OH233970   2.744   6.418   1.160
11342TIP3    H133971   2.708   6.462   1.083
11342TIP3    H233972   2.807   6.355   1.125
11343TIP3   OH233973   5.162   4.874   4.480
11343TIP3    H133974   5.230   4.807   4.491
11343TIP3    H233975   5.093   4.849   4.542
11344TIP3   OH233976   3.870   7.123   6.579
11344TIP3    H133977   3.850   7.131   6.485
11344TIP3    H233978   3.789   7.092   6.618
11345TIP3   OH233979   0.367   1.918   4.169
11345TIP3    H133980   0.301   1.895   4.104
11345TIP3    H233981   0.381   1.837   4.218
11346TIP3   OH233982   6.266   5.635   6.766
11346TIP3    H133983   6.278   5.718   6.812
11346TIP3    H233984   6.205   5.586   6.820
11347TIP3   OH233985   1.101   3.693   2.609
11347TIP3    H133986   1.055   3.625   2.559
11347TIP3    H233987   1.046   3.771   2.600
11348TIP3   OH233988   8.057   3.581   2.767
11348TIP3    H133989   8.078   3.649   2.703
11348TIP3    H233990   8.077   3.621   2.852
11349TIP3   OH233991   0.837   0.482   1.367
11349TIP3    H133992   0.806   0.569   1.342
11349TIP3    H233993   0.790   0.423   1.308
11350TIP3   OH233994   7.195   4.513   0.212
11350TIP3    H133995   7.246   4.466   0.277
11350TIP3    H233996   7.104   4.500   0.238
11351TIP3   OH233997   1.663   1.690   3.093
11351TIP3    H133998   1.610   1.650   3.025
11351TIP3    H233999   1.600   1.736   3.149
11352TIP3   OH234000   2.116   2.392   5.389
11352TIP3    H134001   2.081   2.457   5.449
11352TIP3    H234002   2.211   2.400   5.398
11353TIP3   OH234003   2.388   1.534   2.939
11353TIP3    H134004   2.326   1.576   2.999
11353TIP3    H234005   2.412   1.453   2.984
11354TIP3   OH234006   3.380   2.283   2.340
11354TIP3    H134007   3.364   2.358   2.398
11354TIP3    H234008   3.475   2.277   2.335
11355TIP3   OH234009   3.658   0.571   4.144
11355TIP3    H134010   3.740   0.532   4.113
11355TIP3    H234011   3.606   0.497   4.175
11356TIP3   OH234012   2.630   4.600   5.371
11356TIP3    H134013   2.717   4.600   5.332
11356TIP3    H234014   2.570   4.604   5.297
11357TIP3   OH234015   6.307   1.222   1.039
11357TIP3    H134016   6.268   1.233   1.126
11357TIP3    H234017   6.390   1.177   1.056
11358TIP3   OH234018   7.018   6.514   5.341
11358TIP3    H134019   7.064   6.471   5.269
11358TIP3    H234020   7.057   6.602   5.344
11359TIP3   OH234021   4.653   3.818   1.681
11359TIP3    H134022   4.559   3.839   1.682
11359TIP3    H234023   4.681   3.839   1.592
11360TIP3   OH234024   6.367   7.722   0.683
11360TIP3    H134025   6.456   7.748   0.704
11360TIP3    H234026   6.324   7.802   0.653
11361TIP3   OH234027   1.736   4.575   5.822
11361TIP3    H134028   1.822   4.541   5.797
11361TIP3    H234029   1.752   4.667   5.842
11362TIP3   OH234030   4.417   3.746   0.505
11362TIP3    H134031   4.391   3.726   0.595
11362TIP3    H234032   4.432   3.841   0.504
11363TIP3   OH234033   5.834   5.220   6.542
11363TIP3    H134034   5.833   5.249   6.451
11363TIP3    H234035   5.802   5.130   6.540
11364TIP3   OH234036   1.574   6.955   6.336
11364TIP3    H134037   1.493   7.006   6.333
11364TIP3    H234038   1.597   6.943   6.244
11365TIP3   OH234039   6.517   2.838   0.734
11365TIP3    H134040   6.489   2.915   0.684
11365TIP3    H234041   6.611   2.832   0.718
11366TIP3   OH234042   4.067   1.816   0.796
11366TIP3    H134043   4.081   1.856   0.711
11366TIP3    H234044   4.151   1.825   0.841
11367TIP3   OH234045   4.841   0.909   5.092
11367TIP3    H134046   4.757   0.949   5.115
11367TIP3    H234047   4.825   0.815   5.096
11368TIP3   OH234048   1.992   0.516   2.556
11368TIP3    H134049   1.979   0.421   2.554
11368TIP3    H234050   1.963   0.547   2.470
11369TIP3   OH234051   3.613   5.947   3.759
11369TIP3    H134052   3.612   6.043   3.755
11369TIP3    H234053   3.652   5.927   3.844
11370TIP3   OH234054   7.730   3.312   5.580
11370TIP3    H134055   7.794   3.362   5.529
11370TIP3    H234056   7.651   3.312   5.527
11371TIP3   OH234057   1.122   2.784   5.283
11371TIP3    H134058   1.086   2.757   5.367
11371TIP3    H234059   1.109   2.879   5.281
11372TIP3   OH234060   0.764   3.661   1.127
11372TIP3    H134061   0.690   3.623   1.081
11372TIP3    H234062   0.820   3.587   1.149
11373TIP3   OH234063   4.010   7.161   4.704
11373TIP3    H134064   4.041   7.181   4.792
11373TIP3    H234065   3.915   7.153   4.713
11374TIP3   OH234066   6.632   5.202   2.980
11374TIP3    H134067   6.689   5.236   2.912
11374TIP3    H234068   6.686   5.139   3.027
11375TIP3   OH234069   4.270   1.695   1.583
11375TIP3    H134070   4.266   1.628   1.515
11375TIP3    H234071   4.180   1.727   1.589
11376TIP3   OH234072   1.391   2.596   1.748
11376TIP3    H134073   1.358   2.572   1.662
11376TIP3    H234074   1.313   2.606   1.802
11377TIP3   OH234075   2.593   1.289   4.506
11377TIP3    H134076   2.676   1.330   4.481
11377TIP3    H234077   2.531   1.319   4.439
11378TIP3   OH234078   2.629   0.308   3.659
11378TIP3    H134079   2.616   0.347   3.746
11378TIP3    H234080   2.613   0.215   3.672
11379TIP3   OH234081   0.617   2.258   1.854
11379TIP3    H134082   0.644   2.168   1.868
11379TIP3    H234083   0.558   2.254   1.779
11380TIP3   OH234084   6.934   2.677   2.442
11380TIP3    H134085   6.991   2.723   2.504
11380TIP3    H234086   6.911   2.595   2.487
11381TIP3   OH234087   8.055   4.250   3.123
11381TIP3    H134088   7.998   4.251   3.200
11381TIP3    H234089   7.995   4.232   3.050
11382TIP3   OH234090   2.208   0.770   1.529
11382TIP3    H134091   2.229   0.863   1.536
11382TIP3    H234092   2.289   0.729   1.500
11383TIP3   OH234093   2.622   3.871   6.183
11383TIP3    H134094   2.676   3.883   6.104
11383TIP3    H234095   2.665   3.924   6.250
11384TIP3   OH234096   1.119   5.906   3.872
11384TIP3    H134097   1.159   5.843   3.932
11384TIP3    H234098   1.116   5.861   3.788
11385TIP3   OH234099   7.383   6.685   3.476
11385TIP3    H134100   7.350   6.719   3.392
11385TIP3    H234101   7.308   6.638   3.513
11386TIP3   OH234102   2.624   5.647   0.472
11386TIP3    H134103   2.535   5.673   0.498
11386TIP3    H234104   2.676   5.658   0.552
11387TIP3   OH234105   7.018   6.609   1.109
11387TIP3    H134106   6.936   6.658   1.101
11387TIP3    H234107   7.045   6.622   1.200
11388TIP3   OH234108   2.223   7.623   3.586
11388TIP3    H134109   2.136   7.661   3.602
11388TIP3    H234110   2.237   7.637   3.492
11389TIP3   OH234111   5.568   6.202   4.766
11389TIP3    H134112   5.646   6.226   4.816
11389TIP3    H234113   5.551   6.279   4.710
11390TIP3   OH234114   1.034   3.118   4.402
11390TIP3    H134115   1.051   3.024   4.408
11390TIP3    H234116   1.073   3.145   4.318
11391TIP3   OH234117   4.187   7.683   5.894
11391TIP3    H134118   4.180   7.609   5.833
11391TIP3    H234119   4.118   7.743   5.866
11392TIP3   OH234120   6.705   5.008   1.021
11392TIP3    H134121   6.639   4.959   0.971
11392TIP3    H234122   6.730   4.948   1.092
11393TIP3   OH234123   6.252   3.403   2.541
11393TIP3    H134124   6.171   3.440   2.576
11393TIP3    H234125   6.319   3.468   2.561
11394TIP3   OH234126   0.797   3.768   2.908
11394TIP3    H134127   0.854   3.691   2.907
11394TIP3    H234128   0.852   3.839   2.874
11395TIP3   OH234129   1.571   6.317   2.996
11395TIP3    H134130   1.486   6.356   3.014
11395TIP3    H234131   1.633   6.388   3.009
11396TIP3   OH234132   3.726   4.353   6.450
11396TIP3    H134133   3.651   4.323   6.398
11396TIP3    H234134   3.773   4.273   6.474
11397TIP3   OH234135   5.631   2.641   0.132
11397TIP3    H134136   5.595   2.710   0.076
11397TIP3    H234137   5.698   2.598   0.078
11398TIP3   OH234138   7.957   6.997   0.586
11398TIP3    H134139   8.029   7.059   0.584
11398TIP3    H234140   7.983   6.927   0.526
11399TIP3   OH234141   3.234   5.867   5.413
11399TIP3    H134142   3.231   5.822   5.329
11399TIP3    H234143   3.276   5.950   5.394
11400TIP3   OH234144   1.719   6.127   3.206
11400TIP3    H134145   1.675   6.185   3.143
11400TIP3    H234146   1.720   6.178   3.287
11401TIP3   OH234147   0.445   3.665   3.953
11401TIP3    H134148   0.474   3.581   3.918
11401TIP3    H234149   0.424   3.717   3.876
11402TIP3   OH234150   6.477   7.245   4.128
11402TIP3    H134151   6.562   7.289   4.119
11402TIP3    H234152   6.458   7.211   4.040
11403TIP3   OH234153   4.418   5.418   4.024
11403TIP3    H134154   4.339   5.457   4.060
11403TIP3    H234155   4.387   5.356   3.958
11404TIP3   OH234156   7.579   0.957   5.717
11404TIP3    H134157   7.497   1.005   5.732
11404TIP3    H234158   7.626   0.964   5.800
11405TIP3   OH234159   6.993   4.993   4.710
11405TIP3    H134160   6.939   5.071   4.702
11405TIP3    H234161   7.059   5.016   4.776
11406TIP3   OH234162   0.172   1.660   2.344
11406TIP3    H134163   0.195   1.577   2.385
11406TIP3    H234164   0.239   1.721   2.373
11407TIP3   OH234165   7.354   7.388   2.262
11407TIP3    H134166   7.342   7.320   2.328
11407TIP3    H234167   7.435   7.364   2.217
11408TIP3   OH234168   6.038   6.736   2.839
11408TIP3    H134169   6.091   6.747   2.918
11408TIP3    H234170   5.948   6.737   2.869
11409TIP3   OH234171   8.310   6.948   1.608
11409TIP3    H134172   8.216   6.937   1.601
11409TIP3    H234173   8.347   6.865   1.577
11410TIP3   OH234174   2.553   3.612   4.229
11410TIP3    H134175   2.589   3.688   4.183
11410TIP3    H234176   2.616   3.542   4.214
11411TIP3   OH234177   8.021   1.280   3.229
11411TIP3    H134178   8.017   1.376   3.235
11411TIP3    H234179   8.087   1.255   3.294
11412TIP3   OH234180   3.298   6.725   2.537
11412TIP3    H134181   3.390   6.754   2.535
11412TIP3    H234182   3.252   6.788   2.482
11413TIP3   OH234183   2.555   0.229   2.149
11413TIP3    H134184   2.614   0.189   2.084
11413TIP3    H234185   2.602   0.221   2.232
11414TIP3   OH234186   2.852   2.786   6.750
11414TIP3    H134187   2.778   2.838   6.782
11414TIP3    H234188   2.842   2.700   6.792
11415TIP3   OH234189   0.962   7.614   1.813
11415TIP3    H134190   0.930   7.679   1.876
11415TIP3    H234191   0.913   7.535   1.834
11416TIP3   OH234192   6.081   3.649   1.097
11416TIP3    H134193   5.987   3.647   1.077
11416TIP3    H234194   6.098   3.740   1.122
11417TIP3   OH234195   6.687   2.691   4.799
11417TIP3    H134196   6.670   2.720   4.710
11417TIP3    H234197   6.647   2.604   4.804
11418TIP3   OH234198   5.496   6.493   4.406
11418TIP3    H134199   5.408   6.499   4.370
11418TIP3    H234200   5.485   6.510   4.500
11419TIP3   OH234201   7.122   7.109   5.841
11419TIP3    H134202   7.046   7.087   5.787
11419TIP3    H234203   7.122   7.042   5.910
11420TIP3   OH234204   7.143   2.849   6.317
11420TIP3    H134205   7.096   2.903   6.254
11420TIP3    H234206   7.186   2.782   6.264
11421TIP3   OH234207   4.492   4.309   5.194
11421TIP3    H134208   4.570   4.260   5.219
11421TIP3    H234209   4.514   4.400   5.213
11422TIP3   OH234210   4.877   1.086   0.273
11422TIP3    H134211   4.869   1.163   0.330
11422TIP3    H234212   4.970   1.083   0.250
11423TIP3   OH234213   5.635   5.586   6.747
11423TIP3    H134214   5.616   5.622   6.833
11423TIP3    H234215   5.731   5.581   6.743
11424TIP3   OH234216   5.132   4.433   0.647
11424TIP3    H134217   5.217   4.395   0.670
11424TIP3    H234218   5.151   4.523   0.623
11425TIP3   OH234219   5.624   2.320   5.980
11425TIP3    H134220   5.571   2.245   5.955
11425TIP3    H234221   5.564   2.395   5.973
11426TIP3   OH234222   5.091   2.073   2.056
11426TIP3    H134223   5.154   2.130   2.012
11426TIP3    H234224   5.090   1.993   2.002
11427TIP3   OH234225   1.563   5.009   6.312
11427TIP3    H134226   1.519   4.925   6.323
11427TIP3    H234227   1.561   5.050   6.399
11428TIP3   OH234228   1.590   0.629   1.845
11428TIP3    H134229   1.549   0.555   1.890
11428TIP3    H234230   1.663   0.590   1.796
11429TIP3   OH234231   0.631   1.083   1.171
11429TIP3    H134232   0.658   1.025   1.243
11429TIP3    H234233   0.599   1.024   1.103
11430TIP3   OH234234   5.615   5.085   1.392
11430TIP3    H134235   5.629   5.177   1.412
11430TIP3    H234236   5.543   5.084   1.330
11431TIP3   OH234237   0.199   6.211   6.387
11431TIP3    H134238   0.245   6.293   6.370
11431TIP3    H234239   0.191   6.208   6.482
11432TIP3   OH234240   1.671   0.122   3.090
11432TIP3    H134241   1.588   0.165   3.066
11432TIP3    H234242   1.732   0.150   3.022
11433TIP3   OH234243   7.726   6.575   1.838
11433TIP3    H134244   7.659   6.638   1.865
11433TIP3    H234245   7.681   6.516   1.778
11434TIP3   OH234246   6.096   4.051   3.316
11434TIP3    H134247   6.047   3.979   3.275
11434TIP3    H234248   6.161   4.077   3.251
11435TIP3   OH234249   1.079   7.845   6.380
11435TIP3    H134250   1.113   7.830   6.468
11435TIP3    H234251   1.025   7.768   6.362
11436TIP3   OH234252   7.864   3.079   1.576
11436TIP3    H134253   7.909   3.163   1.586
11436TIP3    H234254   7.863   3.063   1.482
11437TIP3   OH234255   1.039   5.415   1.110
11437TIP3    H134256   1.007   5.325   1.115
11437TIP3    H234257   1.068   5.425   1.019
11438TIP3   OH234258   4.885   4.630   6.560
11438TIP3    H134259   4.980   4.637   6.567
11438TIP3    H234260   4.852   4.714   6.591
11439TIP3   OH234261   1.342   1.592   6.292
11439TIP3    H134262   1.375   1.550   6.371
11439TIP3    H234263   1.396   1.671   6.282
11440TIP3   OH234264   6.177   3.455   5.129
11440TIP3    H134265   6.205   3.373   5.171
11440TIP3    H234266   6.083   3.446   5.119
11441TIP3   OH234267   4.444   5.676   0.437
11441TIP3    H134268   4.455   5.616   0.511
11441TIP3    H234269   4.352   5.665   0.412
11442TIP3   OH234270   7.708   3.104   4.684
11442TIP3    H134271   7.771   3.032   4.678
11442TIP3    H234272   7.733   3.150   4.765
11443TIP3   OH234273   7.765   6.220   5.837
11443TIP3    H134274   7.731   6.292   5.891
11443TIP3    H234275   7.710   6.222   5.758
11444TIP3   OH234276   1.542   7.371   4.159
11444TIP3    H134277   1.608   7.428   4.119
11444TIP3    H234278   1.518   7.415   4.240
11445TIP3   OH234279   3.453   7.567   5.886
11445TIP3    H134280   3.496   7.633   5.831
11445TIP3    H234281   3.498   7.574   5.970
11446TIP3   OH234282   1.559   5.265   6.796
11446TIP3    H134283   1.469   5.299   6.796
11446TIP3    H234284   1.573   5.232   6.708
11447TIP3   OH234285   0.683   4.400   4.650
11447TIP3    H134286   0.753   4.351   4.607
11447TIP3    H234287   0.624   4.425   4.578
11448TIP3   OH234288   1.440   5.375   5.012
11448TIP3    H134289   1.405   5.303   5.064
11448TIP3    H234290   1.469   5.440   5.076
11449TIP3   OH234291   2.306   0.983   3.794
11449TIP3    H134292   2.323   0.917   3.862
11449TIP3    H234293   2.230   0.949   3.746
11450TIP3   OH234294   7.253   0.019   6.585
11450TIP3    H134295   7.256   0.095   6.644
11450TIP3    H234296   7.309  -0.046   6.628
11451TIP3   OH234297   1.420   2.454   4.832
11451TIP3    H134298   1.454   2.389   4.893
11451TIP3    H234299   1.489   2.464   4.766
11452TIP3   OH234300   5.663   6.570   3.391
11452TIP3    H134301   5.592   6.597   3.449
11452TIP3    H234302   5.621   6.515   3.326
11453TIP3   OH234303   1.122   0.306   4.990
11453TIP3    H134304   1.211   0.326   5.020
11453TIP3    H234305   1.098   0.226   5.036
11454TIP3   OH234306   8.144   0.440   3.869
11454TIP3    H134307   8.234   0.458   3.895
11454TIP3    H234308   8.152   0.386   3.790
11455TIP3   OH234309   7.262   1.572   4.590
11455TIP3    H134310   7.312   1.639   4.636
11455TIP3    H234311   7.297   1.489   4.622
11456TIP3   OH234312   0.790   0.315   0.889
11456TIP3    H134313   0.700   0.338   0.912
11456TIP3    H234314   0.844   0.379   0.937
11457TIP3   OH234315   3.597   6.345   1.051
11457TIP3    H134316   3.603   6.316   1.142
11457TIP3    H234317   3.515   6.395   1.048
11458TIP3   OH234318   6.876   5.525   4.181
11458TIP3    H134319   6.867   5.554   4.271
11458TIP3    H234320   6.881   5.606   4.130
11459TIP3   OH234321   3.144   4.018   0.075
11459TIP3    H134322   3.133   4.041  -0.017
11459TIP3    H234323   3.163   3.924   0.073
11460TIP3   OH234324   4.033   5.167   0.624
11460TIP3    H134325   3.978   5.162   0.703
11460TIP3    H234326   3.972   5.185   0.553
11461TIP3   OH234327   7.440   0.191   5.741
11461TIP3    H134328   7.384   0.115   5.751
11461TIP3    H234329   7.391   0.251   5.684
11462TIP3   OH234330   0.313   0.826   6.153
11462TIP3    H134331   0.321   0.844   6.060
11462TIP3    H234332   0.334   0.733   6.162
11463TIP3   OH234333   1.061   5.989   5.610
11463TIP3    H134334   1.048   6.058   5.675
11463TIP3    H234335   0.993   5.925   5.629
11464TIP3   OH234336   2.072   6.671   0.508
11464TIP3    H134337   1.978   6.677   0.522
11464TIP3    H234338   2.095   6.582   0.537
11465TIP3   OH234339   5.018   2.074   0.918
11465TIP3    H134340   4.977   2.036   0.840
11465TIP3    H234341   5.028   2.167   0.898
11466TIP3   OH234342   8.103   3.319   5.653
11466TIP3    H134343   8.143   3.341   5.569
11466TIP3    H234344   8.085   3.225   5.647
11467TIP3   OH234345   7.681   0.093   2.528
11467TIP3    H134346   7.607   0.086   2.588
11467TIP3    H234347   7.696   0.004   2.497
11468TIP3   OH234348   1.692   6.633   3.796
11468TIP3    H134349   1.731   6.691   3.730
11468TIP3    H234350   1.604   6.668   3.809
11469TIP3   OH234351   1.821   0.510   3.476
11469TIP3    H134352   1.839   0.479   3.565
11469TIP3    H234353   1.813   0.430   3.424
11470TIP3   OH234354   5.716   6.511   4.842
11470TIP3    H134355   5.735   6.546   4.928
11470TIP3    H234356   5.644   6.565   4.809
11471TIP3   OH234357   0.872   1.475   5.080
11471TIP3    H134358   0.781   1.500   5.068
11471TIP3    H234359   0.892   1.499   5.171
11472TIP3   OH234360   4.325   3.853   1.485
11472TIP3    H134361   4.352   3.945   1.474
11472TIP3    H234362   4.368   3.807   1.414
11473TIP3   OH234363   6.365   7.327   1.258
11473TIP3    H134364   6.440   7.340   1.200
11473TIP3    H234365   6.307   7.268   1.208
11474TIP3   OH234366   0.109   4.277   4.852
11474TIP3    H134367   0.180   4.285   4.916
11474TIP3    H234368   0.124   4.192   4.811
11475TIP3   OH234369   1.324   1.286   2.885
11475TIP3    H134370   1.237   1.300   2.921
11475TIP3    H234371   1.326   1.339   2.805
11476TIP3   OH234372   0.246   5.903   1.229
11476TIP3    H134373   0.330   5.871   1.263
11476TIP3    H234374   0.253   5.893   1.134
11477TIP3   OH234375   3.695   6.449   2.361
11477TIP3    H134376   3.616   6.398   2.341
11477TIP3    H234377   3.676   6.537   2.329
11478TIP3   OH234378   1.488   5.381   2.152
11478TIP3    H134379   1.413   5.441   2.159
11478TIP3    H234380   1.461   5.318   2.085
11479TIP3   OH234381   1.842   1.205   2.378
11479TIP3    H134382   1.769   1.143   2.381
11479TIP3    H234383   1.880   1.193   2.291
11480TIP3   OH234384   7.164   6.576   2.430
11480TIP3    H134385   7.153   6.542   2.519
11480TIP3    H234386   7.100   6.648   2.424
11481TIP3   OH234387   3.549   6.028   2.575
11481TIP3    H134388   3.462   5.986   2.580
11481TIP3    H234389   3.547   6.076   2.493
11482TIP3   OH234390   2.747   0.133   5.759
11482TIP3    H134391   2.704   0.198   5.703
11482TIP3    H234392   2.687   0.058   5.758
11483TIP3   OH234393   4.395   1.572   2.743
11483TIP3    H134394   4.357   1.500   2.793
11483TIP3    H234395   4.410   1.641   2.807
11484TIP3   OH234396   2.713   3.855   4.730
11484TIP3    H134397   2.737   3.765   4.751
11484TIP3    H234398   2.697   3.896   4.815
11485TIP3   OH234399   8.031   7.608   2.435
11485TIP3    H134400   8.107   7.660   2.409
11485TIP3    H234401   8.067   7.539   2.491
11486TIP3   OH234402   1.433   6.937   3.556
11486TIP3    H134403   1.382   6.936   3.475
11486TIP3    H234404   1.499   7.005   3.542
11487TIP3   OH234405   7.436   1.381   4.646
11487TIP3    H134406   7.508   1.344   4.697
11487TIP3    H234407   7.477   1.419   4.569
11488TIP3   OH234408   4.130   0.662   4.980
11488TIP3    H134409   4.143   0.638   4.888
11488TIP3    H234410   4.219   0.677   5.013
11489TIP3   OH234411   1.977   2.060   3.504
11489TIP3    H134412   1.980   1.998   3.577
11489TIP3    H234413   1.968   2.005   3.426
11490TIP3   OH234414   5.435   6.127   3.812
11490TIP3    H134415   5.500   6.114   3.881
11490TIP3    H234416   5.461   6.209   3.770
11491TIP3   OH234417   4.466   2.860   2.902
11491TIP3    H134418   4.474   2.898   2.814
11491TIP3    H234419   4.449   2.935   2.958
11492TIP3   OH234420   6.577   1.974   3.500
11492TIP3    H134421   6.630   1.970   3.580
11492TIP3    H234422   6.503   1.917   3.517
11493TIP3   OH234423   0.937   2.716   2.048
11493TIP3    H134424   0.867   2.729   1.984
11493TIP3    H234425   0.920   2.630   2.086
11494TIP3   OH234426   3.061   6.529   1.175
11494TIP3    H134427   3.029   6.440   1.159
11494TIP3    H234428   3.069   6.567   1.088
11495TIP3   OH234429   1.054   0.917   5.402
11495TIP3    H134430   1.139   0.906   5.443
11495TIP3    H234431   0.998   0.951   5.472
11496TIP3   OH234432   2.356   3.794   1.131
11496TIP3    H134433   2.293   3.778   1.201
11496TIP3    H234434   2.439   3.757   1.164
11497TIP3   OH234435   3.427   2.082   5.620
11497TIP3    H134436   3.505   2.135   5.601
11497TIP3    H234437   3.371   2.140   5.672
11498TIP3   OH234438   1.731   4.469   5.525
11498TIP3    H134439   1.662   4.452   5.460
11498TIP3    H234440   1.697   4.540   5.579
11499TIP3   OH234441   3.600   1.615   1.775
11499TIP3    H134442   3.681   1.580   1.811
11499TIP3    H234443   3.547   1.637   1.852
11500TIP3   OH234444   2.013   7.199   1.343
11500TIP3    H134445   1.940   7.256   1.321
11500TIP3    H234446   2.054   7.179   1.259
11501TIP3   OH234447   4.495   4.091   0.851
11501TIP3    H134448   4.579   4.050   0.866
11501TIP3    H234449   4.479   4.081   0.757
11502TIP3   OH234450   8.140   7.609   3.762
11502TIP3    H134451   8.152   7.520   3.794
11502TIP3    H234452   8.150   7.602   3.667
11503TIP3   OH234453   0.628   1.526   5.808
11503TIP3    H134454   0.704   1.467   5.814
11503TIP3    H234455   0.664   1.613   5.826
11504TIP3   OH234456   2.422   5.522   6.691
11504TIP3    H134457   2.412   5.612   6.724
11504TIP3    H234458   2.453   5.472   6.767
11505TIP3   OH234459   0.292   7.049   2.763
11505TIP3    H134460   0.337   7.079   2.684
11505TIP3    H234461   0.210   7.097   2.764
11506TIP3   OH234462   6.749   3.179   3.435
11506TIP3    H134463   6.719   3.190   3.526
11506TIP3    H234464   6.840   3.151   3.443
11507TIP3   OH234465   4.414   7.003   1.362
11507TIP3    H134466   4.413   7.025   1.269
11507TIP3    H234467   4.501   6.965   1.377
11508TIP3   OH234468   3.412   7.478   0.179
11508TIP3    H134469   3.341   7.540   0.166
11508TIP3    H234470   3.420   7.470   0.274
11509TIP3   OH234471   7.818   5.400   4.938
11509TIP3    H134472   7.885   5.354   4.988
11509TIP3    H234473   7.850   5.399   4.848
11510TIP3   OH234474   5.481   2.229   1.791
11510TIP3    H134475   5.444   2.167   1.727
11510TIP3    H234476   5.408   2.288   1.811
11511TIP3   OH234477   2.006   6.664   2.370
11511TIP3    H134478   2.092   6.622   2.372
11511TIP3    H234479   2.025   6.757   2.359
11512TIP3   OH234480   7.272   0.567   3.424
11512TIP3    H134481   7.313   0.585   3.508
11512TIP3    H234482   7.181   0.547   3.445
11513TIP3   OH234483   5.335   2.186   0.991
11513TIP3    H134484   5.421   2.169   0.954
11513TIP3    H234485   5.290   2.239   0.925
11514TIP3   OH234486   6.676   4.356   0.579
11514TIP3    H134487   6.677   4.432   0.520
11514TIP3    H234488   6.766   4.349   0.610
11515TIP3   OH234489   2.264   7.423   0.855
11515TIP3    H134490   2.318   7.358   0.901
11515TIP3    H234491   2.322   7.458   0.787
11516TIP3   OH234492   1.885   6.973   1.881
11516TIP3    H134493   1.858   6.910   1.814
11516TIP3    H234494   1.955   6.929   1.928
11517TIP3   OH234495   0.951   0.405   3.917
11517TIP3    H134496   1.040   0.371   3.909
11517TIP3    H234497   0.953   0.487   3.868
11518TIP3   OH234498   2.506   3.462   5.962
11518TIP3    H134499   2.458   3.545   5.959
11518TIP3    H234500   2.561   3.463   5.884
11519TIP3   OH234501   6.345   2.746   2.581
11519TIP3    H134502   6.258   2.760   2.546
11519TIP3    H234503   6.350   2.804   2.658
11520TIP3   OH234504   5.074   5.765   5.323
11520TIP3    H134505   5.139   5.800   5.263
11520TIP3    H234506   5.021   5.706   5.269
11521TIP3   OH234507   7.051   6.797   3.222
11521TIP3    H134508   7.136   6.788   3.179
11521TIP3    H234509   7.049   6.887   3.252
11522TIP3   OH234510   5.722   6.005   5.000
11522TIP3    H134511   5.748   6.095   4.982
11522TIP3    H234512   5.730   5.961   4.916
11523TIP3   OH234513   4.008   0.539   1.260
11523TIP3    H134514   4.039   0.494   1.339
11523TIP3    H234515   4.066   0.615   1.252
11524TIP3   OH234516   5.412   0.653   2.216
11524TIP3    H134517   5.409   0.745   2.190
11524TIP3    H234518   5.332   0.640   2.267
11525TIP3   OH234519   6.602   0.474   6.249
11525TIP3    H134520   6.556   0.556   6.229
11525TIP3    H234521   6.533   0.415   6.280
11526TIP3   OH234522   0.624   3.698   1.742
11526TIP3    H134523   0.534   3.666   1.733
11526TIP3    H234524   0.624   3.746   1.824
11527TIP3   OH234525   3.193   4.328   0.410
11527TIP3    H134526   3.204   4.233   0.417
11527TIP3    H234527   3.163   4.354   0.497
11528TIP3   OH234528   2.288   5.027   0.558
11528TIP3    H134529   2.367   4.984   0.590
11528TIP3    H234530   2.216   4.972   0.591
11529TIP3   OH234531   6.101   1.006   1.969
11529TIP3    H134532   6.033   1.073   1.980
11529TIP3    H234533   6.175   1.039   2.020
11530TIP3   OH234534   6.838   4.175   5.971
11530TIP3    H134535   6.780   4.184   5.895
11530TIP3    H234536   6.921   4.211   5.942
11531TIP3   OH234537   7.175   3.968   0.062
11531TIP3    H134538   7.118   4.043   0.081
11531TIP3    H234539   7.156   3.946  -0.029
11532TIP3   OH234540   7.565   3.978   1.304
11532TIP3    H134541   7.528   3.892   1.286
11532TIP3    H234542   7.634   3.962   1.368
11533TIP3   OH234543   1.213   7.609   2.787
11533TIP3    H134544   1.287   7.549   2.771
11533TIP3    H234545   1.248   7.696   2.767
11534TIP3   OH234546   3.036   2.339   2.605
11534TIP3    H134547   3.062   2.248   2.614
11534TIP3    H234548   2.995   2.344   2.518
11535TIP3   OH234549   4.614   6.104   6.240
11535TIP3    H134550   4.629   6.024   6.189
11535TIP3    H234551   4.694   6.155   6.228
11536TIP3   OH234552   0.262   0.701   5.263
11536TIP3    H134553   0.341   0.682   5.314
11536TIP3    H234554   0.235   0.788   5.292
11537TIP3   OH234555   6.685   4.142   2.698
11537TIP3    H134556   6.598   4.105   2.681
11537TIP3    H234557   6.699   4.203   2.626
11538TIP3   OH234558   0.584   1.083   2.240
11538TIP3    H134559   0.496   1.068   2.274
11538TIP3    H234560   0.591   1.025   2.164
11539TIP3   OH234561   1.651   4.196   6.634
11539TIP3    H134562   1.622   4.278   6.595
11539TIP3    H234563   1.631   4.129   6.568
11540TIP3   OH234564   3.872   4.640   4.318
11540TIP3    H134565   3.871   4.645   4.413
11540TIP3    H234566   3.943   4.579   4.297
11541TIP3   OH234567   2.062   6.815   4.597
11541TIP3    H134568   2.157   6.830   4.598
11541TIP3    H234569   2.026   6.894   4.558
11542TIP3   OH234570   5.878   7.695   0.783
11542TIP3    H134571   5.964   7.655   0.799
11542TIP3    H234572   5.815   7.628   0.811
11543TIP3   OH234573   6.974   0.037   1.373
11543TIP3    H134574   6.947   0.069   1.287
11543TIP3    H234575   6.965   0.113   1.430
11544TIP3   OH234576   3.988   5.779   0.439
11544TIP3    H134577   4.050   5.736   0.380
11544TIP3    H234578   4.017   5.754   0.527
11545TIP3   OH234579   2.935   5.942   5.676
11545TIP3    H134580   2.888   6.024   5.695
11545TIP3    H234581   3.027   5.968   5.670
11546TIP3   OH234582   5.070   6.999   0.506
11546TIP3    H134583   5.021   7.031   0.430
11546TIP3    H234584   5.029   7.044   0.581
11547TIP3   OH234585   7.761   4.176   1.030
11547TIP3    H134586   7.801   4.091   1.012
11547TIP3    H234587   7.809   4.209   1.107
11548TIP3   OH234588   2.773   2.042   1.031
11548TIP3    H134589   2.802   1.955   1.005
11548TIP3    H234590   2.678   2.034   1.040
11549TIP3   OH234591   3.445   4.561   2.428
11549TIP3    H134592   3.473   4.476   2.394
11549TIP3    H234593   3.506   4.624   2.390
11550TIP3   OH234594   0.451   3.836   5.748
11550TIP3    H134595   0.457   3.861   5.655
11550TIP3    H234596   0.379   3.889   5.782
11551TIP3   OH234597   1.376   3.644   2.564
11551TIP3    H134598   1.404   3.553   2.574
11551TIP3    H234599   1.282   3.642   2.578
11552TIP3   OH234600   1.977   1.256   2.150
11552TIP3    H134601   2.036   1.306   2.207
11552TIP3    H234602   1.924   1.322   2.107
11553TIP3   OH234603   1.989   5.807   1.669
11553TIP3    H134604   1.914   5.802   1.728
11553TIP3    H234605   2.062   5.772   1.720
11554TIP3   OH234606   1.112   1.646   1.914
11554TIP3    H134607   1.089   1.695   1.835
11554TIP3    H234608   1.120   1.555   1.884
11555TIP3   OH234609   6.467   5.439   3.051
11555TIP3    H134610   6.534   5.371   3.062
11555TIP3    H234611   6.507   5.504   2.995
11556TIP3   OH234612   5.755   7.733   5.553
11556TIP3    H134613   5.765   7.773   5.640
11556TIP3    H234614   5.703   7.654   5.569
11557TIP3   OH234615   3.526   0.714   2.336
11557TIP3    H134616   3.437   0.679   2.331
11557TIP3    H234617   3.515   0.801   2.375
11558TIP3   OH234618   1.299   6.373   3.062
11558TIP3    H134619   1.224   6.320   3.034
11558TIP3    H234620   1.263   6.461   3.071
11559TIP3   OH234621   3.182   4.670   0.235
11559TIP3    H134622   3.137   4.594   0.197
11559TIP3    H234623   3.252   4.690   0.174
11560TIP3   OH234624   1.950   1.718   0.163
11560TIP3    H134625   1.955   1.807   0.129
11560TIP3    H234626   2.009   1.667   0.107
11561TIP3   OH234627   2.875   1.695   2.139
11561TIP3    H134628   2.782   1.684   2.160
11561TIP3    H234629   2.875   1.738   2.053
11562TIP3   OH234630   1.575   3.787   6.521
11562TIP3    H134631   1.579   3.761   6.429
11562TIP3    H234632   1.493   3.750   6.552
11563TIP3   OH234633   1.142   6.343   2.053
11563TIP3    H134634   1.139   6.291   2.134
11563TIP3    H234635   1.126   6.433   2.082
11564TIP3   OH234636   4.012   6.062   0.526
11564TIP3    H134637   4.013   5.969   0.501
11564TIP3    H234638   3.919   6.083   0.535
11565TIP3   OH234639   3.565   5.275   6.073
11565TIP3    H134640   3.599   5.202   6.021
11565TIP3    H234641   3.485   5.301   6.028
11566TIP3   OH234642   0.526   3.363   6.153
11566TIP3    H134643   0.441   3.405   6.161
11566TIP3    H234644   0.523   3.289   6.213
11567TIP3   OH234645   5.644   5.781   5.307
11567TIP3    H134646   5.643   5.871   5.337
11567TIP3    H234647   5.551   5.758   5.297
11568TIP3   OH234648   7.494   6.578   6.198
11568TIP3    H134649   7.452   6.513   6.142
11568TIP3    H234650   7.572   6.535   6.232
11569TIP3   OH234651   1.216   6.013   2.381
11569TIP3    H134652   1.125   6.005   2.354
11569TIP3    H234653   1.262   6.044   2.303
11570TIP3   OH234654   6.869   2.705   3.683
11570TIP3    H134655   6.883   2.634   3.746
11570TIP3    H234656   6.779   2.693   3.653
11571TIP3   OH234657   2.716   0.961   4.455
11571TIP3    H134658   2.809   0.951   4.475
11571TIP3    H234659   2.681   1.012   4.528
11572TIP3   OH234660   6.864   2.334   1.258
11572TIP3    H134661   6.887   2.427   1.258
11572TIP3    H234662   6.941   2.291   1.221
11573TIP3   OH234663   7.610   0.592   2.335
11573TIP3    H134664   7.625   0.617   2.426
11573TIP3    H234665   7.585   0.673   2.291
11574TIP3   OH234666   6.844   1.767   1.735
11574TIP3    H134667   6.798   1.704   1.791
11574TIP3    H234668   6.925   1.723   1.710
11575TIP3   OH234669   4.853   1.194   2.654
11575TIP3    H134670   4.835   1.139   2.731
11575TIP3    H234671   4.829   1.139   2.580
11576TIP3   OH234672   1.749   0.509   1.047
11576TIP3    H134673   1.808   0.525   0.974
11576TIP3    H234674   1.684   0.579   1.042
11577TIP3   OH234675   7.622   1.044   5.265
11577TIP3    H134676   7.539   1.085   5.243
11577TIP3    H234677   7.612   0.953   5.236
11578TIP3   OH234678   1.706   6.542   0.895
11578TIP3    H134679   1.785   6.574   0.852
11578TIP3    H234680   1.638   6.605   0.871
11579TIP3   OH234681   1.849   0.377   4.867
11579TIP3    H134682   1.756   0.371   4.890
11579TIP3    H234683   1.872   0.468   4.886
11580TIP3   OH234684  -0.005   2.674   3.073
11580TIP3    H134685   0.071   2.616   3.078
11580TIP3    H234686   0.019   2.739   3.007
11581TIP3   OH234687   4.527   1.086   3.110
11581TIP3    H134688   4.458   1.108   3.046
11581TIP3    H234689   4.534   1.164   3.165
11582TIP3   OH234690   4.292   4.749   0.052
11582TIP3    H134691   4.229   4.702   0.108
11582TIP3    H234692   4.250   4.832   0.033
11583TIP3   OH234693   6.947   3.810   4.497
11583TIP3    H134694   6.945   3.890   4.550
11583TIP3    H234695   6.959   3.740   4.561
11584TIP3   OH234696   3.594   1.024   2.979
11584TIP3    H134697   3.550   1.020   3.064
11584TIP3    H234698   3.528   0.996   2.916
11585TIP3   OH234699   1.082   4.899   6.188
11585TIP3    H134700   1.076   4.886   6.283
11585TIP3    H234701   1.128   4.821   6.156
11586TIP3   OH234702   6.866   7.260   3.349
11586TIP3    H134703   6.794   7.307   3.390
11586TIP3    H234704   6.873   7.299   3.261
11587TIP3   OH234705   4.865   0.158   3.383
11587TIP3    H134706   4.934   0.123   3.327
11587TIP3    H234707   4.787   0.159   3.327
11588TIP3   OH234708   1.991   7.560   4.473
11588TIP3    H134709   2.084   7.544   4.493
11588TIP3    H234710   1.956   7.598   4.554
11589TIP3   OH234711   6.908   1.951   0.400
11589TIP3    H134712   6.994   1.918   0.375
11589TIP3    H234713   6.926   2.029   0.452
11590TIP3   OH234714   3.474   7.002   0.188
11590TIP3    H134715   3.556   6.976   0.147
11590TIP3    H234716   3.444   6.923   0.233
11591TIP3   OH234717   7.221   4.065   4.066
11591TIP3    H134718   7.136   4.031   4.095
11591TIP3    H234719   7.273   3.987   4.048
11592TIP3   OH234720   2.687   5.904   0.235
11592TIP3    H134721   2.703   5.842   0.305
11592TIP3    H234722   2.773   5.924   0.199
11593TIP3   OH234723   3.688   0.421   2.306
11593TIP3    H134724   3.706   0.468   2.387
11593TIP3    H234725   3.666   0.490   2.243
11594TIP3   OH234726   1.767   0.339   2.464
11594TIP3    H134727   1.826   0.330   2.390
11594TIP3    H234728   1.706   0.407   2.438
11595TIP3   OH234729   7.587   7.537   3.940
11595TIP3    H134730   7.591   7.460   3.883
11595TIP3    H234731   7.582   7.500   4.029
11596TIP3   OH234732   6.579   2.824   4.207
11596TIP3    H134733   6.619   2.879   4.139
11596TIP3    H234734   6.645   2.759   4.229
11597TIP3   OH234735   0.359   1.964   5.322
11597TIP3    H134736   0.333   1.925   5.238
11597TIP3    H234737   0.277   1.968   5.372
11598TIP3   OH234738   6.639   6.543   6.480
11598TIP3    H134739   6.589   6.461   6.481
11598TIP3    H234740   6.602   6.593   6.407
11599TIP3   OH234741   7.951   4.059   0.474
11599TIP3    H134742   8.046   4.058   0.481
11599TIP3    H234743   7.934   4.053   0.380
11600TIP3   OH234744   1.528   6.813   1.903
11600TIP3    H134745   1.439   6.810   1.867
11600TIP3    H234746   1.568   6.731   1.873
11601TIP3   OH234747   0.305   3.720   2.322
11601TIP3    H134748   0.296   3.808   2.359
11601TIP3    H234749   0.218   3.681   2.332
11602TIP3   OH234750   6.258   3.036   6.228
11602TIP3    H134751   6.227   3.105   6.169
11602TIP3    H234752   6.215   3.055   6.312
11603TIP3   OH234753   5.924   4.559   4.330
11603TIP3    H134754   5.938   4.632   4.271
11603TIP3    H234755   6.012   4.527   4.351
11604TIP3   OH234756   3.250   6.156   4.494
11604TIP3    H134757   3.262   6.231   4.552
11604TIP3    H234758   3.159   6.129   4.509
11605TIP3   OH234759   6.619   0.775   5.326
11605TIP3    H134760   6.684   0.710   5.302
11605TIP3    H234761   6.581   0.804   5.243
11606TIP3   OH234762   6.123   3.454   3.966
11606TIP3    H134763   6.146   3.486   3.879
11606TIP3    H234764   6.043   3.403   3.953
11607TIP3   OH234765   0.547   6.200   1.027
11607TIP3    H134766   0.634   6.224   0.994
11607TIP3    H234767   0.557   6.109   1.054
11608TIP3   OH234768   3.002   0.826   4.012
11608TIP3    H134769   3.013   0.894   3.946
11608TIP3    H234770   3.028   0.868   4.094
11609TIP3   OH234771   4.467   2.342   2.472
11609TIP3    H134772   4.399   2.280   2.500
11609TIP3    H234773   4.502   2.304   2.391
11610TIP3   OH234774   1.991   2.058   5.625
11610TIP3    H134775   1.932   2.085   5.555
11610TIP3    H234776   2.071   2.108   5.610
11611TIP3   OH234777   2.812   6.580   1.962
11611TIP3    H134778   2.800   6.622   1.877
11611TIP3    H234779   2.777   6.644   2.025
11612TIP3   OH234780   6.761   3.287   3.916
11612TIP3    H134781   6.776   3.371   3.875
11612TIP3    H234782   6.756   3.307   4.010
11613TIP3   OH234783   0.267   2.747   4.746
11613TIP3    H134784   0.288   2.703   4.828
11613TIP3    H234785   0.303   2.689   4.678
11614TIP3   OH234786   6.841   0.285   3.676
11614TIP3    H134787   6.809   0.374   3.663
11614TIP3    H234788   6.779   0.230   3.629
11615TIP3   OH234789   7.223   7.599   3.641
11615TIP3    H134790   7.312   7.624   3.664
11615TIP3    H234791   7.190   7.673   3.590
11616TIP3   OH234792   3.951   4.657  -0.003
11616TIP3    H134793   3.926   4.744  -0.035
11616TIP3    H234794   3.878   4.631   0.054
11617TIP3   OH234795   3.922   0.047   3.699
11617TIP3    H134796   3.913   0.098   3.619
11617TIP3    H234797   3.849   0.075   3.754
11618TIP3   OH234798   0.973   0.389   5.235
11618TIP3    H134799   0.994   0.457   5.299
11618TIP3    H234800   1.057   0.344   5.219
11619TIP3   OH234801   0.148   6.622   3.428
11619TIP3    H134802   0.071   6.570   3.454
11619TIP3    H234803   0.116   6.712   3.424
11620TIP3   OH234804   4.635   0.450   0.839
11620TIP3    H134805   4.553   0.498   0.828
11620TIP3    H234806   4.690   0.480   0.766
11621TIP3   OH234807   0.952   5.915   6.728
11621TIP3    H134808   1.011   5.843   6.750
11621TIP3    H234809   0.994   5.993   6.765
11622TIP3   OH234810   4.872   7.525   5.745
11622TIP3    H134811   4.932   7.599   5.752
11622TIP3    H234812   4.915   7.455   5.793
11623TIP3   OH234813   5.763   4.963   5.108
11623TIP3    H134814   5.700   4.917   5.162
11623TIP3    H234815   5.771   5.050   5.149
11624TIP3   OH234816   4.109   0.150   2.683
11624TIP3    H134817   4.017   0.126   2.689
11624TIP3    H234818   4.113   0.239   2.718
11625TIP3   OH234819   2.516   0.139   5.314
11625TIP3    H134820   2.591   0.190   5.345
11625TIP3    H234821   2.452   0.145   5.385
11626TIP3   OH234822   4.011   7.593   2.102
11626TIP3    H134823   4.099   7.629   2.089
11626TIP3    H234824   4.025   7.500   2.119
11627TIP3   OH234825   2.383   4.363   2.617
11627TIP3    H134826   2.360   4.301   2.687
11627TIP3    H234827   2.445   4.423   2.658
11628TIP3   OH234828   1.602   3.655   4.033
11628TIP3    H134829   1.507   3.658   4.028
11628TIP3    H234830   1.632   3.725   3.974
11629TIP3   OH234831   0.730   0.742   4.699
11629TIP3    H134832   0.777   0.743   4.782
11629TIP3    H234833   0.720   0.835   4.676
11630TIP3   OH234834   7.461   1.837   1.282
11630TIP3    H134835   7.521   1.788   1.226
11630TIP3    H234836   7.517   1.893   1.335
11631TIP3   OH234837   5.019   3.547   3.037
11631TIP3    H134838   5.086   3.490   3.074
11631TIP3    H234839   4.993   3.505   2.955
11632TIP3   OH234840   5.615   3.244   1.392
11632TIP3    H134841   5.711   3.240   1.391
11632TIP3    H234842   5.592   3.294   1.313
11633TIP3   OH234843   5.621   5.127   4.889
11633TIP3    H134844   5.623   5.217   4.920
11633TIP3    H234845   5.656   5.075   4.961
11634TIP3   OH234846   3.052   1.491   6.694
11634TIP3    H134847   3.050   1.513   6.601
11634TIP3    H234848   3.076   1.398   6.695
11635TIP3   OH234849   3.396   1.128   0.711
11635TIP3    H134850   3.440   1.064   0.656
11635TIP3    H234851   3.451   1.134   0.789
11636TIP3   OH234852   3.380   2.664   6.627
11636TIP3    H134853   3.451   2.605   6.603
11636TIP3    H234854   3.409   2.750   6.596
11637TIP3   OH234855   1.369   1.318   5.598
11637TIP3    H134856   1.412   1.301   5.514
11637TIP3    H234857   1.426   1.275   5.662
11638TIP3   OH234858   3.581   0.682   5.174
11638TIP3    H134859   3.559   0.775   5.184
11638TIP3    H234860   3.521   0.637   5.233
11639TIP3   OH234861   5.182   1.813   4.057
11639TIP3    H134862   5.197   1.731   4.011
11639TIP3    H234863   5.251   1.871   4.026
11640TIP3   OH234864   1.863   2.522   1.484
11640TIP3    H134865   1.917   2.585   1.436
11640TIP3    H234866   1.777   2.564   1.492
11641TIP3   OH234867   3.273   3.443   6.489
11641TIP3    H134868   3.344   3.496   6.526
11641TIP3    H234869   3.317   3.381   6.431
11642TIP3   OH234870   5.881   5.972   3.309
11642TIP3    H134871   5.821   6.047   3.309
11642TIP3    H234872   5.961   6.005   3.350
11643TIP3   OH234873   3.255   5.136   0.192
11643TIP3    H134874   3.254   5.231   0.197
11643TIP3    H234875   3.166   5.109   0.213
11644TIP3   OH234876   2.773   6.918   6.392
11644TIP3    H134877   2.730   6.965   6.322
11644TIP3    H234878   2.846   6.872   6.349
11645TIP3   OH234879   2.660   0.915   4.190
11645TIP3    H134880   2.677   0.965   4.270
11645TIP3    H234881   2.662   0.981   4.120
11646TIP3   OH234882   4.600   0.680   4.807
11646TIP3    H134883   4.641   0.597   4.830
11646TIP3    H234884   4.673   0.736   4.781
11647TIP3   OH234885   2.749   1.857   0.671
11647TIP3    H134886   2.707   1.943   0.662
11647TIP3    H234887   2.830   1.864   0.620
11648TIP3   OH234888   3.424   3.655   5.814
11648TIP3    H134889   3.370   3.631   5.739
11648TIP3    H234890   3.508   3.680   5.777
11649TIP3   OH234891   0.645   2.996   3.492
11649TIP3    H134892   0.551   3.014   3.486
11649TIP3    H234893   0.660   2.926   3.428
11650TIP3   OH234894   3.996   4.355   3.858
11650TIP3    H134895   3.975   4.351   3.765
11650TIP3    H234896   3.951   4.279   3.896
11651TIP3   OH234897   6.737   0.396   6.012
11651TIP3    H134898   6.695   0.420   6.094
11651TIP3    H234899   6.665   0.372   5.954
11652TIP3   OH234900   4.749   1.958   2.621
11652TIP3    H134901   4.683   1.972   2.554
11652TIP3    H234902   4.830   1.944   2.573
11653TIP3   OH234903   0.481   5.743   1.267
11653TIP3    H134904   0.490   5.649   1.250
11653TIP3    H234905   0.565   5.768   1.305
11654TIP3   OH234906   5.960   7.139   4.385
11654TIP3    H134907   6.026   7.164   4.449
11654TIP3    H234908   5.890   7.204   4.396
11655TIP3   OH234909   0.999   6.126   6.167
11655TIP3    H134910   1.078   6.160   6.125
11655TIP3    H234911   0.995   6.173   6.250
11656TIP3   OH234912   1.149   1.120   1.133
11656TIP3    H134913   1.062   1.141   1.166
11656TIP3    H234914   1.193   1.205   1.125
11657TIP3   OH234915   5.355   4.732   5.522
11657TIP3    H134916   5.433   4.680   5.503
11657TIP3    H234917   5.367   4.762   5.612
11658TIP3   OH234918   3.670   1.084   4.110
11658TIP3    H134919   3.590   1.080   4.056
11658TIP3    H234920   3.698   1.175   4.105
11659TIP3   OH234921   2.702   0.768   3.517
11659TIP3    H134922   2.752   0.832   3.569
11659TIP3    H234923   2.725   0.683   3.554
11660TIP3   OH234924   1.210   6.947   0.588
11660TIP3    H134925   1.268   6.989   0.525
11660TIP3    H234926   1.138   7.009   0.601
11661TIP3   OH234927   1.871   4.911   3.489
11661TIP3    H134928   1.833   4.961   3.416
11661TIP3    H234929   1.889   4.977   3.556
11662TIP3   OH234930   6.716   4.010   3.936
11662TIP3    H134931   6.787   4.050   3.884
11662TIP3    H234932   6.637   4.026   3.885
11663TIP3   OH234933   2.744   7.695   1.850
11663TIP3    H134934   2.780   7.712   1.938
11663TIP3    H234935   2.803   7.741   1.791
11664TIP3   OH234936   1.856   0.294   3.742
11664TIP3    H134937   1.832   0.339   3.822
11664TIP3    H234938   1.937   0.337   3.713
11665TIP3   OH234939   1.089   0.304   2.565
11665TIP3    H134940   1.099   0.333   2.474
11665TIP3    H234941   1.130   0.218   2.568
11666TIP3   OH234942   7.422   1.905   3.431
11666TIP3    H134943   7.406   1.994   3.400
11666TIP3    H234944   7.380   1.901   3.516
11667TIP3   OH234945   5.923   6.454   1.545
11667TIP3    H134946   5.862   6.398   1.497
11667TIP3    H234947   5.999   6.398   1.560
11668TIP3   OH234948   1.144   5.110   6.011
11668TIP3    H134949   1.186   5.169   6.074
11668TIP3    H234950   1.110   5.038   6.065
11669TIP3   OH234951   2.007   7.646   2.303
11669TIP3    H134952   2.079   7.707   2.288
11669TIP3    H234953   1.944   7.696   2.355
11670TIP3   OH234954   6.542   7.081   5.053
11670TIP3    H134955   6.620   7.132   5.077
11670TIP3    H234956   6.471   7.122   5.102
11671TIP3   OH234957   2.586   4.736   3.858
11671TIP3    H134958   2.568   4.777   3.943
11671TIP3    H234959   2.571   4.806   3.794
11672TIP3   OH234960   3.576   0.735   2.643
11672TIP3    H134961   3.644   0.685   2.598
11672TIP3    H234962   3.621   0.815   2.672
11673TIP3   OH234963   4.983   4.878   4.691
11673TIP3    H134964   4.995   4.952   4.751
11673TIP3    H234965   4.911   4.904   4.634
11674TIP3   OH234966   3.403   3.568   0.635
11674TIP3    H134967   3.318   3.595   0.671
11674TIP3    H234968   3.414   3.478   0.667
11675TIP3   OH234969   6.267   2.536   2.901
11675TIP3    H134970   6.194   2.551   2.840
11675TIP3    H234971   6.270   2.442   2.912
11676TIP3   OH234972   5.597   4.461   1.584
11676TIP3    H134973   5.601   4.369   1.611
11676TIP3    H234974   5.625   4.461   1.492
11677TIP3   OH234975   0.311   0.835   0.779
11677TIP3    H134976   0.391   0.872   0.741
11677TIP3    H234977   0.271   0.786   0.706
11678TIP3   OH234978   2.649   0.685   3.143
11678TIP3    H134979   2.645   0.717   3.234
11678TIP3    H234980   2.639   0.764   3.090
11679TIP3   OH234981   4.565   6.504   6.057
11679TIP3    H134982   4.475   6.516   6.085
11679TIP3    H234983   4.614   6.489   6.138
11680TIP3   OH234984   6.047   6.665   0.364
11680TIP3    H134985   6.022   6.740   0.311
11680TIP3    H234986   5.993   6.673   0.443
11681TIP3   OH234987   0.117   7.065   0.684
11681TIP3    H134988   0.156   6.979   0.699
11681TIP3    H234989   0.160   7.122   0.748
11682TIP3   OH234990   7.107   6.222   3.285
11682TIP3    H134991   7.062   6.142   3.309
11682TIP3    H234992   7.200   6.200   3.293
11683TIP3   OH234993   7.855   7.306   5.272
11683TIP3    H134994   7.913   7.344   5.205
11683TIP3    H234995   7.767   7.335   5.246
11684TIP3   OH234996   7.830   6.935   0.238
11684TIP3    H134997   7.750   6.882   0.240
11684TIP3    H234998   7.901   6.872   0.231
11685TIP3   OH234999   3.954   6.699   1.084
11685TIP3    H135000   4.048   6.687   1.074
11685TIP3    H235001   3.915   6.625   1.037
11686TIP3   OH235002   0.678   1.699   1.981
11686TIP3    H135003   0.722   1.784   1.972
11686TIP3    H235004   0.678   1.663   1.892
11687TIP3   OH235005   7.573   4.405   2.537
11687TIP3    H135006   7.593   4.447   2.621
11687TIP3    H235007   7.510   4.337   2.558
11688TIP3   OH235008   8.140   7.530   4.760
11688TIP3    H135009   8.063   7.478   4.738
11688TIP3    H235010   8.134   7.607   4.703
11689TIP3   OH235011   7.447   6.345   4.735
11689TIP3    H135012   7.395   6.414   4.773
11689TIP3    H235013   7.474   6.379   4.649
11690TIP3   OH235014   0.831   5.196   5.051
11690TIP3    H135015   0.830   5.104   5.024
11690TIP3    H235016   0.853   5.244   4.972
11691TIP3   OH235017   7.883   7.214   3.383
11691TIP3    H135018   7.789   7.230   3.376
11691TIP3    H235019   7.892   7.156   3.459
11692TIP3   OH235020   8.030   1.390   2.383
11692TIP3    H135021   8.119   1.358   2.393
11692TIP3    H235022   8.034   1.448   2.306
11693TIP3   OH235023   6.415   3.496   6.590
11693TIP3    H135024   6.408   3.579   6.543
11693TIP3    H235025   6.415   3.430   6.521
11694TIP3   OH235026   1.007   4.852   2.408
11694TIP3    H135027   0.970   4.940   2.398
11694TIP3    H235028   0.933   4.799   2.439
11695TIP3   OH235029   2.529   5.111   3.191
11695TIP3    H135030   2.468   5.088   3.261
11695TIP3    H235031   2.578   5.186   3.226
11696TIP3   OH235032   5.691   1.818   1.542
11696TIP3    H135033   5.651   1.762   1.609
11696TIP3    H235034   5.663   1.780   1.459
11697TIP3   OH235035   5.744   4.145   1.819
11697TIP3    H135036   5.731   4.141   1.913
11697TIP3    H235037   5.777   4.058   1.796
11698TIP3   OH235038   4.026   5.220   3.945
11698TIP3    H135039   3.961   5.259   4.003
11698TIP3    H235040   3.976   5.164   3.886
11699TIP3   OH235041   4.336   7.733   5.429
11699TIP3    H135042   4.244   7.758   5.419
11699TIP3    H235043   4.381   7.779   5.358
11700TIP3   OH235044   1.597   4.314   4.887
11700TIP3    H135045   1.589   4.404   4.918
11700TIP3    H235046   1.508   4.287   4.868
11701TIP3   OH235047   2.033   6.523   1.718
11701TIP3    H135048   1.960   6.576   1.750
11701TIP3    H235049   2.086   6.584   1.666
11702TIP3   OH235050   2.356   4.053   3.748
11702TIP3    H135051   2.443   4.015   3.753
11702TIP3    H235052   2.366   4.141   3.785
11703TIP3   OH235053   1.739   2.525   2.851
11703TIP3    H135054   1.760   2.457   2.915
11703TIP3    H235055   1.644   2.529   2.851
11704TIP3   OH235056   6.349   4.398   6.445
11704TIP3    H135057   6.389   4.418   6.529
11704TIP3    H235058   6.266   4.446   6.446
11705TIP3   OH235059   6.662   5.818   3.007
11705TIP3    H135060   6.636   5.727   2.991
11705TIP3    H235061   6.648   5.831   3.100
11706TIP3   OH235062   3.404   5.459   3.314
11706TIP3    H135063   3.360   5.395   3.369
11706TIP3    H235064   3.332   5.503   3.267
11707TIP3   OH235065   3.448   4.827   4.228
11707TIP3    H135066   3.364   4.848   4.267
11707TIP3    H235067   3.511   4.836   4.300
11708TIP3   OH235068   4.539   1.409   0.665
11708TIP3    H135069   4.578   1.440   0.584
11708TIP3    H235070   4.611   1.405   0.727
11709TIP3   OH235071   3.130   7.149   3.211
11709TIP3    H135072   3.197   7.084   3.192
11709TIP3    H235073   3.167   7.202   3.282
11710TIP3   OH235074   3.010   5.903   2.457
11710TIP3    H135075   3.079   5.897   2.523
11710TIP3    H235076   3.024   5.826   2.401
11711TIP3   OH235077   5.878   3.720   0.165
11711TIP3    H135078   5.785   3.716   0.187
11711TIP3    H235079   5.885   3.671   0.083
11712TIP3   OH235080   1.604   6.956   3.103
11712TIP3    H135081   1.597   6.873   3.152
11712TIP3    H235082   1.576   6.933   3.014
11713TIP3   OH235083   3.841   5.882   1.722
11713TIP3    H135084   3.886   5.898   1.639
11713TIP3    H235085   3.851   5.964   1.771
11714TIP3   OH235086   2.272   3.916   4.589
11714TIP3    H135087   2.249   3.934   4.680
11714TIP3    H235088   2.188   3.919   4.542
11715TIP3   OH235089   0.517   5.103   4.231
11715TIP3    H135090   0.449   5.070   4.173
11715TIP3    H235091   0.516   5.044   4.307
11716TIP3   OH235092   6.712   0.679   4.736
11716TIP3    H135093   6.663   0.672   4.818
11716TIP3    H235094   6.802   0.659   4.760
11717TIP3   OH235095   6.784   1.157   6.657
11717TIP3    H135096   6.752   1.247   6.648
11717TIP3    H235097   6.879   1.165   6.644
11718TIP3   OH235098   7.783   6.175   3.029
11718TIP3    H135099   7.824   6.089   3.039
11718TIP3    H235100   7.823   6.229   3.097
11719TIP3   OH235101   2.542   1.168   3.403
11719TIP3    H135102   2.628   1.209   3.391
11719TIP3    H235103   2.524   1.178   3.497
11720TIP3   OH235104   6.297   6.022   1.791
11720TIP3    H135105   6.277   6.017   1.697
11720TIP3    H235106   6.311   6.115   1.807
11721TIP3   OH235107   3.943   7.494   4.931
11721TIP3    H135108   3.930   7.522   5.022
11721TIP3    H235109   3.860   7.512   4.887
11722TIP3   OH235110   1.850   5.501   4.025
11722TIP3    H135111   1.830   5.595   4.023
11722TIP3    H235112   1.800   5.468   4.099
11723TIP3   OH235113   0.242   7.315   5.702
11723TIP3    H135114   0.287   7.256   5.763
11723TIP3    H235115   0.301   7.323   5.627
11724TIP3   OH235116   5.117   1.530   0.242
11724TIP3    H135117   5.117   1.455   0.182
11724TIP3    H235118   5.209   1.552   0.253
11725TIP3   OH235119   1.604   1.504   5.491
11725TIP3    H135120   1.641   1.584   5.453
11725TIP3    H235121   1.627   1.508   5.584
11726TIP3   OH235122   5.976   0.182   3.794
11726TIP3    H135123   6.034   0.108   3.776
11726TIP3    H235124   5.943   0.208   3.708
11727TIP3   OH235125   6.978   5.484   3.137
11727TIP3    H135126   6.910   5.454   3.197
11727TIP3    H235127   7.056   5.434   3.163
11728TIP3   OH235128   1.238   3.017   2.076
11728TIP3    H135129   1.146   3.009   2.049
11728TIP3    H235130   1.252   3.111   2.086
11729TIP3   OH235131   0.552   3.541   2.953
11729TIP3    H135132   0.486   3.575   2.893
11729TIP3    H235133   0.533   3.584   3.036
11730TIP3   OH235134   2.415   1.652   3.378
11730TIP3    H135135   2.385   1.582   3.319
11730TIP3    H235136   2.367   1.636   3.459
11731TIP3   OH235137   4.003   1.218   4.666
11731TIP3    H135138   4.003   1.145   4.726
11731TIP3    H235139   4.091   1.256   4.674
11732TIP3   OH235140   1.896   4.942   1.243
11732TIP3    H135141   1.939   4.859   1.223
11732TIP3    H235142   1.811   4.917   1.280
11733TIP3   OH235143   8.076   6.935   5.365
11733TIP3    H135144   8.152   6.923   5.422
11733TIP3    H235145   8.020   6.996   5.413
11734TIP3   OH235146   2.612   6.608   3.488
11734TIP3    H135147   2.566   6.683   3.450
11734TIP3    H235148   2.663   6.645   3.560
11735TIP3   OH235149   0.389   7.472   0.877
11735TIP3    H135150   0.374   7.519   0.959
11735TIP3    H235151   0.319   7.503   0.819
11736TIP3   OH235152   3.085   3.081   4.575
11736TIP3    H135153   3.124   3.014   4.519
11736TIP3    H235154   3.067   3.035   4.658
11737TIP3   OH235155   6.114   3.279   0.861
11737TIP3    H135156   6.081   3.251   0.946
11737TIP3    H235157   6.060   3.231   0.798
11738TIP3   OH235158   3.815   2.917   6.624
11738TIP3    H135159   3.894   2.962   6.655
11738TIP3    H235160   3.763   2.904   6.703
11739TIP3   OH235161   6.396   4.034   1.460
11739TIP3    H135162   6.489   4.018   1.473
11739TIP3    H235163   6.388   4.129   1.453
11740TIP3   OH235164   6.637   1.482   4.718
11740TIP3    H135165   6.633   1.416   4.649
11740TIP3    H235166   6.729   1.505   4.725
11741TIP3   OH235167   3.231   4.016   1.704
11741TIP3    H135168   3.148   4.030   1.749
11741TIP3    H235169   3.298   4.032   1.771
11742TIP3   OH235170   4.085   3.802   3.582
11742TIP3    H135171   4.150   3.805   3.511
11742TIP3    H235172   4.136   3.776   3.659
11743TIP3   OH235173   1.710   7.048   6.563
11743TIP3    H135174   1.661   7.106   6.621
11743TIP3    H235175   1.693   7.082   6.475
11744TIP3   OH235176   6.700   7.449   5.213
11744TIP3    H135177   6.721   7.500   5.291
11744TIP3    H235178   6.700   7.358   5.244
11745TIP3   OH235179   5.077   0.002   0.471
11745TIP3    H135180   5.119   0.073   0.423
11745TIP3    H235181   5.148  -0.037   0.523
11746TIP3   OH235182   7.937   1.680   1.468
11746TIP3    H135183   7.973   1.646   1.549
11746TIP3    H235184   7.863   1.623   1.448
11747TIP3   OH235185   1.269   4.837   5.799
11747TIP3    H135186   1.232   4.922   5.778
11747TIP3    H235187   1.300   4.803   5.715
11748TIP3   OH235188   3.206   0.140   2.151
11748TIP3    H135189   3.228   0.048   2.160
11748TIP3    H235190   3.215   0.158   2.058
11749TIP3   OH235191   5.738   6.693   2.439
11749TIP3    H135192   5.782   6.613   2.467
11749TIP3    H235193   5.771   6.708   2.350
11750TIP3   OH235194   0.935   0.208   3.365
11750TIP3    H135195   0.947   0.296   3.331
11750TIP3    H235196   1.000   0.155   3.319
11751TIP3   OH235197   2.886   4.799   5.852
11751TIP3    H135198   2.824   4.732   5.822
11751TIP3    H235199   2.871   4.805   5.947
11752TIP3   OH235200   2.141   6.732   5.775
11752TIP3    H135201   2.048   6.715   5.760
11752TIP3    H235202   2.147   6.751   5.869
11753TIP3   OH235203   4.275   2.494   4.693
11753TIP3    H135204   4.297   2.503   4.786
11753TIP3    H235205   4.181   2.479   4.692
11754TIP3   OH235206   5.515   5.181   4.454
11754TIP3    H135207   5.527   5.258   4.510
11754TIP3    H235208   5.602   5.163   4.418
11755TIP3   OH235209   8.018   3.538   2.076
11755TIP3    H135210   8.046   3.601   2.143
11755TIP3    H235211   7.934   3.572   2.045
11756TIP3   OH235212   2.718   5.037   6.627
11756TIP3    H135213   2.714   4.973   6.557
11756TIP3    H235214   2.629   5.038   6.664
11757TIP3   OH235215   6.442   4.884   5.649
11757TIP3    H135216   6.473   4.807   5.696
11757TIP3    H235217   6.348   4.870   5.640
11758TIP3   OH235218   1.030   6.231   4.034
11758TIP3    H135219   1.121   6.220   4.007
11758TIP3    H235220   1.028   6.198   4.124
11759TIP3   OH235221   2.841   0.666   4.224
11759TIP3    H135222   2.788   0.724   4.279
11759TIP3    H235223   2.885   0.725   4.162
11760TIP3   OH235224   5.218   6.709   3.720
11760TIP3    H135225   5.245   6.791   3.679
11760TIP3    H235226   5.129   6.695   3.688
11761TIP3   OH235227   4.843   7.680   3.440
11761TIP3    H135228   4.802   7.720   3.363
11761TIP3    H235229   4.919   7.734   3.458
11762TIP3   OH235230   6.497   4.943   6.449
11762TIP3    H135231   6.558   4.873   6.474
11762TIP3    H235232   6.483   4.929   6.355
11763TIP3   OH235233   2.767   7.613   3.165
11763TIP3    H135234   2.748   7.537   3.221
11763TIP3    H235235   2.860   7.605   3.144
11764TIP3   OH235236   5.099   5.508   3.425
11764TIP3    H135237   5.054   5.565   3.487
11764TIP3    H235238   5.168   5.466   3.476
11765TIP3   OH235239   4.635   4.525   1.879
11765TIP3    H135240   4.685   4.448   1.854
11765TIP3    H235241   4.688   4.568   1.947
11766TIP3   OH235242   8.003   1.880   6.525
11766TIP3    H135243   8.007   1.809   6.589
11766TIP3    H235244   8.046   1.845   6.447
11767TIP3   OH235245   2.155   0.471   4.998
11767TIP3    H135246   2.061   0.483   5.004
11767TIP3    H235247   2.191   0.560   5.001
11768TIP3   OH235248   3.640   4.733   2.367
11768TIP3    H135249   3.659   4.825   2.385
11768TIP3    H235250   3.688   4.713   2.287
11769TIP3   OH235251   2.121   6.838   3.994
11769TIP3    H135252   2.212   6.807   3.994
11769TIP3    H235253   2.095   6.832   3.902
11770TIP3   OH235254   7.893   0.150   3.974
11770TIP3    H135255   7.847   0.158   3.891
11770TIP3    H235256   7.850   0.212   4.032
11771TIP3   OH235257   0.180   1.522   6.715
11771TIP3    H135258   0.210   1.496   6.628
11771TIP3    H235259   0.085   1.513   6.712
11772TIP3   OH235260   1.047   7.145   2.202
11772TIP3    H135261   0.991   7.116   2.130
11772TIP3    H235262   1.021   7.092   2.277
11773TIP3   OH235263   7.880   7.075   5.920
11773TIP3    H135264   7.830   7.132   5.979
11773TIP3    H235265   7.942   7.133   5.877
11774TIP3   OH235266   6.625   6.673   3.086
11774TIP3    H135267   6.552   6.735   3.084
11774TIP3    H235268   6.629   6.639   2.997
11775TIP3   OH235269   0.408   0.931   4.058
11775TIP3    H135270   0.396   0.930   3.963
11775TIP3    H235271   0.437   1.020   4.077
11776TIP3   OH235272   0.109   6.884   5.860
11776TIP3    H135273   0.149   6.936   5.930
11776TIP3    H235274   0.108   6.794   5.894
11777TIP3   OH235275   3.103   6.041   6.138
11777TIP3    H135276   3.159   6.061   6.213
11777TIP3    H235277   3.069   5.954   6.156
11778TIP3   OH235278   0.538   0.908   0.674
11778TIP3    H135279   0.580   0.989   0.644
11778TIP3    H235280   0.559   0.844   0.606
11779TIP3   OH235281   5.806   1.648   4.026
11779TIP3    H135282   5.746   1.575   4.042
11779TIP3    H235283   5.855   1.658   4.108
11780TIP3   OH235284   3.722   1.003   0.889
11780TIP3    H135285   3.803   1.037   0.926
11780TIP3    H235286   3.677   1.080   0.854
11781TIP3   OH235287   2.354   0.350   4.842
11781TIP3    H135288   2.321   0.304   4.765
11781TIP3    H235289   2.279   0.352   4.903
11782TIP3   OH235290   0.545   4.937   1.356
11782TIP3    H135291   0.456   4.902   1.353
11782TIP3    H235292   0.551   4.982   1.440
11783TIP3   OH235293   2.196   1.055   2.153
11783TIP3    H135294   2.177   1.146   2.131
11783TIP3    H235295   2.289   1.054   2.175
11784TIP3   OH235296   0.717   7.189   4.440
11784TIP3    H135297   0.716   7.126   4.512
11784TIP3    H235298   0.626   7.194   4.411
11785TIP3   OH235299   2.700   7.651   2.661
11785TIP3    H135300   2.638   7.700   2.715
11785TIP3    H235301   2.668   7.561   2.663
11786TIP3   OH235302   0.481   2.582   6.508
11786TIP3    H135303   0.455   2.667   6.474
11786TIP3    H235304   0.577   2.583   6.503
11787TIP3   OH235305   6.321   1.270   0.054
11787TIP3    H135306   6.398   1.218   0.031
11787TIP3    H235307   6.357   1.349   0.095
11788TIP3   OH235308   1.142   4.761   1.085
11788TIP3    H135309   1.112   4.780   0.996
11788TIP3    H235310   1.236   4.746   1.075
11789TIP3   OH235311   0.619   1.405   1.342
11789TIP3    H135312   0.540   1.445   1.306
11789TIP3    H235313   0.688   1.429   1.281
11790TIP3   OH235314   8.111   6.829   1.916
11790TIP3    H135315   8.127   6.735   1.923
11790TIP3    H235316   8.031   6.835   1.864
11791TIP3   OH235317   2.114   5.846   0.238
11791TIP3    H135318   2.029   5.818   0.270
11791TIP3    H235319   2.128   5.931   0.278
11792TIP3   OH235320   5.146   6.202   0.213
11792TIP3    H135321   5.176   6.118   0.248
11792TIP3    H235322   5.092   6.239   0.283
11793TIP3   OH235323   5.101   6.393   0.846
11793TIP3    H135324   5.140   6.478   0.825
11793TIP3    H235325   5.025   6.387   0.788
11794TIP3   OH235326   4.541   4.185   1.197
11794TIP3    H135327   4.498   4.170   1.281
11794TIP3    H235328   4.625   4.226   1.221
11795TIP3   OH235329   1.529   4.492   6.518
11795TIP3    H135330   1.493   4.472   6.432
11795TIP3    H235331   1.454   4.483   6.578
11796TIP3   OH235332   5.949   1.310   5.136
11796TIP3    H135333   5.917   1.354   5.057
11796TIP3    H235334   5.929   1.372   5.207
11797TIP3   OH235335   0.555   1.798   3.492
11797TIP3    H135336   0.490   1.847   3.442
11797TIP3    H235337   0.518   1.792   3.580
11798TIP3   OH235338   5.715   7.293   3.508
11798TIP3    H135339   5.735   7.204   3.536
11798TIP3    H235340   5.701   7.286   3.414
11799TIP3   OH235341   1.006   2.223   0.687
11799TIP3    H135342   1.011   2.154   0.753
11799TIP3    H235343   1.002   2.304   0.737
11800TIP3   OH235344   3.280   6.971   3.848
11800TIP3    H135345   3.225   6.922   3.786
11800TIP3    H235346   3.240   7.058   3.851
11801TIP3   OH235347   0.616   1.934   4.021
11801TIP3    H135348   0.526   1.947   4.052
11801TIP3    H235349   0.664   1.907   4.100
11802TIP3   OH235350   4.103   5.415   2.065
11802TIP3    H135351   4.090   5.503   2.101
11802TIP3    H235352   4.079   5.423   1.973
11803TIP3   OH235353   7.164   7.341   3.054
11803TIP3    H135354   7.227   7.385   2.998
11803TIP3    H235355   7.122   7.411   3.103
11804TIP3   OH235356   8.245   3.797   4.102
11804TIP3    H135357   8.339   3.780   4.101
11804TIP3    H235358   8.232   3.856   4.175
11805TIP3   OH235359   4.933   4.268   2.198
11805TIP3    H135360   4.936   4.247   2.291
11805TIP3    H235361   4.880   4.348   2.193
11806TIP3   OH235362   3.041   3.081   2.487
11806TIP3    H135363   3.105   3.036   2.432
11806TIP3    H235364   2.987   3.011   2.524
11807TIP3   OH235365   6.412   5.799   0.134
11807TIP3    H135366   6.400   5.795   0.039
11807TIP3    H235367   6.507   5.797   0.146
11808TIP3   OH235368   4.734   3.458   2.221
11808TIP3    H135369   4.681   3.479   2.297
11808TIP3    H235370   4.676   3.407   2.164
11809TIP3   OH235371   3.526   7.650   4.964
11809TIP3    H135372   3.446   7.622   4.920
11809TIP3    H235373   3.547   7.577   5.023
11810TIP3   OH235374   1.382   1.191   5.301
11810TIP3    H135375   1.430   1.112   5.324
11810TIP3    H235376   1.446   1.247   5.256
11811TIP3   OH235377   0.693   3.334   1.726
11811TIP3    H135378   0.693   3.346   1.820
11811TIP3    H235379   0.769   3.383   1.695
11812TIP3   OH235380   4.621   2.171   5.137
11812TIP3    H135381   4.677   2.197   5.064
11812TIP3    H235382   4.601   2.079   5.121
11813TIP3   OH235383   7.199   4.501   4.548
11813TIP3    H135384   7.168   4.510   4.458
11813TIP3    H235385   7.239   4.415   4.551
11814TIP3   OH235386   2.736   0.361   5.539
11814TIP3    H135387   2.650   0.402   5.544
11814TIP3    H235388   2.734   0.312   5.456
11815TIP3   OH235389   6.940   6.906   1.952
11815TIP3    H135390   6.944   6.903   1.856
11815TIP3    H235391   6.951   6.814   1.979
11816TIP3   OH235392   2.330   7.378   3.993
11816TIP3    H135393   2.290   7.301   3.950
11816TIP3    H235394   2.424   7.362   3.988
11817TIP3   OH235395   1.143   7.350   6.426
11817TIP3    H135396   1.184   7.270   6.393
11817TIP3    H235397   1.053   7.346   6.394
11818TIP3   OH235398   2.341   1.014   3.328
11818TIP3    H135399   2.422   1.065   3.330
11818TIP3    H235400   2.370   0.924   3.342
11819TIP3   OH235401   8.030   0.448   5.324
11819TIP3    H135402   8.112   0.493   5.346
11819TIP3    H235403   8.056   0.360   5.299
11820TIP3   OH235404   5.339   4.346   6.582
11820TIP3    H135405   5.380   4.420   6.535
11820TIP3    H235406   5.412   4.289   6.605
11821TIP3   OH235407   0.937   0.498   1.047
11821TIP3    H135408   1.011   0.474   1.103
11821TIP3    H235409   0.969   0.572   0.995
11822TIP3   OH235410   5.088   1.705   3.478
11822TIP3    H135411   5.119   1.627   3.432
11822TIP3    H235412   5.062   1.765   3.409
11823TIP3   OH235413   3.048   2.639   5.212
11823TIP3    H135414   3.031   2.660   5.304
11823TIP3    H235415   2.971   2.590   5.184
11824TIP3   OH235416   0.306   7.778   3.262
11824TIP3    H135417   0.357   7.739   3.190
11824TIP3    H235418   0.242   7.711   3.285
11825TIP3   OH235419   3.964   5.209   1.324
11825TIP3    H135420   3.953   5.236   1.415
11825TIP3    H235421   3.974   5.291   1.276
11826TIP3   OH235422   1.312   5.168   5.477
11826TIP3    H135423   1.327   5.236   5.542
11826TIP3    H235424   1.320   5.086   5.526
11827TIP3   OH235425   3.967   3.192   3.815
11827TIP3    H135426   3.982   3.126   3.883
11827TIP3    H235427   4.001   3.151   3.735
11828TIP3   OH235428   5.433   4.593   6.486
11828TIP3    H135429   5.509   4.631   6.529
11828TIP3    H235430   5.408   4.658   6.420
11829TIP3   OH235431   7.228   6.545   3.761
11829TIP3    H135432   7.174   6.623   3.751
11829TIP3    H235433   7.191   6.483   3.698
11830TIP3   OH235434   5.398   7.347   2.527
11830TIP3    H135435   5.413   7.363   2.434
11830TIP3    H235436   5.316   7.298   2.530
11831TIP3   OH235437   5.339   4.320   4.750
11831TIP3    H135438   5.433   4.312   4.733
11831TIP3    H235439   5.300   4.325   4.664
11832TIP3   OH235440   5.276   3.993   4.998
11832TIP3    H135441   5.337   3.977   5.070
11832TIP3    H235442   5.272   4.088   4.990
11833TIP3   OH235443   1.255   7.657   0.186
11833TIP3    H135444   1.193   7.662   0.260
11833TIP3    H235445   1.199   7.652   0.109
11834TIP3   OH235446   6.852   5.947   2.360
11834TIP3    H135447   6.798   5.936   2.438
11834TIP3    H235448   6.942   5.945   2.392
11835TIP3   OH235449   7.032   4.241   5.166
11835TIP3    H135450   7.101   4.240   5.233
11835TIP3    H235451   7.021   4.149   5.142
11836TIP3   OH235452   7.712   4.097   4.822
11836TIP3    H135453   7.709   4.189   4.849
11836TIP3    H235454   7.698   4.098   4.728
11837TIP3   OH235455   7.908   6.864   6.094
11837TIP3    H135456   7.900   6.798   6.024
11837TIP3    H235457   7.901   6.948   6.048
11838TIP3   OH235458   7.641   4.234   1.412
11838TIP3    H135459   7.580   4.162   1.396
11838TIP3    H235460   7.727   4.199   1.388
11839TIP3   OH235461   2.000   1.004   6.291
11839TIP3    H135462   2.014   1.064   6.364
11839TIP3    H235463   2.052   1.040   6.219
11840TIP3   OH235464   4.967   1.121   3.040
11840TIP3    H135465   4.872   1.131   3.026
11840TIP3    H235466   5.007   1.156   2.961
11841TIP3   OH235467   7.726   6.738   2.147
11841TIP3    H135468   7.815   6.770   2.132
11841TIP3    H235469   7.693   6.714   2.061
11842TIP3   OH235470   7.286   5.108   0.423
11842TIP3    H135471   7.296   5.045   0.494
11842TIP3    H235472   7.343   5.075   0.353
11843TIP3   OH235473   5.550   0.863   3.216
11843TIP3    H135474   5.574   0.772   3.199
11843TIP3    H235475   5.564   0.875   3.310
11844TIP3   OH235476   1.561   4.438   6.088
11844TIP3    H135477   1.489   4.441   6.151
11844TIP3    H235478   1.547   4.515   6.033
11845TIP3   OH235479   2.034   5.890   3.551
11845TIP3    H135480   2.041   5.869   3.644
11845TIP3    H235481   1.966   5.831   3.519
11846TIP3   OH235482   2.941   3.393   2.931
11846TIP3    H135483   2.921   3.435   2.847
11846TIP3    H235484   3.000   3.321   2.908
11847TIP3   OH235485   2.443   1.264   1.794
11847TIP3    H135486   2.533   1.232   1.800
11847TIP3    H235487   2.390   1.190   1.825
11848TIP3   OH235488   0.263   6.773   2.474
11848TIP3    H135489   0.243   6.847   2.416
11848TIP3    H235490   0.281   6.813   2.559
11849TIP3   OH235491   1.320   0.497   5.133
11849TIP3    H135492   1.278   0.435   5.193
11849TIP3    H235493   1.267   0.576   5.139
11850TIP3   OH235494   4.878   5.473   0.684
11850TIP3    H135495   4.817   5.411   0.724
11850TIP3    H235496   4.842   5.489   0.597
11851TIP3   OH235497   1.197   1.176   4.591
11851TIP3    H135498   1.139   1.163   4.666
11851TIP3    H235499   1.284   1.152   4.624
11852TIP3   OH235500   6.239   3.808   3.587
11852TIP3    H135501   6.304   3.834   3.521
11852TIP3    H235502   6.159   3.854   3.561
11853TIP3   OH235503   0.124   7.437   4.728
11853TIP3    H135504   0.113   7.455   4.634
11853TIP3    H235505   0.059   7.369   4.747
11854TIP3   OH235506   2.769   3.032   4.223
11854TIP3    H135507   2.783   3.091   4.149
11854TIP3    H235508   2.812   2.950   4.199
11855TIP3   OH235509   1.092   4.092   3.757
11855TIP3    H135510   1.115   4.172   3.710
11855TIP3    H235511   0.998   4.098   3.770
11856TIP3   OH235512   3.618   7.066   6.723
11856TIP3    H135513   3.660   7.111   6.796
11856TIP3    H235514   3.620   6.973   6.747
11857TIP3   OH235515   7.452   7.366   4.641
11857TIP3    H135516   7.492   7.351   4.727
11857TIP3    H235517   7.421   7.457   4.646
11858TIP3   OH235518   2.618   2.259   3.679
11858TIP3    H135519   2.598   2.167   3.666
11858TIP3    H235520   2.627   2.269   3.774
11859TIP3   OH235521   1.676   4.518   0.536
11859TIP3    H135522   1.705   4.465   0.462
11859TIP3    H235523   1.752   4.522   0.594
11860TIP3   OH235524   7.701   4.368   4.841
11860TIP3    H135525   7.784   4.415   4.841
11860TIP3    H235526   7.638   4.429   4.801
11861TIP3   OH235527   7.031   5.885   5.515
11861TIP3    H135528   7.119   5.890   5.553
11861TIP3    H235529   7.044   5.847   5.428
11862TIP3   OH235530   2.823   7.636   2.141
11862TIP3    H135531   2.865   7.550   2.133
11862TIP3    H235532   2.740   7.618   2.184
11863TIP3   OH235533   1.857   0.716   4.267
11863TIP3    H135534   1.945   0.680   4.254
11863TIP3    H235535   1.872   0.801   4.307
11864TIP3   OH235536   7.989   5.283   4.084
11864TIP3    H135537   7.969   5.191   4.065
11864TIP3    H235538   8.029   5.282   4.170
11865TIP3   OH235539   0.924   5.786   4.906
11865TIP3    H135540   0.890   5.821   4.988
11865TIP3    H235541   0.847   5.777   4.850
11866TIP3   OH235542   7.370   6.401   6.045
11866TIP3    H135543   7.375   6.344   5.968
11866TIP3    H235544   7.277   6.407   6.064
11867TIP3   OH235545   7.021   6.042   6.775
11867TIP3    H135546   7.013   5.964   6.830
11867TIP3    H235547   6.973   6.110   6.822
11868TIP3   OH235548   6.677   0.865   0.426
11868TIP3    H135549   6.616   0.901   0.490
11868TIP3    H235550   6.623   0.849   0.348
11869TIP3   OH235551   1.106   6.600   4.723
11869TIP3    H135552   1.170   6.633   4.786
11869TIP3    H235553   1.145   6.618   4.637
11870TIP3   OH235554   0.359   2.957   4.456
11870TIP3    H135555   0.349   2.863   4.444
11870TIP3    H235556   0.352   2.970   4.551
11871TIP3   OH235557   4.838   3.337   3.419
11871TIP3    H135558   4.916   3.282   3.408
11871TIP3    H235559   4.789   3.325   3.337
11872TIP3   OH235560   5.596   7.786   4.392
11872TIP3    H135561   5.673   7.820   4.438
11872TIP3    H235562   5.630   7.752   4.310
11873TIP3   OH235563   3.472   4.348   0.424
11873TIP3    H135564   3.446   4.297   0.500
11873TIP3    H235565   3.391   4.386   0.391
11874TIP3   OH235566   1.859   6.656   5.321
11874TIP3    H135567   1.930   6.686   5.265
11874TIP3    H235568   1.901   6.604   5.389
11875TIP3   OH235569   7.426   4.994   0.215
11875TIP3    H135570   7.489   4.930   0.181
11875TIP3    H235571   7.362   5.004   0.145
11876TIP3   OH235572   2.502   0.334   0.284
11876TIP3    H135573   2.575   0.283   0.248
11876TIP3    H235574   2.451   0.271   0.335
11877TIP3   OH235575   4.599   5.540   4.648
11877TIP3    H135576   4.644   5.457   4.631
11877TIP3    H235577   4.668   5.597   4.682
11878TIP3   OH235578   0.246   6.798   6.254
11878TIP3    H135579   0.328   6.751   6.233
11878TIP3    H235580   0.253   6.880   6.206
11879TIP3   OH235581   5.865   3.904   2.168
11879TIP3    H135582   5.944   3.894   2.114
11879TIP3    H235583   5.843   3.997   2.159
11880TIP3   OH235584   7.462   5.403   5.677
11880TIP3    H135585   7.501   5.316   5.665
11880TIP3    H235586   7.442   5.432   5.588
11881TIP3   OH235587   3.097   0.433   0.130
11881TIP3    H135588   3.172   0.492   0.124
11881TIP3    H235589   3.066   0.443   0.220
11882TIP3   OH235590   5.005   0.530   4.190
11882TIP3    H135591   4.997   0.624   4.172
11882TIP3    H235592   4.947   0.515   4.264
11883TIP3   OH235593   7.970   3.941   6.470
11883TIP3    H135594   7.878   3.921   6.452
11883TIP3    H235595   8.012   3.856   6.481
11884TIP3   OH235596   7.667   3.813   0.106
11884TIP3    H135597   7.572   3.806   0.115
11884TIP3    H235598   7.688   3.755   0.033
11885TIP3   OH235599   4.013   1.013   3.786
11885TIP3    H135600   4.057   0.979   3.708
11885TIP3    H235601   3.995   1.105   3.765
11886TIP3   OH235602   7.619   0.281   5.917
11886TIP3    H135603   7.638   0.374   5.903
11886TIP3    H235604   7.555   0.259   5.849
11887TIP3   OH235605   7.943   7.797   4.511
11887TIP3    H135606   7.968   7.755   4.428
11887TIP3    H235607   7.932   7.724   4.572
11888TIP3   OH235608   5.818   2.497   4.306
11888TIP3    H135609   5.820   2.421   4.365
11888TIP3    H235610   5.894   2.485   4.250
11889TIP3   OH235611   0.209   0.713   1.518
11889TIP3    H135612   0.210   0.653   1.593
11889TIP3    H235613   0.155   0.670   1.453
11890TIP3   OH235614   8.177   2.457   2.357
11890TIP3    H135615   8.193   2.388   2.421
11890TIP3    H235616   8.249   2.520   2.371
11891TIP3   OH235617   4.430   4.274   2.476
11891TIP3    H135618   4.396   4.227   2.553
11891TIP3    H235619   4.369   4.250   2.406
11892TIP3   OH235620   0.675   5.132   2.931
11892TIP3    H135621   0.714   5.046   2.913
11892TIP3    H235622   0.622   5.119   3.009
11893TIP3   OH235623   5.753   0.888   1.022
11893TIP3    H135624   5.663   0.871   1.048
11893TIP3    H235625   5.754   0.876   0.927
11894TIP3   OH235626   4.776   3.367   5.951
11894TIP3    H135627   4.854   3.338   5.904
11894TIP3    H235628   4.790   3.461   5.965
11895TIP3   OH235629   3.081   6.419   5.337
11895TIP3    H135630   3.000   6.381   5.371
11895TIP3    H235631   3.150   6.381   5.392
11896TIP3   OH235632   4.117   4.622   2.752
11896TIP3    H135633   4.100   4.667   2.669
11896TIP3    H235634   4.030   4.593   2.780
11897TIP3   OH235635   6.886   1.984   5.509
11897TIP3    H135636   6.975   1.962   5.538
11897TIP3    H235637   6.885   2.079   5.505
11898TIP3   OH235638   6.895   1.145   1.080
11898TIP3    H135639   6.870   1.208   1.147
11898TIP3    H235640   6.849   1.174   1.001
11899TIP3   OH235641   3.060   6.815   6.674
11899TIP3    H135642   3.097   6.811   6.762
11899TIP3    H235643   3.056   6.723   6.647
11900TIP3   OH235644   2.213   1.894   5.254
11900TIP3    H135645   2.193   1.836   5.328
11900TIP3    H235646   2.161   1.973   5.271
11901TIP3   OH235647   2.264   4.409   4.660
11901TIP3    H135648   2.209   4.439   4.732
11901TIP3    H235649   2.247   4.315   4.655
11902TIP3   OH235650   6.197   4.557   2.575
11902TIP3    H135651   6.106   4.552   2.546
11902TIP3    H235652   6.204   4.645   2.613
11903TIP3   OH235653   4.323   4.731   4.758
11903TIP3    H135654   4.245   4.676   4.767
11903TIP3    H235655   4.297   4.815   4.795
11904TIP3   OH235656   0.164   3.187   3.675
11904TIP3    H135657   0.171   3.106   3.725
11904TIP3    H235658   0.247   3.232   3.691
11905TIP3   OH235659   5.449   6.449   4.670
11905TIP3    H135660   5.375   6.389   4.670
11905TIP3    H235661   5.418   6.526   4.718
11906TIP3   OH235662   5.014   6.498   0.498
11906TIP3    H135663   4.979   6.574   0.544
11906TIP3    H235664   5.109   6.508   0.504
11907TIP3   OH235665   8.067   6.104   3.744
11907TIP3    H135666   8.155   6.114   3.780
11907TIP3    H235667   8.009   6.136   3.813
11908TIP3   OH235668   2.078   5.950   4.660
11908TIP3    H135669   2.056   5.877   4.602
11908TIP3    H235670   2.081   5.913   4.747
11909TIP3   OH235671   4.726   1.020   4.195
11909TIP3    H135672   4.815   1.036   4.161
11909TIP3    H235673   4.738   1.007   4.289
11910TIP3   OH235674   5.749   3.769   0.791
11910TIP3    H135675   5.838   3.752   0.759
11910TIP3    H235676   5.753   3.857   0.828
11911TIP3   OH235677   2.835   4.989   3.298
11911TIP3    H135678   2.883   4.943   3.229
11911TIP3    H235679   2.859   5.081   3.286
11912TIP3   OH235680   2.493   0.341   6.665
11912TIP3    H135681   2.530   0.253   6.671
11912TIP3    H235682   2.458   0.347   6.576
11913TIP3   OH235683   6.401   7.301   6.421
11913TIP3    H135684   6.444   7.338   6.345
11913TIP3    H235685   6.472   7.278   6.480
11914TIP3   OH235686   0.461   5.675   2.452
11914TIP3    H135687   0.492   5.690   2.362
11914TIP3    H235688   0.528   5.619   2.491
11915TIP3   OH235689   6.174   3.603   3.739
11915TIP3    H135690   6.231   3.527   3.725
11915TIP3    H235691   6.219   3.676   3.696
11916TIP3   OH235692   5.012   0.336   2.993
11916TIP3    H135693   4.984   0.390   2.919
11916TIP3    H235694   4.936   0.331   3.050
11917TIP3   OH235695   0.689   5.886   2.121
11917TIP3    H135696   0.744   5.938   2.063
11917TIP3    H235697   0.701   5.796   2.090
11918TIP3   OH235698   7.248   6.993   0.990
11918TIP3    H135699   7.200   6.971   1.070
11918TIP3    H235700   7.268   7.086   0.999
11919TIP3   OH235701   2.392   4.364   3.063
11919TIP3    H135702   2.432   4.420   3.129
11919TIP3    H235703   2.323   4.419   3.025
11920TIP3   OH235704   5.751   7.450   0.902
11920TIP3    H135705   5.688   7.379   0.917
11920TIP3    H235706   5.767   7.486   0.989
11921TIP3   OH235707   4.596   4.447   1.511
11921TIP3    H135708   4.598   4.523   1.453
11921TIP3    H235709   4.681   4.405   1.499
11922TIP3   OH235710   3.787   5.917   2.086
11922TIP3    H135711   3.876   5.917   2.119
11922TIP3    H235712   3.732   5.918   2.164
11923TIP3   OH235713   2.134   6.720   2.712
11923TIP3    H135714   2.173   6.710   2.625
11923TIP3    H235715   2.162   6.807   2.741
11924TIP3   OH235716   8.164   0.275   6.392
11924TIP3    H135717   8.221   0.198   6.400
11924TIP3    H235718   8.076   0.241   6.409
11925TIP3   OH235719   6.622   1.262   5.677
11925TIP3    H135720   6.549   1.201   5.682
11925TIP3    H235721   6.682   1.224   5.613
11926TIP3   OH235722   0.200   5.673   5.232
11926TIP3    H135723   0.110   5.683   5.260
11926TIP3    H235724   0.203   5.586   5.192
11927TIP3   OH235725   2.596   5.787   2.016
11927TIP3    H135726   2.510   5.807   2.052
11927TIP3    H235727   2.595   5.693   2.000
11928TIP3   OH235728   7.377   2.299   2.888
11928TIP3    H135729   7.376   2.355   2.966
11928TIP3    H235730   7.436   2.344   2.827
11929TIP3   OH235731   0.800   7.526   3.450
11929TIP3    H135732   0.833   7.466   3.383
11929TIP3    H235733   0.816   7.480   3.533
11930TIP3   OH235734   0.175   7.849   0.184
11930TIP3    H135735   0.256   7.860   0.134
11930TIP3    H235736   0.151   7.757   0.170
11931TIP3   OH235737   2.513   6.219   3.044
11931TIP3    H135738   2.541   6.284   2.979
11931TIP3    H235739   2.556   6.138   3.018
11932TIP3   OH235740   1.951   0.972   3.179
11932TIP3    H135741   1.884   1.013   3.125
11932TIP3    H235742   1.968   0.887   3.137
11933TIP3   OH235743   4.045   2.022   2.407
11933TIP3    H135744   4.000   2.013   2.323
11933TIP3    H235745   4.067   1.932   2.433
11934TIP3   OH235746   6.602   7.604   5.013
11934TIP3    H135747   6.634   7.537   5.073
11934TIP3    H235748   6.592   7.559   4.930
11935TIP3   OH235749   5.893   3.433   5.167
11935TIP3    H135750   5.903   3.339   5.174
11935TIP3    H235751   5.822   3.445   5.104
11936TIP3   OH235752   3.563   6.687   4.533
11936TIP3    H135753   3.544   6.682   4.627
11936TIP3    H235754   3.508   6.619   4.494
11937TIP3   OH235755   1.508   6.008   2.932
11937TIP3    H135756   1.513   5.953   3.010
11937TIP3    H235757   1.526   6.096   2.964
11938TIP3   OH235758   5.294   2.360   6.170
11938TIP3    H135759   5.207   2.359   6.129
11938TIP3    H235760   5.317   2.267   6.179
11939TIP3   OH235761   3.750   5.594   6.251
11939TIP3    H135762   3.706   5.613   6.169
11939TIP3    H235763   3.717   5.660   6.312
11940TIP3   OH235764   1.258   6.546   3.876
11940TIP3    H135765   1.278   6.621   3.820
11940TIP3    H235766   1.164   6.535   3.868
11941TIP3   OH235767   7.345   0.520   5.894
11941TIP3    H135768   7.421   0.490   5.845
11941TIP3    H235769   7.311   0.594   5.843
11942TIP3   OH235770   4.446   6.114   2.620
11942TIP3    H135771   4.500   6.036   2.607
11942TIP3    H235772   4.447   6.159   2.535
11943TIP3   OH235773   1.328   5.366   5.697
11943TIP3    H135774   1.412   5.408   5.679
11943TIP3    H235775   1.298   5.406   5.779
11944TIP3   OH235776   8.234   3.321   3.958
11944TIP3    H135777   8.149   3.357   3.982
11944TIP3    H235778   8.228   3.307   3.863
11945TIP3   OH235779   4.256   3.072   0.772
11945TIP3    H135780   4.207   2.995   0.745
11945TIP3    H235781   4.283   3.054   0.862
11946TIP3   OH235782   6.775   5.158   0.375
11946TIP3    H135783   6.763   5.173   0.281
11946TIP3    H235784   6.693   5.189   0.415
11947TIP3   OH235785   1.346   4.988   4.459
11947TIP3    H135786   1.382   5.038   4.532
11947TIP3    H235787   1.421   4.974   4.401
11948TIP3   OH235788   1.450   5.285   4.308
11948TIP3    H135789   1.504   5.213   4.340
11948TIP3    H235790   1.445   5.346   4.381
11949TIP3   OH235791   4.028   4.455   6.448
11949TIP3    H135792   3.997   4.540   6.417
11949TIP3    H235793   3.950   4.410   6.480
11950TIP3   OH235794   7.611   7.278   3.810
11950TIP3    H135795   7.676   7.230   3.860
11950TIP3    H235796   7.528   7.233   3.827
11951TIP3   OH235797   2.537   2.584   2.802
11951TIP3    H135798   2.499   2.577   2.889
11951TIP3    H235799   2.631   2.578   2.815
11952TIP3   OH235800   4.853   2.630   1.050
11952TIP3    H135801   4.793   2.668   1.115
11952TIP3    H235802   4.907   2.704   1.023
11953TIP3   OH235803   0.290   0.750   4.290
11953TIP3    H135804   0.341   0.706   4.359
11953TIP3    H235805   0.239   0.815   4.337
11954TIP3   OH235806   5.459   6.357   3.698
11954TIP3    H135807   5.413   6.369   3.615
11954TIP3    H235808   5.410   6.411   3.761
11955TIP3   OH235809   3.549   5.015   4.008
11955TIP3    H135810   3.511   5.093   4.048
11955TIP3    H235811   3.540   4.947   4.076
11956TIP3   OH235812   0.731   5.539   3.042
11956TIP3    H135813   0.786   5.460   3.043
11956TIP3    H235814   0.651   5.511   2.998
11957TIP3   OH235815   5.641   0.845   3.790
11957TIP3    H135816   5.661   0.901   3.865
11957TIP3    H235817   5.709   0.866   3.726
11958TIP3   OH235818   0.346   7.270   4.070
11958TIP3    H135819   0.280   7.223   4.019
11958TIP3    H235820   0.332   7.362   4.049
11959TIP3   OH235821   3.960   2.192   1.990
11959TIP3    H135822   3.934   2.253   1.920
11959TIP3    H235823   4.037   2.233   2.030
11960TIP3   OH235824  -0.021   4.991   3.332
11960TIP3    H135825   0.005   4.987   3.424
11960TIP3    H235826   0.057   5.023   3.287
11961TIP3   OH235827   4.098   6.494   1.849
11961TIP3    H135828   4.093   6.401   1.872
11961TIP3    H235829   4.153   6.496   1.771
11962TIP3   OH235830   1.051   5.543   6.454
11962TIP3    H135831   0.979   5.552   6.517
11962TIP3    H235832   1.119   5.602   6.486
11963TIP3   OH235833   3.992   5.138   3.484
11963TIP3    H135834   3.969   5.210   3.543
11963TIP3    H235835   4.067   5.096   3.525
11964TIP3   OH235836   1.406   2.646   6.135
11964TIP3    H135837   1.366   2.578   6.081
11964TIP3    H235838   1.472   2.686   6.079
11965TIP3   OH235839   0.777   3.675   2.379
11965TIP3    H135840   0.739   3.720   2.455
11965TIP3    H235841   0.849   3.623   2.415
11966TIP3   OH235842   1.035   1.409   4.261
11966TIP3    H135843   1.016   1.486   4.315
11966TIP3    H235844   1.000   1.431   4.175
11967TIP3   OH235845   1.355   5.083   0.759
11967TIP3    H135846   1.377   4.993   0.780
11967TIP3    H235847   1.405   5.103   0.680
11968TIP3   OH235848   5.925   6.286   0.999
11968TIP3    H135849   5.875   6.357   0.958
11968TIP3    H235850   6.002   6.275   0.944
11969TIP3   OH235851   3.361   0.058   0.569
11969TIP3    H135852   3.306   0.011   0.505
11969TIP3    H235853   3.366   0.147   0.534
11970TIP3   OH235854   0.958   6.643   1.469
11970TIP3    H135855   0.990   6.729   1.498
11970TIP3    H235856   1.006   6.625   1.388
11971TIP3   OH235857   6.675   1.551   1.850
11971TIP3    H135858   6.649   1.459   1.852
11971TIP3    H235859   6.662   1.582   1.940
11972TIP3   OH235860   1.894   5.223   4.363
11972TIP3    H135861   1.829   5.155   4.383
11972TIP3    H235862   1.845   5.286   4.309
11973TIP3   OH235863   4.643   1.948   0.289
11973TIP3    H135864   4.693   2.022   0.325
11973TIP3    H235865   4.681   1.934   0.202
11974TIP3   OH235866   5.501   6.758   3.526
11974TIP3    H135867   5.450   6.839   3.528
11974TIP3    H235868   5.511   6.734   3.618
11975TIP3   OH235869   1.861   5.999   0.702
11975TIP3    H135870   1.780   6.046   0.679
11975TIP3    H235871   1.924   6.027   0.636
11976TIP3   OH235872   5.617   4.985   2.946
11976TIP3    H135873   5.623   5.068   2.899
11976TIP3    H235874   5.544   4.940   2.905
11977TIP3   OH235875   0.927   6.786   2.788
11977TIP3    H135876   0.891   6.729   2.720
11977TIP3    H235877   0.928   6.731   2.866
11978TIP3   OH235878   6.716   2.179   3.214
11978TIP3    H135879   6.686   2.270   3.218
11978TIP3    H235880   6.655   2.136   3.154
11979TIP3   OH235881   4.192   4.271   2.335
11979TIP3    H135882   4.180   4.176   2.328
11979TIP3    H235883   4.107   4.307   2.308
11980TIP3   OH235884   8.274   4.642   4.217
11980TIP3    H135885   8.368   4.653   4.199
11980TIP3    H235886   8.270   4.621   4.310
11981TIP3   OH235887   7.472   1.688   4.728
11981TIP3    H135888   7.564   1.715   4.733
11981TIP3    H235889   7.465   1.615   4.790
11982TIP3   OH235890   2.606   1.609   1.098
11982TIP3    H135891   2.559   1.527   1.085
11982TIP3    H235892   2.696   1.589   1.071
11983TIP3   OH235893   4.086   6.852   0.616
11983TIP3    H135894   4.108   6.761   0.635
11983TIP3    H235895   4.081   6.856   0.520
11984TIP3   OH235896   1.654   5.455   0.180
11984TIP3    H135897   1.721   5.400   0.220
11984TIP3    H235898   1.573   5.433   0.225
11985TIP3   OH235899   0.421   2.381   6.773
11985TIP3    H135900   0.511   2.399   6.800
11985TIP3    H235901   0.405   2.443   6.702
11986TIP3   OH235902   5.301   7.171   0.395
11986TIP3    H135903   5.287   7.254   0.348
11986TIP3    H235904   5.214   7.147   0.427
11987TIP3   OH235905   7.520   6.081   6.115
11987TIP3    H135906   7.453   6.074   6.183
11987TIP3    H235907   7.471   6.107   6.037
11988TIP3   OH235908   3.336   7.379   5.683
11988TIP3    H135909   3.298   7.453   5.635
11988TIP3    H235910   3.383   7.420   5.756
11989TIP3   OH235911   2.546   2.216   5.658
11989TIP3    H135912   2.484   2.242   5.589
11989TIP3    H235913   2.575   2.129   5.632
11990TIP3   OH235914   5.456   0.624   1.604
11990TIP3    H135915   5.394   0.675   1.551
11990TIP3    H235916   5.400   0.573   1.662
11991TIP3   OH235917   7.271   6.395   5.250
11991TIP3    H135918   7.193   6.339   5.251
11991TIP3    H235919   7.342   6.337   5.277
11992TIP3   OH235920   7.909   7.570   0.018
11992TIP3    H135921   7.930   7.542   0.107
11992TIP3    H235922   7.938   7.497  -0.037
11993TIP3   OH235923   7.023   5.170   5.464
11993TIP3    H135924   6.950   5.134   5.414
11993TIP3    H235925   7.024   5.119   5.545
11994TIP3   OH235926   5.760   1.609   1.058
11994TIP3    H135927   5.854   1.623   1.052
11994TIP3    H235928   5.750   1.515   1.074
11995TIP3   OH235929   4.247   3.567   4.260
11995TIP3    H135930   4.211   3.655   4.271
11995TIP3    H235931   4.342   3.580   4.263
11996TIP3   OH235932   2.755   4.566   5.808
11996TIP3    H135933   2.702   4.530   5.736
11996TIP3    H235934   2.786   4.489   5.856
11997TIP3   OH235935   0.702   5.309   5.748
11997TIP3    H135936   0.665   5.261   5.674
11997TIP3    H235937   0.659   5.271   5.825
11998TIP3   OH235938   4.809   2.519   5.007
11998TIP3    H135939   4.794   2.424   5.002
11998TIP3    H235940   4.725   2.558   4.984
11999TIP3   OH235941   3.925   1.288   5.370
11999TIP3    H135942   3.924   1.384   5.374
11999TIP3    H235943   3.846   1.265   5.322
12000TIP3   OH235944   3.058   2.175   0.930
12000TIP3    H135945   2.974   2.202   0.966
12000TIP3    H235946   3.056   2.079   0.935
12001TIP3   OH235947   4.687   5.728   5.717
12001TIP3    H135948   4.675   5.661   5.649
12001TIP3    H235949   4.618   5.792   5.699
12002TIP3   OH235950   0.361   7.268   2.059
12002TIP3    H135951   0.324   7.353   2.035
12002TIP3    H235952   0.447   7.288   2.095
12003TIP3   OH235953   1.295   1.743   2.380
12003TIP3    H135954   1.345   1.682   2.326
12003TIP3    H235955   1.222   1.692   2.413
12004TIP3   OH235956   1.717   0.599   2.763
12004TIP3    H135957   1.665   0.664   2.810
12004TIP3    H235958   1.709   0.623   2.671
12005TIP3   OH235959   6.291   2.255   5.255
12005TIP3    H135960   6.216   2.304   5.223
12005TIP3    H235961   6.337   2.226   5.176
12006TIP3   OH235962   4.310   6.704   6.170
12006TIP3    H135963   4.341   6.691   6.260
12006TIP3    H235964   4.218   6.677   6.172
12007TIP3   OH235965   1.867   6.810   6.016
12007TIP3    H135966   1.935   6.831   6.080
12007TIP3    H235967   1.791   6.861   6.043
12008TIP3   OH235968   4.148   6.940   0.127
12008TIP3    H135969   4.085   6.967   0.194
12008TIP3    H235970   4.101   6.951   0.044
12009TIP3   OH235971   4.539   5.212   4.510
12009TIP3    H135972   4.485   5.138   4.538
12009TIP3    H235973   4.516   5.225   4.418
12010TIP3   OH235974   6.184   7.155   4.531
12010TIP3    H135975   6.184   7.101   4.611
12010TIP3    H235976   6.247   7.111   4.474
12011TIP3   OH235977   7.920   2.561   2.821
12011TIP3    H135978   7.939   2.575   2.914
12011TIP3    H235979   8.004   2.536   2.783
12012TIP3   OH235980   5.578   0.828   1.801
12012TIP3    H135981   5.568   0.795   1.712
12012TIP3    H235982   5.667   0.806   1.826
12013TIP3   OH235983   0.829   3.199   0.646
12013TIP3    H135984   0.857   3.127   0.589
12013TIP3    H235985   0.753   3.165   0.692
12014TIP3   OH235986   1.961   1.771   2.397
12014TIP3    H135987   1.997   1.705   2.457
12014TIP3    H235988   1.969   1.853   2.444
12015TIP3   OH235989   0.588   3.421   3.911
12015TIP3    H135990   0.655   3.391   3.849
12015TIP3    H235991   0.634   3.427   3.995
12016TIP3   OH235992   6.367   6.157   2.668
12016TIP3    H135993   6.346   6.250   2.675
12016TIP3    H235994   6.460   6.152   2.690
12017TIP3   OH235995   2.243   5.355   2.578
12017TIP3    H135996   2.253   5.450   2.567
12017TIP3    H235997   2.280   5.338   2.665
12018TIP3   OH235998   1.659   2.150   2.824
12018TIP3    H135999   1.616   2.065   2.813
12018TIP3    H236000   1.697   2.169   2.738
12019TIP3   OH236001   3.573   2.081   3.026
12019TIP3    H136002   3.527   2.084   2.942
12019TIP3    H236003   3.616   1.995   3.026
12020TIP3   OH236004   3.173   2.031   4.780
12020TIP3    H136005   3.235   2.074   4.839
12020TIP3    H236006   3.170   2.086   4.702
12021TIP3   OH236007   4.606   1.165   3.555
12021TIP3    H136008   4.536   1.111   3.517
12021TIP3    H236009   4.663   1.102   3.600
12022TIP3   OH236010   7.921   2.078   3.385
12022TIP3    H136011   7.838   2.079   3.432
12022TIP3    H236012   7.899   2.049   3.297
12023TIP3   OH236013   1.141   7.854   3.254
12023TIP3    H136014   1.135   7.759   3.258
12023TIP3    H236015   1.150   7.874   3.161
12024TIP3   OH236016   5.588   5.545   2.996
12024TIP3    H136017   5.514   5.586   2.951
12024TIP3    H236018   5.566   5.553   3.089
12025TIP3   OH236019   4.559   5.877   3.040
12025TIP3    H136020   4.649   5.899   3.019
12025TIP3    H236021   4.512   5.887   2.957
12026TIP3   OH236022   4.550   6.108   6.511
12026TIP3    H136023   4.510   6.022   6.497
12026TIP3    H236024   4.591   6.129   6.428
12027TIP3   OH236025   5.262   7.470   4.062
12027TIP3    H136026   5.273   7.441   3.971
12027TIP3    H236027   5.298   7.398   4.114
12028TIP3   OH236028   0.386   2.729   3.336
12028TIP3    H136029   0.394   2.818   3.370
12028TIP3    H236030   0.375   2.740   3.241
12029TIP3   OH236031   0.609   6.613   5.269
12029TIP3    H136032   0.534   6.556   5.255
12029TIP3    H236033   0.595   6.650   5.357
12030TIP3   OH236034   4.755   4.488   2.197
12030TIP3    H136035   4.748   4.494   2.293
12030TIP3    H236036   4.773   4.578   2.169
12031TIP3   OH236037   4.426   5.827   5.303
12031TIP3    H136038   4.446   5.857   5.392
12031TIP3    H236039   4.343   5.871   5.282
12032TIP3   OH236040   5.587   5.480   2.577
12032TIP3    H136041   5.657   5.506   2.517
12032TIP3    H236042   5.509   5.523   2.543
12033TIP3   OH236043   1.217   0.021   3.314
12033TIP3    H136044   1.198   0.071   3.235
12033TIP3    H236045   1.312   0.005   3.311
12034TIP3   OH236046   1.712   4.872   5.111
12034TIP3    H136047   1.708   4.856   5.016
12034TIP3    H236048   1.804   4.894   5.127
12035TIP3   OH236049   1.208   4.804   5.229
12035TIP3    H136050   1.268   4.762   5.168
12035TIP3    H236051   1.163   4.870   5.176
12036TIP3   OH236052   6.415   6.445   2.634
12036TIP3    H136053   6.434   6.458   2.727
12036TIP3    H236054   6.319   6.452   2.628
12037TIP3   OH236055   3.008   5.153   4.039
12037TIP3    H136056   2.941   5.091   4.009
12037TIP3    H236057   3.091   5.113   4.013
12038TIP3   OH236058   5.504   5.919   4.670
12038TIP3    H136059   5.563   5.991   4.645
12038TIP3    H236060   5.440   5.960   4.729
12039TIP3   OH236061   6.126   1.899   3.654
12039TIP3    H136062   6.052   1.923   3.599
12039TIP3    H236063   6.119   1.956   3.731
12040TIP3   OH236064   6.364   5.576   0.453
12040TIP3    H136065   6.373   5.672   0.449
12040TIP3    H236066   6.324   5.560   0.539
12041TIP3   OH236067   0.771   1.204   3.737
12041TIP3    H136068   0.727   1.269   3.682
12041TIP3    H236069   0.740   1.223   3.825
12042TIP3   OH236070   2.752   7.381   5.216
12042TIP3    H136071   2.777   7.399   5.125
12042TIP3    H236072   2.764   7.287   5.225
12043TIP3   OH236073   7.493   0.400   1.895
12043TIP3    H136074   7.449   0.334   1.841
12043TIP3    H236075   7.548   0.449   1.833
12044TIP3   OH236076   0.096   0.497   3.896
12044TIP3    H136077   0.168   0.451   3.853
12044TIP3    H236078   0.115   0.489   3.990
12045TIP3   OH236079   1.642   6.152   0.639
12045TIP3    H136080   1.566   6.159   0.582
12045TIP3    H236081   1.695   6.230   0.619
12046TIP3   OH236082   7.340   0.370   2.670
12046TIP3    H136083   7.334   0.370   2.574
12046TIP3    H236084   7.421   0.417   2.689
12047TIP3   OH236085   0.423   0.899   5.045
12047TIP3    H136086   0.330   0.885   5.059
12047TIP3    H236087   0.452   0.822   4.994
12048TIP3   OH236088   7.305   6.381   1.860
12048TIP3    H136089   7.287   6.292   1.889
12048TIP3    H236090   7.401   6.389   1.867
12049TIP3   OH236091   7.225   6.473   4.214
12049TIP3    H136092   7.242   6.442   4.303
12049TIP3    H236093   7.305   6.518   4.189
12050TIP3   OH236094   6.048   1.881   4.909
12050TIP3    H136095   6.031   1.794   4.945
12050TIP3    H236096   5.989   1.939   4.956
12051TIP3   OH236097   3.404   4.925   3.432
12051TIP3    H136098   3.430   4.994   3.493
12051TIP3    H236099   3.347   4.868   3.484
12052TIP3   OH236100   4.189   2.622   1.052
12052TIP3    H136101   4.113   2.678   1.063
12052TIP3    H236102   4.198   2.576   1.135
12053TIP3   OH236103   1.023   4.430   6.523
12053TIP3    H136104   0.968   4.498   6.483
12053TIP3    H236105   1.039   4.368   6.452
12054TIP3   OH236106   0.107   3.049   4.093
12054TIP3    H136107   0.149   3.000   4.023
12054TIP3    H236108   0.019   3.066   4.061
12055TIP3   OH236109   3.565   6.039   4.187
12055TIP3    H136110   3.482   6.025   4.140
12055TIP3    H236111   3.538   6.066   4.275
12056TIP3   OH236112   3.831   6.192   4.342
12056TIP3    H136113   3.739   6.168   4.354
12056TIP3    H236114   3.836   6.282   4.375
12057TIP3   OH236115   6.742   3.174   6.400
12057TIP3    H136116   6.728   3.143   6.311
12057TIP3    H236117   6.835   3.157   6.417
12058TIP3   OH236118   4.799   0.836   6.304
12058TIP3    H136119   4.830   0.873   6.222
12058TIP3    H236120   4.805   0.741   6.291
12059TIP3   OH236121   1.341   0.076   4.541
12059TIP3    H136122   1.279   0.068   4.468
12059TIP3    H236123   1.311   0.152   4.590
12060TIP3   OH236124   6.515   4.101   0.454
12060TIP3    H136125   6.562   4.179   0.484
12060TIP3    H236126   6.553   4.083   0.368
12061TIP3   OH236127   0.628   0.398   6.566
12061TIP3    H136128   0.704   0.357   6.527
12061TIP3    H236129   0.644   0.492   6.558
12062TIP3   OH236130   5.216   2.512   3.933
12062TIP3    H136131   5.229   2.600   3.969
12062TIP3    H236132   5.152   2.471   3.991
12063TIP3   OH236133   4.219   5.588   5.407
12063TIP3    H136134   4.224   5.561   5.316
12063TIP3    H236135   4.125   5.594   5.426
12064TIP3   OH236136   6.416   5.248   3.642
12064TIP3    H136137   6.500   5.211   3.668
12064TIP3    H236138   6.369   5.175   3.602
12065TIP3   OH236139   7.968   0.403   3.617
12065TIP3    H136140   8.051   0.365   3.648
12065TIP3    H236141   7.929   0.335   3.562
12066TIP3   OH236142   4.860   7.684   1.198
12066TIP3    H136143   4.769   7.654   1.195
12066TIP3    H236144   4.859   7.756   1.262
12067TIP3   OH236145   0.238   0.344   0.202
12067TIP3    H136146   0.240   0.400   0.279
12067TIP3    H236147   0.274   0.397   0.132
12068TIP3   OH236148   1.991   5.846   5.664
12068TIP3    H136149   1.972   5.939   5.661
12068TIP3    H236150   1.919   5.809   5.715
12069TIP3   OH236151   2.321   6.008   6.349
12069TIP3    H136152   2.406   6.023   6.307
12069TIP3    H236153   2.262   5.985   6.278
12070TIP3   OH236154   5.857   4.709   5.719
12070TIP3    H136155   5.803   4.629   5.714
12070TIP3    H236156   5.895   4.706   5.807
12071TIP3   OH236157   2.022   0.705   3.423
12071TIP3    H136158   1.958   0.634   3.426
12071TIP3    H236159   2.025   0.731   3.331
12072TIP3   OH236160   1.407   1.544   0.038
12072TIP3    H136161   1.465   1.574  -0.033
12072TIP3    H236162   1.371   1.461   0.006
12073TIP3   OH236163   5.916   5.714   0.936
12073TIP3    H136164   5.941   5.800   0.969
12073TIP3    H236165   5.914   5.724   0.841
12074TIP3   OH236166   3.217   5.683   1.231
12074TIP3    H136167   3.237   5.656   1.321
12074TIP3    H236168   3.139   5.737   1.239
12075TIP3   OH236169   4.633   4.449   4.805
12075TIP3    H136170   4.678   4.485   4.882
12075TIP3    H236171   4.677   4.366   4.788
12076TIP3   OH236172   7.706   5.042   6.637
12076TIP3    H136173   7.646   5.116   6.642
12076TIP3    H236174   7.791   5.082   6.615
12077TIP3   OH236175   6.079   0.833   0.079
12077TIP3    H136176   6.122   0.763   0.128
12077TIP3    H236177   6.102   0.816  -0.013
12078TIP3   OH236178   4.699   5.701   3.804
12078TIP3    H136179   4.751   5.780   3.816
12078TIP3    H236180   4.652   5.690   3.886
12079TIP3   OH236181   5.911   3.162   5.136
12079TIP3    H136182   5.893   3.100   5.206
12079TIP3    H236183   5.988   3.126   5.091
12080TIP3   OH236184   7.475   0.086   3.299
12080TIP3    H136185   7.472   0.079   3.204
12080TIP3    H236186   7.483   0.180   3.316
12081TIP3   OH236187   0.256   4.743   2.965
12081TIP3    H136188   0.236   4.726   3.057
12081TIP3    H236189   0.352   4.743   2.961
12082TIP3   OH236190   1.690   4.794   3.197
12082TIP3    H136191   1.670   4.796   3.104
12082TIP3    H236192   1.631   4.728   3.233
12083TIP3   OH236193   7.049   1.876   1.191
12083TIP3    H136194   7.068   1.955   1.140
12083TIP3    H236195   7.106   1.809   1.154
12084TIP3   OH236196   1.664   2.602   3.635
12084TIP3    H136197   1.626   2.574   3.718
12084TIP3    H236198   1.643   2.532   3.573
12085TIP3   OH236199   6.250   6.029   0.580
12085TIP3    H136200   6.239   5.941   0.616
12085TIP3    H236201   6.241   6.019   0.486
12086TIP3   OH236202   2.143   6.256   5.567
12086TIP3    H136203   2.186   6.178   5.533
12086TIP3    H236204   2.213   6.321   5.573
12087TIP3   OH236205   4.971   3.099   6.636
12087TIP3    H136206   5.008   3.151   6.707
12087TIP3    H236207   4.916   3.034   6.681
12088TIP3   OH236208   4.471   4.738   0.711
12088TIP3    H136209   4.521   4.689   0.647
12088TIP3    H236210   4.380   4.731   0.681
12089TIP3   OH236211   5.595   3.386   1.139
12089TIP3    H136212   5.511   3.365   1.099
12089TIP3    H236213   5.582   3.473   1.177
12090TIP3   OH236214   6.551   2.570   2.790
12090TIP3    H136215   6.562   2.536   2.701
12090TIP3    H236216   6.562   2.665   2.780
12091TIP3   OH236217   0.437   0.882   0.068
12091TIP3    H136218   0.470   0.945   0.003
12091TIP3    H236219   0.516   0.838   0.100
12092TIP3   OH236220   5.149   4.420   6.196
12092TIP3    H136221   5.193   4.392   6.276
12092TIP3    H236222   5.203   4.491   6.162
12093TIP3   OH236223   0.522   1.609   3.885
12093TIP3    H136224   0.542   1.697   3.852
12093TIP3    H236225   0.483   1.624   3.971
12094TIP3   OH236226   3.902   6.807   3.776
12094TIP3    H136227   3.960   6.734   3.752
12094TIP3    H236228   3.818   6.785   3.737
12095TIP3   OH236229   0.349   1.279   4.404
12095TIP3    H136230   0.349   1.338   4.329
12095TIP3    H236231   0.440   1.251   4.412
12096TIP3   OH236232   4.295   4.993   0.380
12096TIP3    H136233   4.340   4.914   0.350
12096TIP3    H236234   4.283   4.979   0.474
12097TIP3   OH236235   4.940   5.114   3.502
12097TIP3    H136236   4.858   5.149   3.468
12097TIP3    H236237   5.008   5.158   3.450
12098TIP3   OH236238   2.147   6.126   0.248
12098TIP3    H136239   2.226   6.138   0.301
12098TIP3    H236240   2.093   6.202   0.268
12099TIP3   OH236241   1.791   4.579   6.596
12099TIP3    H136242   1.779   4.673   6.582
12099TIP3    H236243   1.702   4.544   6.599
12100TIP3   OH236244   5.712   2.949   5.648
12100TIP3    H136245   5.727   2.854   5.644
12100TIP3    H236246   5.794   2.987   5.617
12101TIP3   OH236247   5.562   5.737   6.131
12101TIP3    H136248   5.632   5.791   6.095
12101TIP3    H236249   5.483   5.788   6.116
12102TIP3   OH236250   3.768   5.290   2.542
12102TIP3    H136251   3.836   5.243   2.493
12102TIP3    H236252   3.792   5.382   2.534
12103TIP3   OH236253   3.235   3.771   3.528
12103TIP3    H136254   3.314   3.820   3.552
12103TIP3    H236255   3.267   3.697   3.477
12104TIP3   OH236256   1.842   5.587   5.335
12104TIP3    H136257   1.858   5.629   5.250
12104TIP3    H236258   1.791   5.651   5.384
12105TIP3   OH236259   7.788   1.781   1.735
12105TIP3    H136260   7.787   1.736   1.819
12105TIP3    H236261   7.729   1.856   1.747
12106TIP3   OH236262   6.432   5.758   4.438
12106TIP3    H136263   6.383   5.677   4.453
12106TIP3    H236264   6.366   5.821   4.409
12107TIP3   OH236265   3.031   7.031   6.159
12107TIP3    H136266   3.088   7.022   6.082
12107TIP3    H236267   3.010   6.941   6.184
12108TIP3   OH236268   4.527   3.320   1.623
12108TIP3    H136269   4.522   3.384   1.552
12108TIP3    H236270   4.585   3.361   1.688
12109TIP3   OH236271   5.768   3.045   2.443
12109TIP3    H136272   5.702   3.115   2.440
12109TIP3    H236273   5.807   3.047   2.356
12110TIP3   OH236274   0.504   6.367   5.953
12110TIP3    H136275   0.444   6.390   6.023
12110TIP3    H236276   0.539   6.281   5.978
12111TIP3   OH236277   6.982   3.503   0.636
12111TIP3    H136278   6.903   3.459   0.667
12111TIP3    H236279   7.050   3.475   0.697
12112TIP3   OH236280   7.533   0.301   3.631
12112TIP3    H136281   7.455   0.267   3.588
12112TIP3    H236282   7.511   0.392   3.653
12113TIP3   OH236283   5.695   7.829   2.650
12113TIP3    H136284   5.616   7.775   2.655
12113TIP3    H236285   5.760   7.772   2.608
12114TIP3   OH236286   6.813   6.897   2.733
12114TIP3    H136287   6.862   6.868   2.810
12114TIP3    H236288   6.811   6.992   2.740
12115TIP3   OH236289   7.573   3.837   3.545
12115TIP3    H136290   7.597   3.826   3.637
12115TIP3    H236291   7.655   3.824   3.497
12116TIP3   OH236292   2.033   4.829   0.398
12116TIP3    H136293   2.061   4.753   0.346
12116TIP3    H236294   1.957   4.797   0.447
12117TIP3   OH236295   6.085   1.066   6.397
12117TIP3    H136296   6.181   1.065   6.394
12117TIP3    H236297   6.064   1.101   6.484
12118TIP3   OH236298   4.736   1.392   1.609
12118TIP3    H136299   4.667   1.362   1.549
12118TIP3    H236300   4.816   1.351   1.576
12119TIP3   OH236301   2.809   3.752   5.959
12119TIP3    H136302   2.718   3.763   5.932
12119TIP3    H236303   2.832   3.664   5.929
12120TIP3   OH236304   4.856   2.378   0.648
12120TIP3    H136305   4.935   2.432   0.643
12120TIP3    H236306   4.786   2.436   0.619
12121TIP3   OH236307   0.027   0.682   4.492
12121TIP3    H136308  -0.026   0.665   4.415
12121TIP3    H236309   0.070   0.598   4.510
12122TIP3   OH236310   0.035   6.567   4.595
12122TIP3    H136311   0.128   6.566   4.617
12122TIP3    H236312  -0.009   6.551   4.678
12123TIP3   OH236313   3.609   2.810   2.342
12123TIP3    H136314   3.519   2.799   2.374
12123TIP3    H236315   3.626   2.903   2.351
12124TIP3   OH236316   7.290   1.966   3.663
12124TIP3    H136317   7.227   1.896   3.648
12124TIP3    H236318   7.313   1.957   3.756
12125TIP3   OH236319   6.371   0.576   5.235
12125TIP3    H136320   6.316   0.500   5.218
12125TIP3    H236321   6.394   0.610   5.148
12126TIP3   OH236322   5.090   3.171   4.162
12126TIP3    H136323   5.149   3.220   4.220
12126TIP3    H236324   5.071   3.091   4.210
12127TIP3   OH236325   3.133   4.502   4.023
12127TIP3    H136326   3.223   4.517   4.049
12127TIP3    H236327   3.084   4.576   4.061
12128TIP3   OH236328   5.960   7.640   4.210
12128TIP3    H136329   6.029   7.594   4.162
12128TIP3    H236330   5.998   7.660   4.295
12129TIP3   OH236331   4.811   4.593   0.176
12129TIP3    H136332   4.864   4.566   0.251
12129TIP3    H236333   4.724   4.556   0.194
12130TIP3   OH236334   5.227   3.569   2.832
12130TIP3    H136335   5.252   3.520   2.910
12130TIP3    H236336   5.246   3.509   2.759
12131TIP3   OH236337   4.300   5.461   3.027
12131TIP3    H136338   4.289   5.374   2.989
12131TIP3    H236339   4.214   5.482   3.064
12132TIP3   OH236340   7.339   7.014   2.152
12132TIP3    H136341   7.324   6.935   2.204
12132TIP3    H236342   7.424   6.999   2.110
12133TIP3   OH236343   0.761   4.480   2.281
12133TIP3    H136344   0.829   4.448   2.222
12133TIP3    H236345   0.723   4.555   2.235
12134TIP3   OH236346   4.141   6.651   3.060
12134TIP3    H136347   4.120   6.564   3.095
12134TIP3    H236348   4.071   6.707   3.093
12135TIP3   OH236349   4.610   0.166   5.100
12135TIP3    H136350   4.704   0.157   5.114
12135TIP3    H236351   4.573   0.173   5.188
12136TIP3   OH236352   0.119   3.886   6.305
12136TIP3    H136353   0.111   3.963   6.248
12136TIP3    H236354   0.202   3.846   6.280
12137TIP3   OH236355   4.891   6.581   1.252
12137TIP3    H136356   4.841   6.504   1.223
12137TIP3    H236357   4.983   6.552   1.247
12138TIP3   OH236358   4.595   0.212   2.668
12138TIP3    H136359   4.504   0.210   2.639
12138TIP3    H236360   4.606   0.299   2.706
12139TIP3   OH236361   1.130   5.463   5.529
12139TIP3    H136362   1.195   5.428   5.590
12139TIP3    H236363   1.050   5.414   5.549
12140TIP3   OH236364   1.770   4.929   0.712
12140TIP3    H136365   1.708   4.993   0.676
12140TIP3    H236366   1.839   4.982   0.753
12141TIP3   OH236367   6.926   2.403   4.559
12141TIP3    H136368   6.937   2.308   4.572
12141TIP3    H236369   7.013   2.433   4.532
12142TIP3   OH236370   3.715   4.835   0.074
12142TIP3    H136371   3.697   4.743   0.094
12142TIP3    H236372   3.629   4.873   0.060
12143TIP3   OH236373   7.880   6.900   3.920
12143TIP3    H136374   7.963   6.873   3.960
12143TIP3    H236375   7.854   6.824   3.868
12144TIP3   OH236376   2.663   3.658   0.077
12144TIP3    H136377   2.586   3.627   0.125
12144TIP3    H236378   2.723   3.687   0.146
12145TIP3   OH236379   5.278   0.999   4.297
12145TIP3    H136380   5.287   0.986   4.391
12145TIP3    H236381   5.339   1.070   4.276
12146TIP3   OH236382   3.730   3.782   0.155
12146TIP3    H136383   3.719   3.849   0.223
12146TIP3    H236384   3.798   3.724   0.189
12147TIP3   OH236385   2.956   3.361   3.223
12147TIP3    H136386   2.922   3.418   3.292
12147TIP3    H236387   2.940   3.409   3.142
12148TIP3   OH236388   0.898   4.066   0.768
12148TIP3    H136389   0.870   4.019   0.846
12148TIP3    H236390   0.826   4.054   0.706
12149TIP3   OH236391   7.313   6.027   2.371
12149TIP3    H136392   7.397   5.988   2.393
12149TIP3    H236393   7.296   5.998   2.281
12150TIP3   OH236394   6.869   4.515   3.035
12150TIP3    H136395   6.962   4.533   3.025
12150TIP3    H236396   6.858   4.426   3.004
12151TIP3   OH236397   7.424   5.725   0.513
12151TIP3    H136398   7.424   5.799   0.574
12151TIP3    H236399   7.346   5.738   0.459
12152TIP3   OH236400   1.175   5.877   4.475
12152TIP3    H136401   1.103   5.907   4.419
12152TIP3    H236402   1.157   5.918   4.560
12153TIP3   OH236403   6.113   7.623   2.062
12153TIP3    H136404   6.166   7.684   2.112
12153TIP3    H236405   6.024   7.634   2.096
12154TIP3   OH236406   6.615   6.530   6.768
12154TIP3    H136407   6.527   6.492   6.763
12154TIP3    H236408   6.642   6.537   6.676
12155TIP3   OH236409   3.841   7.107   3.106
12155TIP3    H136410   3.804   7.040   3.163
12155TIP3    H236411   3.912   7.146   3.157
12156TIP3   OH236412   1.941   4.206   6.593
12156TIP3    H136413   1.858   4.168   6.564
12156TIP3    H236414   1.939   4.296   6.562
12157TIP3   OH236415   5.201   0.812   0.493
12157TIP3    H136416   5.106   0.820   0.493
12157TIP3    H236417   5.222   0.771   0.410
12158TIP3   OH236418   4.149   2.484   0.412
12158TIP3    H136419   4.219   2.510   0.351
12158TIP3    H236420   4.156   2.389   0.418
12159TIP3   OH236421   3.157   6.660   6.346
12159TIP3    H136422   3.200   6.726   6.401
12159TIP3    H236423   3.137   6.588   6.405
12160TIP3   OH236424   3.180   5.367   1.243
12160TIP3    H136425   3.205   5.429   1.175
12160TIP3    H236426   3.256   5.310   1.254
12161TIP3   OH236427   2.437   1.961   4.467
12161TIP3    H136428   2.501   1.985   4.534
12161TIP3    H236429   2.401   2.044   4.438
12162TIP3   OH236430   5.410   5.185   5.206
12162TIP3    H136431   5.450   5.214   5.288
12162TIP3    H236432   5.410   5.263   5.151
12163TIP3   OH236433   4.831   5.817   4.281
12163TIP3    H136434   4.779   5.893   4.256
12163TIP3    H236435   4.766   5.747   4.293
12164TIP3   OH236436   6.566   1.891   4.909
12164TIP3    H136437   6.580   1.860   4.819
12164TIP3    H236438   6.471   1.886   4.921
12165TIP3   OH236439   0.540   7.464   3.383
12165TIP3    H136440   0.631   7.489   3.400
12165TIP3    H236441   0.532   7.465   3.288
12166TIP3   OH236442   4.493   5.184  -0.029
12166TIP3    H136443   4.406   5.224  -0.033
12166TIP3    H236444   4.482   5.110   0.031
12167TIP3   OH236445   2.689   4.921   3.040
12167TIP3    H136446   2.625   4.850   3.046
12167TIP3    H236447   2.659   4.985   3.104
12168TIP3   OH236448   7.465   2.377   6.234
12168TIP3    H136449   7.393   2.412   6.181
12168TIP3    H236450   7.515   2.323   6.173
12169TIP3   OH236451   1.103   3.519   2.172
12169TIP3    H136452   1.198   3.514   2.186
12169TIP3    H236453   1.085   3.452   2.107
12170TIP3   OH236454   7.355   0.499   1.287
12170TIP3    H136455   7.376   0.482   1.379
12170TIP3    H236456   7.380   0.419   1.241
12171TIP3   OH236457   6.217   3.457   1.977
12171TIP3    H136458   6.123   3.441   1.971
12171TIP3    H236459   6.236   3.456   2.071
12172TIP3   OH236460   3.900   6.054   6.717
12172TIP3    H136461   3.832   5.991   6.742
12172TIP3    H236462   3.961   6.003   6.664
12173TIP3   OH236463   0.793   2.776   2.518
12173TIP3    H136464   0.859   2.844   2.522
12173TIP3    H236465   0.729   2.808   2.455
12174TIP3   OH236466   0.232   6.580   4.228
12174TIP3    H136467   0.145   6.545   4.249
12174TIP3    H236468   0.242   6.566   4.134
12175TIP3   OH236469   6.321   3.386   4.827
12175TIP3    H136470   6.272   3.463   4.855
12175TIP3    H236471   6.410   3.417   4.812
12176TIP3   OH236472   3.756   1.667   2.766
12176TIP3    H136473   3.720   1.590   2.720
12176TIP3    H236474   3.835   1.689   2.717
12177TIP3   OH236475   1.621   4.393   1.460
12177TIP3    H136476   1.673   4.342   1.398
12177TIP3    H236477   1.541   4.414   1.413
12178TIP3   OH236478   6.034   2.470   4.503
12178TIP3    H136479   6.042   2.376   4.492
12178TIP3    H236480   5.970   2.481   4.573
12179TIP3   OH236481   5.099   6.320   4.547
12179TIP3    H136482   5.078   6.293   4.636
12179TIP3    H236483   5.015   6.339   4.507
12180TIP3   OH236484   6.949   1.641   3.836
12180TIP3    H136485   6.961   1.698   3.913
12180TIP3    H236486   6.855   1.643   3.820
12181TIP3   OH236487   4.209   6.922   1.543
12181TIP3    H136488   4.273   6.959   1.481
12181TIP3    H236489   4.261   6.875   1.607
12182TIP3   OH236490   0.730   7.263   0.708
12182TIP3    H136491   0.695   7.222   0.787
12182TIP3    H236492   0.750   7.353   0.735
12183TIP3   OH236493   5.504   0.686   2.510
12183TIP3    H136494   5.597   0.665   2.512
12183TIP3    H236495   5.500   0.781   2.518
12184TIP3   OH236496   1.806   0.754   1.225
12184TIP3    H136497   1.780   0.840   1.259
12184TIP3    H236498   1.747   0.693   1.270
12185TIP3   OH236499   1.362   6.441   4.465
12185TIP3    H136500   1.423   6.425   4.393
12185TIP3    H236501   1.364   6.361   4.517
12186TIP3   OH236502   8.069   0.608   4.831
12186TIP3    H136503   8.090   0.545   4.762
12186TIP3    H236504   8.154   0.639   4.861
12187TIP3   OH236505   4.645   7.237   1.550
12187TIP3    H136506   4.735   7.216   1.577
12187TIP3    H236507   4.655   7.312   1.491
12188TIP3   OH236508   5.766   7.577   1.143
12188TIP3    H136509   5.744   7.559   1.234
12188TIP3    H236510   5.850   7.621   1.146
12189TIP3   OH236511   6.285   5.692   3.730
12189TIP3    H136512   6.205   5.719   3.686
12189TIP3    H236513   6.274   5.598   3.745
12190TIP3   OH236514   5.388   4.278   1.753
12190TIP3    H136515   5.303   4.233   1.752
12190TIP3    H236516   5.421   4.265   1.842
12191TIP3   OH236517   5.730   1.078   3.174
12191TIP3    H136518   5.657   1.123   3.216
12191TIP3    H236519   5.712   0.985   3.187
12192TIP3   OH236520   1.374   7.636   4.043
12192TIP3    H136521   1.320   7.644   3.964
12192TIP3    H236522   1.441   7.704   4.033
12193TIP3   OH236523   0.331   3.634   5.073
12193TIP3    H136524   0.239   3.651   5.050
12193TIP3    H236525   0.381   3.672   5.002
12194TIP3   OH236526   2.333   2.214   6.634
12194TIP3    H136527   2.407   2.240   6.688
12194TIP3    H236528   2.330   2.118   6.641
12195TIP3   OH236529   4.452   3.730   1.254
12195TIP3    H136530   4.500   3.685   1.185
12195TIP3    H236531   4.399   3.795   1.207
12196TIP3   OH236532   4.621   7.003   2.197
12196TIP3    H136533   4.673   6.922   2.199
12196TIP3    H236534   4.602   7.017   2.104
12197TIP3   OH236535   7.633   3.262   4.008
12197TIP3    H136536   7.584   3.256   3.926
12197TIP3    H236537   7.594   3.195   4.064
12198TIP3   OH236538   2.333   0.127   0.388
12198TIP3    H136539   2.329   0.042   0.343
12198TIP3    H236540   2.243   0.160   0.384
12199TIP3   OH236541   6.526   7.688   3.288
12199TIP3    H136542   6.549   7.610   3.238
12199TIP3    H236543   6.605   7.743   3.282
12200TIP3   OH236544   5.769   3.576   4.676
12200TIP3    H136545   5.710   3.520   4.726
12200TIP3    H236546   5.857   3.553   4.707
12201TIP3   OH236547   5.736   2.728   1.608
12201TIP3    H136548   5.787   2.699   1.532
12201TIP3    H236549   5.664   2.666   1.613
12202TIP3   OH236550   0.201   2.709   5.406
12202TIP3    H136551   0.259   2.772   5.448
12202TIP3    H236552   0.245   2.625   5.415
12203TIP3   OH236553   6.613   4.543   1.930
12203TIP3    H136554   6.597   4.500   1.846
12203TIP3    H236555   6.709   4.546   1.938
12204TIP3   OH236556   7.819   6.041   1.154
12204TIP3    H136557   7.905   6.006   1.176
12204TIP3    H236558   7.834   6.094   1.075
12205TIP3   OH236559   5.992   1.066   0.617
12205TIP3    H136560   5.905   1.038   0.648
12205TIP3    H236561   6.051   1.046   0.690
12206TIP3   OH236562   3.447   7.431   2.667
12206TIP3    H136563   3.440   7.520   2.703
12206TIP3    H236564   3.374   7.383   2.707
12207TIP3   OH236565   0.252   7.241   4.892
12207TIP3    H136566   0.245   7.311   4.828
12207TIP3    H236567   0.340   7.250   4.929
12208TIP3   OH236568   0.951   2.480   1.364
12208TIP3    H136569   0.893   2.411   1.333
12208TIP3    H236570   1.011   2.436   1.424
12209TIP3   OH236571   2.813   7.674   5.466
12209TIP3    H136572   2.783   7.589   5.499
12209TIP3    H236573   2.829   7.725   5.545
12210TIP3   OH236574   6.977   5.974   1.102
12210TIP3    H136575   6.921   5.917   1.155
12210TIP3    H236576   6.918   6.042   1.069
12211TIP3   OH236577   5.486   2.157   4.837
12211TIP3    H136578   5.442   2.072   4.834
12211TIP3    H236579   5.421   2.219   4.806
12212TIP3   OH236580   8.067   0.593   2.353
12212TIP3    H136581   7.990   0.642   2.380
12212TIP3    H236582   8.038   0.503   2.345
12213TIP3   OH236583   6.463   0.589   4.964
12213TIP3    H136584   6.401   0.573   4.893
12213TIP3    H236585   6.534   0.526   4.948
12214TIP3   OH236586   8.311   5.147   2.418
12214TIP3    H136587   8.397   5.187   2.429
12214TIP3    H236588   8.268   5.159   2.503
12215TIP3   OH236589   7.032   5.691   1.790
12215TIP3    H136590   7.016   5.646   1.707
12215TIP3    H236591   7.058   5.779   1.766
12216TIP3   OH236592   3.550   3.481   1.762
12216TIP3    H136593   3.520   3.432   1.686
12216TIP3    H236594   3.538   3.573   1.738
12217TIP3   OH236595   4.048   0.636   3.755
12217TIP3    H136596   4.035   0.726   3.728
12217TIP3    H236597   4.008   0.584   3.685
12218TIP3   OH236598   5.006   2.181   5.266
12218TIP3    H136599   4.979   2.152   5.179
12218TIP3    H236600   4.957   2.126   5.326
12219TIP3   OH236601   1.224   2.814   3.215
12219TIP3    H136602   1.275   2.891   3.190
12219TIP3    H236603   1.233   2.754   3.141
12220TIP3   OH236604   8.166   4.253   5.364
12220TIP3    H136605   8.183   4.267   5.458
12220TIP3    H236606   8.124   4.334   5.336
12221TIP3   OH236607   4.871   0.634   5.504
12221TIP3    H136608   4.962   0.660   5.511
12221TIP3    H236609   4.865   0.553   5.555
12222TIP3   OH236610   4.410   4.962   1.164
12222TIP3    H136611   4.372   4.937   1.079
12222TIP3    H236612   4.458   5.043   1.146
12223TIP3   OH236613   1.509   2.243   5.452
12223TIP3    H136614   1.510   2.252   5.547
12223TIP3    H236615   1.541   2.327   5.420
12224TIP3   OH236616   1.096   2.896   4.958
12224TIP3    H136617   1.157   2.946   4.903
12224TIP3    H236618   1.136   2.809   4.966
12225TIP3   OH236619   8.239   6.461   3.198
12225TIP3    H136620   8.167   6.513   3.162
12225TIP3    H236621   8.219   6.452   3.291
12226TIP3   OH236622   6.273   3.678   0.912
12226TIP3    H136623   6.216   3.661   0.986
12226TIP3    H236624   6.331   3.748   0.942
12227TIP3   OH236625   5.393   4.355   0.310
12227TIP3    H136626   5.380   4.261   0.298
12227TIP3    H236627   5.468   4.362   0.369
12228TIP3   OH236628   1.147   3.821   3.244
12228TIP3    H136629   1.228   3.827   3.192
12228TIP3    H236630   1.109   3.908   3.239
12229TIP3   OH236631   5.840   6.041   6.331
12229TIP3    H136632   5.811   5.954   6.358
12229TIP3    H236633   5.781   6.101   6.376
12230TIP3   OH236634   3.356   1.729   2.407
12230TIP3    H136635   3.360   1.737   2.503
12230TIP3    H236636   3.447   1.716   2.381
12231TIP3   OH236637   7.142   4.434   4.290
12231TIP3    H136638   7.230   4.430   4.252
12231TIP3    H236639   7.087   4.465   4.219
12232TIP3   OH236640   0.211   4.958   6.238
12232TIP3    H136641   0.132   4.931   6.284
12232TIP3    H236642   0.265   4.999   6.306
12233TIP3   OH236643   2.531   6.340   2.271
12233TIP3    H136644   2.473   6.298   2.334
12233TIP3    H236645   2.472   6.383   2.209
12234TIP3   OH236646   4.425   5.873   6.449
12234TIP3    H136647   4.441   5.843   6.539
12234TIP3    H236648   4.340   5.835   6.426
12235TIP3   OH236649   4.694   4.751   5.435
12235TIP3    H136650   4.614   4.764   5.385
12235TIP3    H236651   4.670   4.773   5.525
12236TIP3   OH236652   0.222   2.544   3.098
12236TIP3    H136653   0.243   2.518   3.009
12236TIP3    H236654   0.266   2.628   3.110
12237TIP3   OH236655   7.937   1.425   4.267
12237TIP3    H136656   8.021   1.379   4.263
12237TIP3    H236657   7.877   1.371   4.215
12238TIP3   OH236658   6.099   5.720   5.054
12238TIP3    H136659   6.159   5.788   5.022
12238TIP3    H236660   6.014   5.764   5.057
12239TIP3   OH236661   8.013   2.167   6.726
12239TIP3    H136662   8.088   2.224   6.708
12239TIP3    H236663   8.017   2.099   6.659
12240TIP3   OH236664   4.532   6.316   5.808
12240TIP3    H136665   4.503   6.382   5.746
12240TIP3    H236666   4.529   6.359   5.893
12241TIP3   OH236667   4.953   0.091   3.756
12241TIP3    H136668   5.004   0.133   3.688
12241TIP3    H236669   4.882   0.047   3.709
12242TIP3   OH236670   2.780   3.597   0.944
12242TIP3    H136671   2.746   3.550   1.021
12242TIP3    H236672   2.814   3.679   0.980
12243TIP3   OH236673   5.000   6.635   5.971
12243TIP3    H136674   4.908   6.617   5.952
12243TIP3    H236675   5.049   6.580   5.911
12244TIP3   OH236676   3.150   6.233   6.511
12244TIP3    H136677   3.059   6.245   6.485
12244TIP3    H236678   3.158   6.139   6.526
12245TIP3   OH236679   7.900   4.729   3.768
12245TIP3    H136680   7.834   4.694   3.708
12245TIP3    H236681   7.971   4.758   3.711
12246TIP3   OH236682   6.373   4.447   4.792
12246TIP3    H136683   6.387   4.487   4.706
12246TIP3    H236684   6.288   4.402   4.784
12247TIP3   OH236685   4.540   0.973   0.846
12247TIP3    H136686   4.490   1.054   0.854
12247TIP3    H236687   4.475   0.904   0.854
12248TIP3   OH236688   5.844   0.839   1.820
12248TIP3    H136689   5.939   0.839   1.824
12248TIP3    H236690   5.822   0.899   1.749
12249TIP3   OH236691   3.044   2.612   6.373
12249TIP3    H136692   3.004   2.539   6.420
12249TIP3    H236693   2.973   2.649   6.321
12250TIP3   OH236694   4.549   7.647   2.890
12250TIP3    H136695   4.502   7.564   2.879
12250TIP3    H236696   4.507   7.707   2.829
12251TIP3   OH236697   7.258   1.311   1.576
12251TIP3    H136698   7.333   1.301   1.516
12251TIP3    H236699   7.184   1.333   1.518
12252TIP3   OH236700   0.822   7.663   3.154
12252TIP3    H136701   0.822   7.626   3.243
12252TIP3    H236702   0.902   7.714   3.149
12253TIP3   OH236703   2.748   5.362   3.060
12253TIP3    H136704   2.703   5.303   2.999
12253TIP3    H236705   2.752   5.446   3.013
12254TIP3   OH236706   2.027   6.330   6.280
12254TIP3    H136707   2.007   6.236   6.278
12254TIP3    H236708   1.976   6.364   6.353
12255TIP3   OH236709   3.757   6.472   1.331
12255TIP3    H136710   3.741   6.502   1.420
12255TIP3    H236711   3.690   6.406   1.315
12256TIP3   OH236712   2.132   0.123   6.469
12256TIP3    H136713   2.206   0.134   6.409
12256TIP3    H236714   2.055   0.119   6.412
12257TIP3   OH236715   7.856   0.832   5.404
12257TIP3    H136716   7.821   0.876   5.482
12257TIP3    H236717   7.792   0.765   5.383
12258TIP3   OH236718   5.413   7.634   4.546
12258TIP3    H136719   5.354   7.616   4.472
12258TIP3    H236720   5.489   7.677   4.506
12259TIP3   OH236721   6.163   6.290   3.739
12259TIP3    H136722   6.237   6.264   3.794
12259TIP3    H236723   6.140   6.378   3.768
12260TIP3   OH236724   6.540   1.121   0.223
12260TIP3    H136725   6.609   1.142   0.161
12260TIP3    H236726   6.568   1.162   0.305
12261TIP3   OH236727   4.657   6.431   0.452
12261TIP3    H136728   4.695   6.483   0.522
12261TIP3    H236729   4.663   6.340   0.484
12262TIP3   OH236730   3.748   2.162   1.393
12262TIP3    H136731   3.813   2.114   1.444
12262TIP3    H236732   3.669   2.161   1.447
12263TIP3   OH236733   5.941   3.422   2.023
12263TIP3    H136734   5.909   3.342   1.980
12263TIP3    H236735   5.932   3.404   2.116
12264TIP3   OH236736   4.139   3.693   5.164
12264TIP3    H136737   4.142   3.605   5.203
12264TIP3    H236738   4.172   3.751   5.233
12265TIP3   OH236739   5.874   7.055   3.397
12265TIP3    H136740   5.872   7.009   3.480
12265TIP3    H236741   5.816   7.004   3.340
12266TIP3   OH236742   3.533   6.911   3.723
12266TIP3    H136743   3.455   6.927   3.776
12266TIP3    H236744   3.606   6.940   3.779
12267TIP3   OH236745   4.149   3.286   0.632
12267TIP3    H136746   4.054   3.276   0.645
12267TIP3    H236747   4.186   3.205   0.667
12268TIP3   OH236748   0.597   6.527   2.740
12268TIP3    H136749   0.592   6.550   2.833
12268TIP3    H236750   0.507   6.537   2.708
12269TIP3   OH236751   6.075   2.997   3.470
12269TIP3    H136752   6.054   3.052   3.546
12269TIP3    H236753   6.153   2.949   3.496
12270TIP3   OH236754   7.054   6.927   1.182
12270TIP3    H136755   7.003   6.918   1.101
12270TIP3    H236756   7.017   7.003   1.226
12271TIP3   OH236757   0.206   3.693   4.087
12271TIP3    H136758   0.191   3.612   4.038
12271TIP3    H236759   0.301   3.695   4.101
12272TIP3   OH236760   5.151   6.552   4.779
12272TIP3    H136761   5.093   6.476   4.769
12272TIP3    H236762   5.098   6.626   4.750
12273TIP3   OH236763   3.169   5.950   6.441
12273TIP3    H136764   3.259   5.936   6.412
12273TIP3    H236765   3.138   5.863   6.466
12274TIP3   OH236766   4.880   0.135   5.083
12274TIP3    H136767   4.933   0.112   5.159
12274TIP3    H236768   4.939   0.185   5.027
12275TIP3   OH236769   4.636   0.543   6.069
12275TIP3    H136770   4.692   0.479   6.024
12275TIP3    H236771   4.633   0.618   6.010
12276TIP3   OH236772   2.560   0.521   6.193
12276TIP3    H136773   2.628   0.522   6.261
12276TIP3    H236774   2.554   0.429   6.168
12277TIP3   OH236775   2.860   4.191   6.716
12277TIP3    H136776   2.954   4.198   6.735
12277TIP3    H236777   2.852   4.112   6.663
12278TIP3   OH236778   4.067   7.485   2.878
12278TIP3    H136779   4.043   7.551   2.943
12278TIP3    H236780   4.115   7.419   2.928
12279TIP3   OH236781   4.453   6.748   0.136
12279TIP3    H136782   4.508   6.699   0.075
12279TIP3    H236783   4.412   6.815   0.082
12280TIP3   OH236784   0.218   5.551   3.255
12280TIP3    H136785   0.183   5.526   3.341
12280TIP3    H236786   0.153   5.612   3.220
12281TIP3   OH236787   1.070   2.279   2.013
12281TIP3    H136788   1.164   2.270   2.027
12281TIP3    H236789   1.031   2.229   2.085
12282TIP3   OH236790   6.668   7.526   3.094
12282TIP3    H136791   6.625   7.532   3.008
12282TIP3    H236792   6.726   7.450   3.087
12283TIP3   OH236793   3.421   3.296   1.598
12283TIP3    H136794   3.437   3.212   1.554
12283TIP3    H236795   3.358   3.275   1.667
12284TIP3   OH236796   5.933   1.541   3.354
12284TIP3    H136797   5.868   1.485   3.397
12284TIP3    H236798   5.969   1.487   3.283
12285TIP3   OH236799   6.811   6.873   3.768
12285TIP3    H136800   6.802   6.941   3.701
12285TIP3    H236801   6.744   6.895   3.833
12286TIP3   OH236802   6.530   5.027   3.480
12286TIP3    H136803   6.565   5.099   3.428
12286TIP3    H236804   6.604   4.995   3.531
12287TIP3   OH236805   2.825   2.902   1.555
12287TIP3    H136806   2.914   2.869   1.567
12287TIP3    H236807   2.804   2.880   1.464
12288TIP3   OH236808   1.314   3.855   4.461
12288TIP3    H136809   1.397   3.861   4.414
12288TIP3    H236810   1.247   3.871   4.393
12289TIP3   OH236811   2.619   3.560   2.365
12289TIP3    H136812   2.588   3.628   2.425
12289TIP3    H236813   2.611   3.601   2.278
12290TIP3   OH236814   2.569   4.625   1.631
12290TIP3    H136815   2.563   4.632   1.727
12290TIP3    H236816   2.591   4.714   1.602
12291TIP3   OH236817   4.949   4.745   1.454
12291TIP3    H136818   4.881   4.773   1.515
12291TIP3    H236819   5.031   4.772   1.495
12292TIP3   OH236820   5.811   4.381   1.333
12292TIP3    H136821   5.897   4.415   1.309
12292TIP3    H236822   5.821   4.347   1.421
12293TIP3   OH236823   4.398   3.966   1.080
12293TIP3    H136824   4.435   3.991   0.995
12293TIP3    H236825   4.436   4.028   1.142
12294TIP3   OH236826   6.541   6.505   0.783
12294TIP3    H136827   6.514   6.490   0.692
12294TIP3    H236828   6.529   6.598   0.797
12295TIP3   OH236829   6.590   7.296   6.625
12295TIP3    H136830   6.605   7.207   6.657
12295TIP3    H236831   6.516   7.327   6.676
12296TIP3   OH236832   4.811   1.811   4.236
12296TIP3    H136833   4.729   1.828   4.282
12296TIP3    H236834   4.786   1.754   4.163
12297TIP3   OH236835   3.502   7.428   4.255
12297TIP3    H136836   3.578   7.435   4.196
12297TIP3    H236837   3.541   7.415   4.342
12298TIP3   OH236838   5.426   4.269   3.626
12298TIP3    H136839   5.449   4.246   3.716
12298TIP3    H236840   5.352   4.329   3.634
12299TIP3   OH236841   5.423  -0.020   1.434
12299TIP3    H136842   5.406   0.063   1.479
12299TIP3    H236843   5.518  -0.025   1.428
12300TIP3   OH236844   3.603   5.275   5.228
12300TIP3    H136845   3.683   5.273   5.176
12300TIP3    H236846   3.570   5.364   5.217
12301TIP3   OH236847   7.669   4.924   0.573
12301TIP3    H136848   7.714   4.841   0.587
12301TIP3    H236849   7.738   4.983   0.541
12302TIP3   OH236850   3.799   4.158   2.469
12302TIP3    H136851   3.857   4.134   2.397
12302TIP3    H236852   3.791   4.253   2.462
12303TIP3   OH236853   4.357   3.556   5.559
12303TIP3    H136854   4.433   3.511   5.596
12303TIP3    H236855   4.394   3.621   5.499
12304TIP3   OH236856   3.987   1.997   5.850
12304TIP3    H136857   3.906   2.017   5.802
12304TIP3    H236858   3.962   1.928   5.911
12305TIP3   OH236859   1.327   3.170   3.831
12305TIP3    H136860   1.293   3.114   3.760
12305TIP3    H236861   1.421   3.174   3.815
12306TIP3   OH236862   3.766   4.818   1.988
12306TIP3    H136863   3.683   4.837   2.031
12306TIP3    H236864   3.761   4.865   1.904
12307TIP3   OH236865   7.487   4.680   3.639
12307TIP3    H136866   7.438   4.728   3.573
12307TIP3    H236867   7.571   4.661   3.598
12308TIP3   OH236868   0.772   2.632   4.444
12308TIP3    H136869   0.856   2.632   4.491
12308TIP3    H236870   0.797   2.633   4.351
12309TIP3   OH236871   6.171   1.202   3.011
12309TIP3    H136872   6.167   1.150   3.091
12309TIP3    H236873   6.264   1.224   3.001
12310TIP3   OH236874   3.989   4.733   4.816
12310TIP3    H136875   4.019   4.648   4.850
12310TIP3    H236876   4.032   4.798   4.872
12311TIP3   OH236877   5.490   1.946   1.079
12311TIP3    H136878   5.558   1.926   1.015
12311TIP3    H236879   5.470   2.039   1.064
12312TIP3   OH236880   7.067   1.568   5.871
12312TIP3    H136881   7.129   1.630   5.910
12312TIP3    H236882   7.079   1.488   5.922
12313TIP3   OH236883   3.348   1.838   2.991
12313TIP3    H136884   3.441   1.836   3.009
12313TIP3    H236885   3.319   1.748   3.001
12314TIP3   OH236886   1.345   7.307   4.796
12314TIP3    H136887   1.278   7.299   4.863
12314TIP3    H236888   1.420   7.347   4.841
12315TIP3   OH236889   3.835   1.922   0.929
12315TIP3    H136890   3.838   1.967   1.013
12315TIP3    H236891   3.925   1.893   0.913
12316TIP3   OH236892   6.620   6.693   2.687
12316TIP3    H136893   6.612   6.601   2.662
12316TIP3    H236894   6.714   6.711   2.683
12317TIP3   OH236895   3.036   6.820   0.114
12317TIP3    H136896   3.061   6.900   0.068
12317TIP3    H236897   3.024   6.848   0.205
12318TIP3   OH236898   5.391   6.312   1.282
12318TIP3    H136899   5.368   6.249   1.351
12318TIP3    H236900   5.465   6.271   1.237
12319TIP3   OH236901   5.945   5.468   6.589
12319TIP3    H136902   5.926   5.374   6.589
12319TIP3    H236903   5.903   5.502   6.510
12320TIP3   OH236904   5.897   3.261   3.945
12320TIP3    H136905   5.891   3.166   3.954
12320TIP3    H236906   5.856   3.295   4.025
12321TIP3   OH236907   7.369   7.510   2.925
12321TIP3    H136908   7.428   7.519   3.000
12321TIP3    H236909   7.391   7.584   2.868
12322TIP3   OH236910   3.822   6.187   2.424
12322TIP3    H136911   3.734   6.189   2.386
12322TIP3    H236912   3.860   6.106   2.392
12323TIP3   OH236913   6.275   6.162   5.805
12323TIP3    H136914   6.293   6.091   5.743
12323TIP3    H236915   6.332   6.145   5.879
12324TIP3   OH236916   3.931   1.418   5.031
12324TIP3    H136917   3.932   1.453   5.120
12324TIP3    H236918   4.016   1.375   5.022
12325TIP3   OH236919   7.289   7.215   4.488
12325TIP3    H136920   7.304   7.265   4.569
12325TIP3    H236921   7.373   7.173   4.470
12326TIP3   OH236922   6.273   4.060   2.161
12326TIP3    H136923   6.352   4.094   2.120
12326TIP3    H236924   6.212   4.134   2.160
12327TIP3   OH236925   6.046   4.282   4.155
12327TIP3    H136926   5.981   4.265   4.223
12327TIP3    H236927   6.105   4.206   4.158
12328TIP3   OH236928   2.281   4.967   5.702
12328TIP3    H136929   2.375   4.983   5.711
12328TIP3    H236930   2.263   4.897   5.764
12329TIP3   OH236931   5.807   5.596   5.453
12329TIP3    H136932   5.757   5.670   5.419
12329TIP3    H236933   5.749   5.556   5.518
12330TIP3   OH236934   4.290   0.751   3.343
12330TIP3    H136935   4.368   0.799   3.316
12330TIP3    H236936   4.308   0.723   3.432
12331TIP3   OH236937   8.105   3.000   3.477
12331TIP3    H136938   8.119   2.923   3.422
12331TIP3    H236939   8.164   2.987   3.552
12332TIP3   OH236940   3.685   3.230   4.269
12332TIP3    H136941   3.740   3.285   4.325
12332TIP3    H236942   3.746   3.167   4.230
12333TIP3   OH236943   1.133   0.526   4.294
12333TIP3    H136944   1.143   0.602   4.238
12333TIP3    H236945   1.060   0.548   4.352
12334TIP3   OH236946   3.482   5.611   5.993
12334TIP3    H136947   3.439   5.531   5.962
12334TIP3    H236948   3.448   5.680   5.935
12335TIP3   OH236949   6.340   7.142   6.703
12335TIP3    H136950   6.294   7.191   6.772
12335TIP3    H236951   6.300   7.174   6.621
12336TIP3   OH236952   7.797   5.974   1.820
12336TIP3    H136953   7.808   6.066   1.794
12336TIP3    H236954   7.877   5.954   1.869
12337TIP3   OH236955   8.192   1.356   6.012
12337TIP3    H136956   8.269   1.350   5.957
12337TIP3    H236957   8.161   1.446   6.000
12338TIP3   OH236958   0.609   1.890   4.790
12338TIP3    H136959   0.660   1.894   4.709
12338TIP3    H236960   0.620   1.800   4.821
12339TIP3   OH236961   5.119   7.583   2.387
12339TIP3    H136962   5.113   7.489   2.373
12339TIP3    H236963   5.028   7.613   2.384
12340TIP3   OH236964   5.742   2.432   2.216
12340TIP3    H136965   5.729   2.522   2.187
12340TIP3    H236966   5.800   2.394   2.150
12341TIP3   OH236967   0.763   3.096   2.103
12341TIP3    H136968   0.715   3.015   2.085
12341TIP3    H236969   0.720   3.133   2.180
12342TIP3   OH236970   4.368   5.017   5.477
12342TIP3    H136971   4.349   5.098   5.430
12342TIP3    H236972   4.386   4.953   5.408
12343TIP3   OH236973   2.942   7.685   6.153
12343TIP3    H136974   2.963   7.592   6.152
12343TIP3    H236975   2.984   7.719   6.232
12344TIP3   OH236976   3.913   4.509   5.849
12344TIP3    H136977   3.952   4.595   5.831
12344TIP3    H236978   3.955   4.480   5.930
12345TIP3   OH236979   6.313   7.844   3.174
12345TIP3    H136980   6.285   7.827   3.264
12345TIP3    H236981   6.388   7.786   3.161
12346TIP3   OH236982   3.406   1.020   1.018
12346TIP3    H136983   3.385   1.094   1.075
12346TIP3    H236984   3.497   1.036   0.991
12347TIP3   OH236985   3.106   4.487   4.368
12347TIP3    H136986   3.029   4.447   4.409
12347TIP3    H236987   3.161   4.514   4.442
12348TIP3   OH236988   4.893   7.717   1.827
12348TIP3    H136989   4.941   7.752   1.752
12348TIP3    H236990   4.832   7.654   1.789
12349TIP3   OH236991   6.125   4.272   4.803
12349TIP3    H136992   6.040   4.233   4.785
12349TIP3    H236993   6.186   4.227   4.744
12350TIP3   OH236994   4.270   3.514   3.352
12350TIP3    H136995   4.196   3.531   3.293
12350TIP3    H236996   4.323   3.593   3.348
12351TIP3   OH236997   5.255   0.260   2.669
12351TIP3    H136998   5.167   0.296   2.678
12351TIP3    H236999   5.244   0.186   2.609
12352TIP3   OH237000   4.023   7.204   3.275
12352TIP3    H137001   4.106   7.230   3.315
12352TIP3    H237002   3.965   7.186   3.349
12353TIP3   OH237003   3.309   6.883   5.663
12353TIP3    H137004   3.386   6.927   5.627
12353TIP3    H237005   3.237   6.945   5.647
12354TIP3   OH237006   7.248   2.382   2.551
12354TIP3    H137007   7.265   2.411   2.462
12354TIP3    H237008   7.334   2.380   2.593
12355TIP3   OH237009   7.761   2.348   1.289
12355TIP3    H137010   7.729   2.432   1.322
12355TIP3    H237011   7.828   2.321   1.352
12356TIP3   OH237012   3.182   1.960   5.486
12356TIP3    H137013   3.095   1.958   5.526
12356TIP3    H237014   3.239   1.998   5.553
12357TIP3   OH237015   8.147   5.738   3.820
12357TIP3    H137016   8.186   5.821   3.846
12357TIP3    H237017   8.193   5.713   3.740
12358TIP3   OH237018   3.811   2.935   6.133
12358TIP3    H137019   3.782   2.970   6.048
12358TIP3    H237020   3.823   2.841   6.117
12359TIP3   OH237021   7.657   7.347   5.870
12359TIP3    H137022   7.659   7.308   5.957
12359TIP3    H237023   7.626   7.277   5.813
12360TIP3   OH237024   1.624   5.263   6.203
12360TIP3    H137025   1.651   5.242   6.114
12360TIP3    H237026   1.579   5.185   6.234
12361TIP3   OH237027   1.289   2.285   1.320
12361TIP3    H137028   1.212   2.279   1.376
12361TIP3    H237029   1.363   2.292   1.381
12362TIP3   OH237030   2.517   1.153   0.522
12362TIP3    H137031   2.579   1.171   0.451
12362TIP3    H237032   2.571   1.111   0.590
12363TIP3   OH237033   5.581   3.266   2.484
12363TIP3    H137034   5.560   3.356   2.461
12363TIP3    H237035   5.522   3.246   2.557
12364TIP3   OH237036   6.445   0.262   0.051
12364TIP3    H137037   6.373   0.231   0.106
12364TIP3    H237038   6.523   0.218   0.085
12365TIP3   OH237039   2.816   2.600   2.805
12365TIP3    H137040   2.838   2.693   2.803
12365TIP3    H237041   2.900   2.555   2.812
12366TIP3   OH237042   6.605   5.054   1.369
12366TIP3    H137043   6.645   4.971   1.344
12366TIP3    H237044   6.613   5.057   1.464
12367TIP3   OH237045   4.731   6.435   2.530
12367TIP3    H137046   4.731   6.384   2.449
12367TIP3    H237047   4.803   6.397   2.582
12368TIP3   OH237048   3.132   7.744   2.838
12368TIP3    H137049   3.047   7.700   2.847
12368TIP3    H237050   3.128   7.817   2.900
12369TIP3   OH237051   1.462   6.505   5.169
12369TIP3    H137052   1.543   6.549   5.143
12369TIP3    H237053   1.455   6.430   5.110
12370TIP3   OH237054   1.676   6.194   5.494
12370TIP3    H137055   1.597   6.158   5.453
12370TIP3    H237056   1.679   6.285   5.463
12371TIP3   OH237057   0.264   2.648   6.774
12371TIP3    H137058   0.294   2.633   6.685
12371TIP3    H237059   0.287   2.739   6.792
12372TIP3   OH237060   1.992   7.489   5.129
12372TIP3    H137061   2.069   7.520   5.081
12372TIP3    H237062   1.980   7.552   5.200
12373TIP3   OH237063   6.061   5.392   2.918
12373TIP3    H137064   6.057   5.316   2.977
12373TIP3    H237065   5.972   5.401   2.885
12374TIP3   OH237066   0.395   2.159   6.618
12374TIP3    H137067   0.308   2.121   6.624
12374TIP3    H237068   0.390   2.240   6.668
12375TIP3   OH237069   6.580   0.109   4.019
12375TIP3    H137070   6.674   0.126   4.022
12375TIP3    H237071   6.566   0.071   3.932
12376TIP3   OH237072   0.762   1.977   1.884
12376TIP3    H137073   0.857   1.989   1.889
12376TIP3    H237074   0.748   1.931   1.801
12377TIP3   OH237075   1.879   6.695   5.765
12377TIP3    H137076   1.871   6.710   5.859
12377TIP3    H237077   1.840   6.608   5.752
12378TIP3   OH237078   5.317   4.789   1.978
12378TIP3    H137079   5.356   4.807   2.064
12378TIP3    H237080   5.363   4.712   1.946
12379TIP3   OH237081   7.233   0.182   4.553
12379TIP3    H137082   7.279   0.239   4.614
12379TIP3    H237083   7.173   0.240   4.506
12380TIP3   OH237084   1.467   7.183   3.166
12380TIP3    H137085   1.520   7.116   3.122
12380TIP3    H237086   1.377   7.161   3.144
12381TIP3   OH237087   2.093   4.185   2.586
12381TIP3    H137088   2.055   4.273   2.582
12381TIP3    H237089   2.034   4.132   2.532
12382TIP3   OH237090   4.966   2.850   3.890
12382TIP3    H137091   4.876   2.880   3.902
12382TIP3    H237092   4.961   2.755   3.900
12383TIP3   OH237093   2.246   0.769   2.216
12383TIP3    H137094   2.285   0.701   2.270
12383TIP3    H237095   2.264   0.742   2.126
12384TIP3   OH237096   5.560   4.168   4.160
12384TIP3    H137097   5.583   4.235   4.224
12384TIP3    H237098   5.537   4.217   4.081
12385TIP3   OH237099   3.322   3.186   5.190
12385TIP3    H137100   3.255   3.143   5.137
12385TIP3    H237101   3.299   3.164   5.281
12386TIP3   OH237102   5.927   5.625   1.341
12386TIP3    H137103   5.906   5.589   1.427
12386TIP3    H237104   5.842   5.643   1.302
12387TIP3   OH237105   6.675   7.643   3.981
12387TIP3    H137106   6.628   7.709   4.032
12387TIP3    H237107   6.755   7.688   3.952
12388TIP3   OH237108   1.162   2.075   6.424
12388TIP3    H137109   1.206   2.030   6.353
12388TIP3    H237110   1.128   2.005   6.480
12389TIP3   OH237111   6.508   6.297   3.640
12389TIP3    H137112   6.476   6.341   3.718
12389TIP3    H237113   6.497   6.204   3.658
12390TIP3   OH237114   6.147   7.541   3.430
12390TIP3    H137115   6.053   7.540   3.412
12390TIP3    H237116   6.164   7.460   3.477
12391TIP3   OH237117   8.224   2.550   3.436
12391TIP3    H137118   8.217   2.485   3.366
12391TIP3    H237119   8.276   2.506   3.504
12392TIP3   OH237120   2.344   7.835   3.226
12392TIP3    H137121   2.270   7.836   3.165
12392TIP3    H237122   2.362   7.742   3.239
12393TIP3   OH237123   6.649   1.897   5.615
12393TIP3    H137124   6.641   1.964   5.684
12393TIP3    H237125   6.728   1.922   5.567
12394TIP3   OH237126   0.150   1.176   0.821
12394TIP3    H137127   0.094   1.107   0.858
12394TIP3    H237128   0.205   1.204   0.894
12395TIP3   OH237129   3.264   4.071   0.412
12395TIP3    H137130   3.352   4.052   0.444
12395TIP3    H237131   3.222   3.986   0.403
12396TIP3   OH237132   1.932   3.368   5.466
12396TIP3    H137133   1.995   3.303   5.435
12396TIP3    H237134   1.847   3.332   5.443
12397TIP3   OH237135   3.072   2.781   1.309
12397TIP3    H137136   2.994   2.784   1.254
12397TIP3    H237137   3.104   2.871   1.310
12398TIP3   OH237138   4.447   4.690   5.785
12398TIP3    H137139   4.437   4.716   5.876
12398TIP3    H237140   4.457   4.772   5.737
12399TIP3   OH237141   1.733   5.665   2.965
12399TIP3    H137142   1.791   5.727   2.920
12399TIP3    H237143   1.759   5.671   3.057
12400TIP3   OH237144   0.339   6.049   2.413
12400TIP3    H137145   0.434   6.052   2.427
12400TIP3    H237146   0.324   6.106   2.338
12401TIP3   OH237147   1.364   1.332   1.210
12401TIP3    H137148   1.353   1.321   1.304
12401TIP3    H237149   1.390   1.424   1.199
12402TIP3   OH237150   6.477   6.240   5.067
12402TIP3    H137151   6.517   6.154   5.077
12402TIP3    H237152   6.401   6.238   5.125
12403TIP3   OH237153   1.350   0.921   6.225
12403TIP3    H137154   1.320   0.830   6.227
12403TIP3    H237155   1.294   0.963   6.161
12404TIP3   OH237156   5.719   2.272   1.182
12404TIP3    H137157   5.693   2.250   1.093
12404TIP3    H237158   5.815   2.278   1.178
12405TIP3   OH237159   4.173   2.392   6.316
12405TIP3    H137160   4.169   2.413   6.409
12405TIP3    H237161   4.082   2.389   6.287
12406TIP3   OH237162   0.608   6.555   1.455
12406TIP3    H137163   0.568   6.496   1.390
12406TIP3    H237164   0.615   6.502   1.534
12407TIP3   OH237165   1.754   7.211   4.373
12407TIP3    H137166   1.659   7.209   4.363
12407TIP3    H237167   1.768   7.256   4.457
12408TIP3   OH237168   3.876   5.491   0.723
12408TIP3    H137169   3.818   5.555   0.763
12408TIP3    H237170   3.870   5.414   0.780
12409TIP3   OH237171   0.648   0.172   6.051
12409TIP3    H137172   0.693   0.158   5.968
12409TIP3    H237173   0.556   0.184   6.027
12410TIP3   OH237174   2.753   6.723   0.576
12410TIP3    H137175   2.742   6.727   0.481
12410TIP3    H237176   2.821   6.656   0.589
12411TIP3   OH237177   4.545   3.389   0.786
12411TIP3    H137178   4.635   3.413   0.809
12411TIP3    H237179   4.546   3.294   0.780
12412TIP3   OH237180   1.821   5.728   5.067
12412TIP3    H137181   1.735   5.762   5.043
12412TIP3    H237182   1.866   5.804   5.105
12413TIP3   OH237183   1.540   1.245   5.826
12413TIP3    H137184   1.513   1.306   5.895
12413TIP3    H237185   1.615   1.199   5.862
12414TIP3   OH237186   1.586   2.728   4.538
12414TIP3    H137187   1.589   2.636   4.562
12414TIP3    H237188   1.636   2.773   4.606
12415TIP3   OH237189   3.898   0.132   4.654
12415TIP3    H137190   3.885   0.166   4.742
12415TIP3    H237191   3.982   0.087   4.657
12416TIP3   OH237192   6.118   2.136   0.304
12416TIP3    H137193   6.177   2.066   0.332
12416TIP3    H237194   6.032   2.095   0.302
12417TIP3   OH237195   6.470   4.067   0.171
12417TIP3    H137196   6.411   4.065   0.095
12417TIP3    H237197   6.451   4.151   0.213
12418TIP3   OH237198   1.846   2.323   3.561
12418TIP3    H137199   1.883   2.236   3.566
12418TIP3    H237200   1.779   2.317   3.492
12419TIP3   OH237201   4.770   2.259   4.933
12419TIP3    H137202   4.846   2.203   4.950
12419TIP3    H237203   4.738   2.231   4.847
12420TIP3   OH237204   6.894   2.201   4.149
12420TIP3    H137205   6.974   2.246   4.175
12420TIP3    H237206   6.859   2.253   4.077
12421TIP3   OH237207   2.473   6.901   2.539
12421TIP3    H137208   2.490   6.988   2.574
12421TIP3    H237209   2.542   6.846   2.576
12422TIP3   OH237210   2.161   4.231   2.253
12422TIP3    H137211   2.210   4.182   2.319
12422TIP3    H237212   2.074   4.241   2.291
12423TIP3   OH237213   1.009   4.200   2.345
12423TIP3    H137214   0.933   4.142   2.336
12423TIP3    H237215   0.988   4.256   2.420
12424TIP3   OH237216   4.168   1.881   4.921
12424TIP3    H137217   4.077   1.875   4.952
12424TIP3    H237218   4.160   1.890   4.826
12425TIP3   OH237219   7.255   5.898   3.812
12425TIP3    H137220   7.330   5.859   3.768
12425TIP3    H237221   7.272   5.992   3.811
12426TIP3   OH237222   6.541   3.566   2.172
12426TIP3    H137223   6.500   3.621   2.105
12426TIP3    H237224   6.578   3.493   2.124
12427TIP3   OH237225   1.934   1.579   0.901
12427TIP3    H137226   1.910   1.671   0.889
12427TIP3    H237227   1.945   1.570   0.996
12428TIP3   OH237228   7.127   4.729   0.076
12428TIP3    H137229   7.038   4.722   0.112
12428TIP3    H237230   7.178   4.667   0.128
12429TIP3   OH237231   4.912   3.440   4.909
12429TIP3    H137232   4.981   3.383   4.945
12429TIP3    H237233   4.851   3.379   4.867
12430TIP3   OH237234   3.970   3.763   1.908
12430TIP3    H137235   4.065   3.753   1.913
12430TIP3    H237236   3.942   3.773   1.999
12431TIP3   OH237237   7.672   2.813   2.940
12431TIP3    H137238   7.738   2.881   2.933
12431TIP3    H237239   7.668   2.774   2.853
12432TIP3   OH237240   5.904   4.523   1.822
12432TIP3    H137241   5.883   4.614   1.800
12432TIP3    H237242   5.993   4.527   1.858
12433TIP3   OH237243   4.997   7.093   5.815
12433TIP3    H137244   5.018   7.182   5.843
12433TIP3    H237245   4.944   7.058   5.886
12434TIP3   OH237246   1.177   5.844   4.782
12434TIP3    H137247   1.184   5.772   4.720
12434TIP3    H237248   1.091   5.834   4.822
12435TIP3   OH237249   7.230   0.900   6.725
12435TIP3    H137250   7.274   0.984   6.717
12435TIP3    H237251   7.157   0.917   6.784
12436TIP3   OH237252   2.055   5.753   2.119
12436TIP3    H137253   1.980   5.731   2.064
12436TIP3    H237254   2.111   5.676   2.116
12437TIP3   OH237255   4.046   3.940   1.581
12437TIP3    H137256   4.060   4.033   1.563
12437TIP3    H237257   4.132   3.900   1.568
12438TIP3   OH237258   1.010   3.624   3.041
12438TIP3    H137259   1.071   3.577   2.984
12438TIP3    H237260   1.058   3.701   3.070
12439TIP3   OH237261   3.985   1.066   2.604
12439TIP3    H137262   4.017   1.135   2.546
12439TIP3    H237263   4.048   1.064   2.676
12440TIP3   OH237264   7.706   0.231   5.511
12440TIP3    H137265   7.743   0.315   5.486
12440TIP3    H237266   7.611   0.244   5.508
12441TIP3   OH237267   1.603   4.117   6.383
12441TIP3    H137268   1.673   4.127   6.319
12441TIP3    H237269   1.540   4.057   6.343
12442TIP3   OH237270   2.772   0.865   6.307
12442TIP3    H137271   2.809   0.902   6.387
12442TIP3    H237272   2.847   0.854   6.249
12443TIP3   OH237273   0.912   0.042   6.231
12443TIP3    H137274   0.916   0.098   6.153
12443TIP3    H237275   0.974   0.082   6.292
12444TIP3   OH237276   4.058   0.569   5.273
12444TIP3    H137277   4.022   0.480   5.272
12444TIP3    H237278   4.078   0.587   5.181
12445TIP3   OH237279   3.689   4.265   0.085
12445TIP3    H137280   3.696   4.181   0.130
12445TIP3    H237281   3.595   4.278   0.073
12446TIP3   OH237282   1.405   7.577   2.176
12446TIP3    H137283   1.377   7.487   2.191
12446TIP3    H237284   1.380   7.624   2.256
12447TIP3   OH237285   7.808   7.576   4.973
12447TIP3    H137286   7.777   7.637   5.040
12447TIP3    H237287   7.748   7.501   4.980
12448TIP3   OH237288   3.187   4.432   5.553
12448TIP3    H137289   3.218   4.513   5.592
12448TIP3    H237290   3.117   4.459   5.493
12449TIP3   OH237291   6.988   3.918   4.143
12449TIP3    H137292   7.008   3.838   4.191
12449TIP3    H237293   6.921   3.962   4.195
12450TIP3   OH237294   5.139   4.922   2.782
12450TIP3    H137295   5.116   4.915   2.875
12450TIP3    H237296   5.230   4.951   2.782
12451TIP3   OH237297   2.466   3.099   1.405
12451TIP3    H137298   2.468   3.148   1.488
12451TIP3    H237299   2.418   3.019   1.426
12452TIP3   OH237300   0.816   1.909   3.200
12452TIP3    H137301   0.819   1.989   3.147
12452TIP3    H237302   0.728   1.874   3.184
12453TIP3   OH237303   5.004   1.960   3.344
12453TIP3    H137304   5.041   2.037   3.300
12453TIP3    H237305   4.910   1.967   3.331
12454TIP3   OH237306   6.698   2.206   6.180
12454TIP3    H137307   6.742   2.125   6.205
12454TIP3    H237308   6.770   2.269   6.167
12455TIP3   OH237309   2.511   4.066   5.252
12455TIP3    H137310   2.435   4.071   5.194
12455TIP3    H237311   2.565   4.142   5.228
12456TIP3   OH237312   5.359   4.034   0.645
12456TIP3    H137313   5.423   3.997   0.584
12456TIP3    H237314   5.391   4.008   0.732
12457TIP3   OH237315   1.436   5.609   6.043
12457TIP3    H137316   1.403   5.563   6.120
12457TIP3    H237317   1.436   5.701   6.069
12458TIP3   OH237318   6.136   1.833   5.933
12458TIP3    H137319   6.074   1.834   5.861
12458TIP3    H237320   6.085   1.863   6.009
12459TIP3   OH237321   0.939   4.443   6.792
12459TIP3    H137322   0.967   4.430   6.702
12459TIP3    H237323   0.908   4.358   6.821
12460TIP3   OH237324   6.654   2.859   5.065
12460TIP3    H137325   6.570   2.896   5.091
12460TIP3    H237326   6.651   2.858   4.969
12461TIP3   OH237327   1.188   0.108   2.430
12461TIP3    H137328   1.202   0.093   2.337
12461TIP3    H237329   1.275   0.130   2.464
12462TIP3   OH237330   4.372   0.085   0.685
12462TIP3    H137331   4.403   0.037   0.762
12462TIP3    H237332   4.411   0.172   0.693
12463TIP3   OH237333   1.698   5.249   3.903
12463TIP3    H137334   1.724   5.317   3.965
12463TIP3    H237335   1.642   5.294   3.840
12464TIP3   OH237336   0.042   5.521   1.307
12464TIP3    H137337   0.017   5.607   1.340
12464TIP3    H237338   0.137   5.525   1.300
12465TIP3   OH237339   0.994   3.332   4.573
12465TIP3    H137340   1.040   3.293   4.648
12465TIP3    H237341   1.000   3.265   4.505
12466TIP3   OH237342   7.013   3.624   5.323
12466TIP3    H137343   7.009   3.570   5.402
12466TIP3    H237344   6.942   3.688   5.334
12467TIP3   OH237345   6.645   4.986   1.945
12467TIP3    H137346   6.568   4.985   2.002
12467TIP3    H237347   6.713   5.030   1.996
12468TIP3   OH237348   7.573   5.214   3.560
12468TIP3    H137349   7.608   5.134   3.599
12468TIP3    H237350   7.643   5.279   3.573
12469TIP3   OH237351   7.297   4.827   5.280
12469TIP3    H137352   7.336   4.820   5.367
12469TIP3    H237353   7.368   4.804   5.220
12470TIP3   OH237354   7.989   3.064   5.546
12470TIP3    H137355   8.079   3.047   5.517
12470TIP3    H237356   7.936   3.037   5.471
12471TIP3   OH237357   4.409   0.410   1.472
12471TIP3    H137358   4.410   0.455   1.556
12471TIP3    H237359   4.461   0.331   1.487
12472TIP3   OH237360   7.599   2.654   1.078
12472TIP3    H137361   7.567   2.585   1.020
12472TIP3    H237362   7.569   2.735   1.037
12473TIP3   OH237363   5.666   4.762   3.635
12473TIP3    H137364   5.605   4.830   3.664
12473TIP3    H237365   5.629   4.681   3.668
12474TIP3   OH237366   3.318   1.384   1.950
12474TIP3    H137367   3.334   1.478   1.950
12474TIP3    H237368   3.253   1.371   1.881
12475TIP3   OH237369   3.270   5.409   6.437
12475TIP3    H137370   3.284   5.390   6.344
12475TIP3    H237371   3.306   5.333   6.482
12476TIP3   OH237372   3.571   7.445   2.181
12476TIP3    H137373   3.562   7.533   2.219
12476TIP3    H237374   3.586   7.388   2.256
12477TIP3   OH237375   3.035   4.454   5.980
12477TIP3    H137376   3.115   4.431   6.028
12477TIP3    H237377   3.000   4.530   6.026
12478TIP3   OH237378   7.486   0.106   2.065
12478TIP3    H137379   7.482   0.136   2.156
12478TIP3    H237380   7.401   0.131   2.029
12479TIP3   OH237381   5.291   4.540   1.617
12479TIP3    H137382   5.365   4.513   1.564
12479TIP3    H237383   5.307   4.502   1.703
12480TIP3   OH237384   3.151   4.931   0.785
12480TIP3    H137385   3.066   4.899   0.755
12480TIP3    H237386   3.176   4.998   0.722
12481TIP3   OH237387   5.115   1.140   2.815
12481TIP3    H137388   5.197   1.181   2.844
12481TIP3    H237389   5.079   1.201   2.750
12482TIP3   OH237390   3.538   3.974   5.090
12482TIP3    H137391   3.573   4.048   5.139
12482TIP3    H237392   3.520   4.009   5.003
12483TIP3   OH237393   7.774   7.552   2.754
12483TIP3    H137394   7.828   7.628   2.777
12483TIP3    H237395   7.820   7.478   2.794
12484TIP3   OH237396   7.997   1.185   4.817
12484TIP3    H137397   8.007   1.095   4.848
12484TIP3    H237398   7.995   1.179   4.722
12485TIP3   OH237399   2.886   1.559   5.846
12485TIP3    H137400   2.832   1.510   5.784
12485TIP3    H237401   2.834   1.559   5.927
12486TIP3   OH237402   0.838   2.326   1.684
12486TIP3    H137403   0.806   2.342   1.595
12486TIP3    H237404   0.758   2.328   1.737
12487TIP3   OH237405   2.004   0.113   0.401
12487TIP3    H137406   1.980   0.070   0.319
12487TIP3    H237407   1.957   0.196   0.400
12488TIP3   OH237408   4.587   6.480   5.278
12488TIP3    H137409   4.629   6.561   5.307
12488TIP3    H237410   4.554   6.440   5.358
12489TIP3   OH237411   7.976   0.969   0.376
12489TIP3    H137412   8.003   1.020   0.299
12489TIP3    H237413   8.013   0.882   0.361
12490TIP3   OH237414   6.905   6.703   6.126
12490TIP3    H137415   6.922   6.647   6.201
12490TIP3    H237416   6.832   6.661   6.080
12491TIP3   OH237417   6.839   1.962   6.181
12491TIP3    H137418   6.859   1.937   6.091
12491TIP3    H237419   6.905   1.918   6.234
12492TIP3   OH237420   8.258   6.089   3.299
12492TIP3    H137421   8.292   6.002   3.280
12492TIP3    H237422   8.226   6.122   3.215
12493TIP3   OH237423   6.823   2.868   4.502
12493TIP3    H137424   6.768   2.904   4.571
12493TIP3    H237425   6.810   2.927   4.428
12494TIP3   OH237426   1.546   6.288   0.849
12494TIP3    H137427   1.600   6.251   0.780
12494TIP3    H237428   1.594   6.365   0.879
12495TIP3   OH237429   3.927   2.608   1.605
12495TIP3    H137430   3.920   2.677   1.671
12495TIP3    H237431   4.002   2.633   1.552
12496TIP3   OH237432   3.245   3.262   4.274
12496TIP3    H137433   3.292   3.181   4.297
12496TIP3    H237434   3.272   3.326   4.340
12497TIP3   OH237435   1.008   2.557   3.077
12497TIP3    H137436   0.931   2.614   3.075
12497TIP3    H237437   1.003   2.513   3.162
12498TIP3   OH237438   1.627   0.645   6.418
12498TIP3    H137439   1.629   0.623   6.512
12498TIP3    H237440   1.601   0.737   6.416
12499TIP3   OH237441   4.851   0.101   5.470
12499TIP3    H137442   4.921   0.149   5.425
12499TIP3    H237443   4.881   0.094   5.560
12500TIP3   OH237444   7.697   0.668   4.466
12500TIP3    H137445   7.643   0.698   4.392
12500TIP3    H237446   7.786   0.668   4.432
12501TIP3   OH237447   0.155   4.406   5.446
12501TIP3    H137448   0.067   4.379   5.473
12501TIP3    H237449   0.204   4.324   5.439
12502TIP3   OH237450   4.982   4.621   3.141
12502TIP3    H137451   4.905   4.564   3.140
12502TIP3    H237452   4.975   4.672   3.060
12503TIP3   OH237453   1.021  -0.026   5.656
12503TIP3    H137454   1.104  -0.058   5.692
12503TIP3    H237455   1.046   0.043   5.595
12504TIP3   OH237456   7.432   3.938   4.858
12504TIP3    H137457   7.487   3.970   4.786
12504TIP3    H237458   7.447   3.844   4.860
12505TIP3   OH237459   0.949   7.534   0.398
12505TIP3    H137460   1.037   7.558   0.427
12505TIP3    H237461   0.891   7.575   0.463
12506TIP3   OH237462   0.114   0.223   4.732
12506TIP3    H137463   0.160   0.263   4.807
12506TIP3    H237464   0.088   0.137   4.764
12507TIP3   OH237465   3.567   4.912   1.731
12507TIP3    H137466   3.495   4.870   1.780
12507TIP3    H237467   3.591   4.847   1.665
12508TIP3   OH237468   8.293   1.339   3.174
12508TIP3    H137469   8.225   1.407   3.169
12508TIP3    H237470   8.302   1.320   3.268
12509TIP3   OH237471   5.253   6.145   6.467
12509TIP3    H137472   5.308   6.073   6.436
12509TIP3    H237473   5.282   6.221   6.416
12510TIP3   OH237474   6.748   2.518   0.321
12510TIP3    H137475   6.706   2.471   0.393
12510TIP3    H237476   6.676   2.543   0.263
12511TIP3   OH237477   6.349   3.946   1.886
12511TIP3    H137478   6.279   4.010   1.869
12511TIP3    H237479   6.424   4.000   1.912
12512TIP3   OH237480   7.652   1.487   0.976
12512TIP3    H137481   7.643   1.456   0.886
12512TIP3    H237482   7.724   1.435   1.012
12513TIP3   OH237483   1.754   1.783   5.995
12513TIP3    H137484   1.780   1.867   5.956
12513TIP3    H237485   1.815   1.771   6.068
12514TIP3   OH237486   5.007   5.178   5.844
12514TIP3    H137487   5.017   5.084   5.827
12514TIP3    H237488   4.946   5.208   5.777
12515TIP3   OH237489   2.807   5.241   4.765
12515TIP3    H137490   2.773   5.328   4.748
12515TIP3    H237491   2.749   5.182   4.718
12516TIP3   OH237492   7.402   2.371   0.182
12516TIP3    H137493   7.380   2.343   0.093
12516TIP3    H237494   7.321   2.408   0.217
12517TIP3   OH237495   0.645   3.585   5.259
12517TIP3    H137496   0.671   3.507   5.209
12517TIP3    H237497   0.559   3.563   5.294
12518TIP3   OH237498   5.148   5.633   3.179
12518TIP3    H137499   5.128   5.597   3.266
12518TIP3    H237500   5.062   5.659   3.145
12519TIP3   OH237501   8.150   0.861   0.710
12519TIP3    H137502   8.198   0.874   0.792
12519TIP3    H237503   8.121   0.949   0.686
12520TIP3   OH237504   1.009   7.494   2.181
12520TIP3    H137505   0.954   7.424   2.217
12520TIP3    H237506   1.038   7.544   2.257
12521TIP3   OH237507   3.398   6.355   4.194
12521TIP3    H137508   3.308   6.324   4.199
12521TIP3    H237509   3.430   6.323   4.109
12522TIP3   OH237510   4.532   3.497   1.423
12522TIP3    H137511   4.599   3.455   1.369
12522TIP3    H237512   4.532   3.589   1.396
12523TIP3   OH237513   4.732   1.171   2.896
12523TIP3    H137514   4.710   1.264   2.893
12523TIP3    H237515   4.659   1.130   2.942
12524TIP3   OH237516   1.894   2.572   4.869
12524TIP3    H137517   1.938   2.491   4.895
12524TIP3    H237518   1.953   2.641   4.900
12525TIP3   OH237519   5.177   4.557   2.731
12525TIP3    H137520   5.231   4.591   2.802
12525TIP3    H237521   5.183   4.624   2.663
12526TIP3   OH237522   7.626   4.200   3.223
12526TIP3    H137523   7.645   4.287   3.189
12526TIP3    H237524   7.633   4.143   3.147
12527TIP3   OH237525   4.816   6.394   4.658
12527TIP3    H137526   4.731   6.431   4.633
12527TIP3    H237527   4.819   6.404   4.753
12528TIP3   OH237528   4.457   5.269   0.641
12528TIP3    H137529   4.445   5.174   0.646
12528TIP3    H237530   4.372   5.306   0.665
12529TIP3   OH237531   2.389   5.067   4.489
12529TIP3    H137532   2.338   5.089   4.411
12529TIP3    H237533   2.377   5.142   4.547
12530TIP3   OH237534   2.565   6.725   5.671
12530TIP3    H137535   2.474   6.699   5.655
12530TIP3    H237536   2.617   6.651   5.637
12531TIP3   OH237537   4.107   7.147   1.649
12531TIP3    H137538   4.140   7.065   1.614
12531TIP3    H237539   4.185   7.191   1.684
12532TIP3   OH237540   3.666   2.356   0.450
12532TIP3    H137541   3.583   2.316   0.422
12532TIP3    H237542   3.660   2.446   0.418
12533TIP3   OH237543   7.492   0.672   5.693
12533TIP3    H137544   7.491   0.765   5.670
12533TIP3    H237545   7.452   0.628   5.617
12534TIP3   OH237546   8.066   5.703   1.071
12534TIP3    H137547   8.094   5.625   1.120
12534TIP3    H237548   8.060   5.772   1.137
12535TIP3   OH237549   0.845   0.209   2.297
12535TIP3    H137550   0.818   0.290   2.253
12535TIP3    H237551   0.769   0.183   2.349
12536TIP3   OH237552   7.954   0.789   0.925
12536TIP3    H137553   7.957   0.725   0.853
12536TIP3    H237554   8.043   0.824   0.930
12537TIP3   OH237555   1.124   3.169   1.130
12537TIP3    H137556   1.092   3.083   1.160
12537TIP3    H237557   1.049   3.207   1.084
12538TIP3   OH237558   1.993   4.799   3.770
12538TIP3    H137559   2.074   4.748   3.772
12538TIP3    H237560   1.940   4.763   3.841
12539TIP3   OH237561   3.492   5.472   6.609
12539TIP3    H137562   3.493   5.426   6.693
12539TIP3    H237563   3.486   5.402   6.543
12540TIP3   OH237564   4.674   6.671   1.436
12540TIP3    H137565   4.586   6.645   1.409
12540TIP3    H237566   4.733   6.628   1.374
12541TIP3   OH237567   5.897   3.247   1.394
12541TIP3    H137568   5.955   3.177   1.424
12541TIP3    H237569   5.919   3.322   1.449
12542TIP3   OH237570   7.847   7.593   4.013
12542TIP3    H137571   7.753   7.586   3.993
12542TIP3    H237572   7.852   7.660   4.082
12543TIP3   OH237573   8.021   4.384   6.339
12543TIP3    H137574   8.060   4.327   6.405
12543TIP3    H237575   8.011   4.468   6.382
12544TIP3   OH237576   1.818   6.203   2.811
12544TIP3    H137577   1.809   6.271   2.744
12544TIP3    H237578   1.841   6.251   2.890
12545TIP3   OH237579   1.668   3.477   6.395
12545TIP3    H137580   1.732   3.527   6.447
12545TIP3    H237581   1.601   3.450   6.457
12546TIP3   OH237582   3.890   2.060   4.649
12546TIP3    H137583   3.865   2.139   4.697
12546TIP3    H237584   3.984   2.049   4.668
12547TIP3   OH237585   5.330   1.408   1.322
12547TIP3    H137586   5.377   1.339   1.369
12547TIP3    H237587   5.327   1.481   1.384
12548TIP3   OH237588   3.004   1.553   5.498
12548TIP3    H137589   2.915   1.529   5.525
12548TIP3    H237590   3.061   1.496   5.549
12549TIP3   OH237591   5.827   7.006   0.419
12549TIP3    H137592   5.740   7.035   0.392
12549TIP3    H237593   5.867   6.973   0.338
12550TIP3   OH237594   1.051   3.494   5.961
12550TIP3    H137595   0.992   3.536   5.898
12550TIP3    H237596   1.020   3.524   6.047
12551TIP3   OH237597   3.462   0.685   0.298
12551TIP3    H137598   3.462   0.657   0.390
12551TIP3    H237599   3.444   0.779   0.301
12552TIP3   OH237600   8.169   6.005   5.789
12552TIP3    H137601   8.253   6.011   5.834
12552TIP3    H237602   8.167   5.916   5.753
12553TIP3   OH237603   7.894   0.149   0.105
12553TIP3    H137604   7.881   0.187   0.192
12553TIP3    H237605   7.837   0.200   0.047
12554TIP3   OH237606   0.207   7.652   1.099
12554TIP3    H137607   0.195   7.575   1.154
12554TIP3    H237608   0.167   7.723   1.149
12555TIP3   OH237609   6.207   2.447   4.860
12555TIP3    H137610   6.249   2.409   4.937
12555TIP3    H237611   6.118   2.467   4.889
12556TIP3   OH237612   0.083   7.671   6.701
12556TIP3    H137613   0.069   7.692   6.793
12556TIP3    H237614   0.176   7.648   6.696
12557TIP3   OH237615   0.428   3.237   5.880
12557TIP3    H137616   0.472   3.171   5.828
12557TIP3    H237617   0.386   3.188   5.951
12558TIP3   OH237618   0.080   3.051   4.580
12558TIP3    H137619   0.166   3.047   4.621
12558TIP3    H237620   0.095   3.097   4.497
12559TIP3   OH237621   6.992   3.224   1.958
12559TIP3    H137622   7.080   3.223   1.997
12559TIP3    H237623   6.959   3.312   1.976
12560TIP3   OH237624   5.094   5.739   6.754
12560TIP3    H137625   5.175   5.689   6.765
12560TIP3    H237626   5.074   5.732   6.660
12561TIP3   OH237627   0.908   4.866   1.668
12561TIP3    H137628   0.870   4.946   1.703
12561TIP3    H237629   0.998   4.890   1.645
12562TIP3   OH237630   0.511   6.641   4.268
12562TIP3    H137631   0.416   6.652   4.265
12562TIP3    H237632   0.541   6.705   4.332
12563TIP3   OH237633   2.560   0.445   2.733
12563TIP3    H137634   2.525   0.499   2.805
12563TIP3    H237635   2.628   0.392   2.774
12564TIP3   OH237636   5.739   7.507   5.013
12564TIP3    H137637   5.687   7.432   5.039
12564TIP3    H237638   5.695   7.542   4.935
12565TIP3   OH237639   7.675   1.103   0.156
12565TIP3    H137640   7.619   1.105   0.234
12565TIP3    H237641   7.732   1.179   0.165
12566TIP3   OH237642   4.531   4.443   3.012
12566TIP3    H137643   4.443   4.446   2.973
12566TIP3    H237644   4.584   4.398   2.947
12567TIP3   OH237645   2.814   1.429   6.515
12567TIP3    H137646   2.788   1.433   6.607
12567TIP3    H237647   2.885   1.493   6.507
12568TIP3   OH237648   4.930   2.181   1.311
12568TIP3    H137649   5.019   2.152   1.332
12568TIP3    H237650   4.897   2.114   1.252
12569TIP3   OH237651   3.561   4.193   3.139
12569TIP3    H137652   3.635   4.136   3.118
12569TIP3    H237653   3.504   4.140   3.195
12570TIP3   OH237654   6.333   2.242   1.903
12570TIP3    H137655   6.410   2.298   1.892
12570TIP3    H237656   6.260   2.296   1.874
12571TIP3   OH237657   0.582   0.641   2.876
12571TIP3    H137658   0.659   0.587   2.855
12571TIP3    H237659   0.524   0.582   2.923
12572TIP3   OH237660   4.337   6.273   0.219
12572TIP3    H137661   4.290   6.355   0.232
12572TIP3    H237662   4.413   6.297   0.166
12573TIP3   OH237663   0.826   3.550   3.209
12573TIP3    H137664   0.745   3.582   3.168
12573TIP3    H237665   0.894   3.572   3.146
12574TIP3   OH237666   5.386   0.842   3.749
12574TIP3    H137667   5.480   0.829   3.763
12574TIP3    H237668   5.371   0.934   3.772
12575TIP3   OH237669   5.247   7.676   1.225
12575TIP3    H137670   5.225   7.762   1.261
12575TIP3    H237671   5.294   7.695   1.143
12576TIP3   OH237672   5.319   2.788   3.528
12576TIP3    H137673   5.253   2.837   3.576
12576TIP3    H237674   5.316   2.700   3.566
12577TIP3   OH237675   5.286   6.785   4.934
12577TIP3    H137676   5.244   6.711   4.891
12577TIP3    H237677   5.377   6.780   4.906
12578TIP3   OH237678   5.220   4.104   4.241
12578TIP3    H137679   5.203   4.016   4.208
12578TIP3    H237680   5.284   4.141   4.180
12579TIP3   OH237681   6.816   4.090   4.308
12579TIP3    H137682   6.802   4.153   4.237
12579TIP3    H237683   6.886   4.129   4.360
12580TIP3   OH237684   0.067   4.610   2.593
12580TIP3    H137685   0.115   4.693   2.598
12580TIP3    H237686   0.091   4.573   2.508
12581TIP3   OH237687   4.803   3.828   1.395
12581TIP3    H137688   4.805   3.802   1.303
12581TIP3    H237689   4.818   3.746   1.443
12582TIP3   OH237690   6.772   6.898   0.088
12582TIP3    H137691   6.810   6.842   0.155
12582TIP3    H237692   6.773   6.986   0.126
12583TIP3   OH237693   2.383   5.104   2.467
12583TIP3    H137694   2.320   5.174   2.482
12583TIP3    H237695   2.431   5.096   2.550
12584TIP3   OH237696   1.675   1.193   1.772
12584TIP3    H137697   1.763   1.227   1.785
12584TIP3    H237698   1.619   1.251   1.822
12585TIP3   OH237699   8.166   6.177   0.498
12585TIP3    H137700   8.165   6.272   0.485
12585TIP3    H237701   8.134   6.141   0.416
12586TIP3   OH237702   4.047   7.595   3.284
12586TIP3    H137703   4.072   7.685   3.261
12586TIP3    H237704   3.995   7.605   3.364
12587TIP3   OH237705   1.263   2.262   4.649
12587TIP3    H137706   1.298   2.351   4.642
12587TIP3    H237707   1.324   2.209   4.598
12588TIP3   OH237708   6.497   2.854   3.188
12588TIP3    H137709   6.568   2.794   3.167
12588TIP3    H237710   6.426   2.828   3.129
12589TIP3   OH237711   3.721   3.449   0.422
12589TIP3    H137712   3.647   3.493   0.381
12589TIP3    H237713   3.796   3.470   0.366
12590TIP3   OH237714   7.131   2.590   6.782
12590TIP3    H137715   7.066   2.615   6.715
12590TIP3    H237716   7.188   2.667   6.789
12591TIP3   OH237717   6.990   4.966   0.647
12591TIP3    H137718   7.007   4.875   0.624
12591TIP3    H237719   6.922   4.994   0.585
12592TIP3   OH237720   7.597   3.472   2.948
12592TIP3    H137721   7.523   3.445   3.003
12592TIP3    H237722   7.619   3.560   2.978
12593TIP3   OH237723   5.723   7.277   4.402
12593TIP3    H137724   5.731   7.372   4.396
12593TIP3    H237725   5.702   7.248   4.313
12594TIP3   OH237726   6.185   1.118   1.706
12594TIP3    H137727   6.212   1.078   1.789
12594TIP3    H237728   6.165   1.043   1.649
12595TIP3   OH237729   3.275   7.024   6.815
12595TIP3    H137730   3.328   6.951   6.847
12595TIP3    H237731   3.271   7.012   6.720
12596TIP3   OH237732   1.459   3.582   4.562
12596TIP3    H137733   1.493   3.666   4.593
12596TIP3    H237734   1.375   3.604   4.521
12597TIP3   OH237735   7.163   4.286   5.518
12597TIP3    H137736   7.169   4.220   5.450
12597TIP3    H237737   7.178   4.369   5.473
12598TIP3   OH237738   6.341   4.711   5.320
12598TIP3    H137739   6.294   4.748   5.246
12598TIP3    H237740   6.272   4.685   5.381
12599TIP3   OH237741   6.868   6.378   1.990
12599TIP3    H137742   6.882   6.353   2.081
12599TIP3    H237743   6.774   6.396   1.984
12600TIP3   OH237744   6.813   4.158   1.198
12600TIP3    H137745   6.871   4.170   1.273
12600TIP3    H237746   6.864   4.186   1.122
12601TIP3   OH237747   4.728   2.115   5.878
12601TIP3    H137748   4.806   2.066   5.853
12601TIP3    H237749   4.656   2.070   5.834
12602TIP3   OH237750   2.890   3.609   2.616
12602TIP3    H137751   2.918   3.520   2.595
12602TIP3    H237752   2.806   3.598   2.661
12603TIP3   OH237753   3.606   3.722   2.560
12603TIP3    H137754   3.693   3.759   2.543
12603TIP3    H237755   3.588   3.746   2.651
12604TIP3   OH237756   7.074   0.447   4.687
12604TIP3    H137757   7.135   0.431   4.759
12604TIP3    H237758   6.998   0.392   4.707
12605TIP3   OH237759   3.027   6.871   4.738
12605TIP3    H137760   2.950   6.914   4.776
12605TIP3    H237761   2.997   6.837   4.654
12606TIP3   OH237762   2.880   5.818   4.455
12606TIP3    H137763   2.843   5.866   4.381
12606TIP3    H237764   2.939   5.881   4.497
12607TIP3   OH237765   5.536   2.637   0.396
12607TIP3    H137766   5.534   2.621   0.302
12607TIP3    H237767   5.510   2.554   0.435
12608TIP3   OH237768   3.212   5.568   3.118
12608TIP3    H137769   3.247   5.634   3.058
12608TIP3    H237770   3.191   5.493   3.062
12609TIP3   OH237771   5.350   2.023   4.212
12609TIP3    H137772   5.398   2.006   4.293
12609TIP3    H237773   5.329   1.936   4.177
12610TIP3   OH237774   5.678   3.744   5.170
12610TIP3    H137775   5.651   3.830   5.137
12610TIP3    H237776   5.765   3.758   5.206
12611TIP3   OH237777   5.776   6.520   3.047
12611TIP3    H137778   5.858   6.489   3.007
12611TIP3    H237779   5.805   6.575   3.120
12612TIP3   OH237780   1.682   6.646   5.087
12612TIP3    H137781   1.753   6.631   5.024
12612TIP3    H237782   1.725   6.672   5.168
12613TIP3   OH237783   4.742   7.475   4.002
12613TIP3    H137784   4.730   7.570   4.009
12613TIP3    H237785   4.751   7.459   3.908
12614TIP3   OH237786   5.846   2.094   6.652
12614TIP3    H137787   5.817   2.011   6.688
12614TIP3    H237788   5.766   2.143   6.636
12615TIP3   OH237789   2.746   7.409   3.859
12615TIP3    H137790   2.671   7.370   3.904
12615TIP3    H237791   2.709   7.483   3.811
12616TIP3   OH237792  -0.036   6.581   2.157
12616TIP3    H137793   0.046   6.609   2.115
12616TIP3    H237794  -0.012   6.503   2.206
12617TIP3   OH237795   8.174   2.519   1.949
12617TIP3    H137796   8.094   2.516   2.003
12617TIP3    H237797   8.180   2.610   1.920
12618TIP3   OH237798   4.599   3.917   6.685
12618TIP3    H137799   4.572   4.000   6.646
12618TIP3    H237800   4.533   3.853   6.656
12619TIP3   OH237801   3.484   5.335   4.714
12619TIP3    H137802   3.395   5.360   4.687
12619TIP3    H237803   3.534   5.332   4.633
12620TIP3   OH237804   6.717   3.919   2.041
12620TIP3    H137805   6.809   3.924   2.014
12620TIP3    H237806   6.678   3.856   1.981
12621TIP3   OH237807   2.813   1.058   0.497
12621TIP3    H137808   2.865   1.127   0.538
12621TIP3    H237809   2.795   0.996   0.568
12622TIP3   OH237810   0.553   6.441   1.780
12622TIP3    H137811   0.505   6.524   1.771
12622TIP3    H237812   0.644   6.464   1.763
12623TIP3   OH237813   2.572   7.258   4.070
12623TIP3    H137814   2.604   7.174   4.102
12623TIP3    H237815   2.595   7.320   4.139
12624TIP3   OH237816   1.557   2.128   6.764
12624TIP3    H137817   1.605   2.194   6.813
12624TIP3    H237818   1.473   2.120   6.811
12625TIP3   OH237819   0.391   1.503   0.256
12625TIP3    H137820   0.477   1.484   0.217
12625TIP3    H237821   0.400   1.476   0.347
12626TIP3   OH237822   3.539   6.394   6.493
12626TIP3    H137823   3.472   6.373   6.427
12626TIP3    H237824   3.605   6.326   6.482
12627TIP3   OH237825   7.171   4.097   3.170
12627TIP3    H137826   7.179   4.132   3.259
12627TIP3    H237827   7.189   4.173   3.113
12628TIP3   OH237828   7.603   5.063   5.205
12628TIP3    H137829   7.553   5.144   5.212
12628TIP3    H237830   7.558   5.012   5.138
12629TIP3   OH237831   7.197   2.162   5.647
12629TIP3    H137832   7.212   2.141   5.555
12629TIP3    H237833   7.270   2.121   5.693
12630TIP3   OH237834   0.872   0.610   6.576
12630TIP3    H137835   0.817   0.680   6.539
12630TIP3    H237836   0.949   0.608   6.520
12631TIP3   OH237837   3.202   7.278   6.283
12631TIP3    H137838   3.261   7.352   6.265
12631TIP3    H237839   3.211   7.222   6.206
12632TIP3   OH237840   1.181   5.770   4.106
12632TIP3    H137841   1.107   5.713   4.125
12632TIP3    H237842   1.248   5.745   4.170
12633TIP3   OH237843   0.074   7.230   0.049
12633TIP3    H137844   0.050   7.298  -0.014
12633TIP3    H237845   0.163   7.252   0.075
12634TIP3   OH237846   5.098   1.844   1.862
12634TIP3    H137847   5.089   1.877   1.773
12634TIP3    H237848   5.171   1.782   1.859
12635TIP3   OH237849   2.654   1.519   1.383
12635TIP3    H137850   2.726   1.532   1.321
12635TIP3    H237851   2.684   1.563   1.463
12636TIP3   OH237852   0.823   4.291   2.830
12636TIP3    H137853   0.900   4.331   2.790
12636TIP3    H237854   0.791   4.356   2.892
12637TIP3   OH237855   2.990   4.136   6.249
12637TIP3    H137856   3.071   4.147   6.199
12637TIP3    H237857   3.014   4.077   6.320
12638TIP3   OH237858   8.251   4.204   4.153
12638TIP3    H137859   8.326   4.146   4.166
12638TIP3    H237860   8.257   4.267   4.226
12639TIP3   OH237861   5.109   3.598   0.176
12639TIP3    H137862   5.136   3.551   0.255
12639TIP3    H237863   5.027   3.641   0.200
12640TIP3   OH237864   4.547   2.650   5.991
12640TIP3    H137865   4.488   2.599   6.047
12640TIP3    H237866   4.552   2.601   5.910
12641TIP3   OH237867   6.950   0.947   0.368
12641TIP3    H137868   6.865   0.903   0.375
12641TIP3    H237869   6.934   1.035   0.401
12642TIP3   OH237870   6.315   3.876   6.729
12642TIP3    H137871   6.258   3.814   6.774
12642TIP3    H237872   6.285   3.962   6.759
12643TIP3   OH237873   3.836   0.697   5.691
12643TIP3    H137874   3.798   0.777   5.728
12643TIP3    H237875   3.762   0.651   5.651
12644TIP3   OH237876   0.793   1.378   2.508
12644TIP3    H137877   0.780   1.425   2.426
12644TIP3    H237878   0.773   1.287   2.487
12645TIP3   OH237879   7.115   0.967   2.227
12645TIP3    H137880   7.135   0.873   2.231
12645TIP3    H237881   7.114   0.994   2.319
12646TIP3   OH237882   4.559   2.165   0.067
12646TIP3    H137883   4.533   2.094   0.008
12646TIP3    H237884   4.642   2.197   0.030
12647TIP3   OH237885   1.773   3.637   4.667
12647TIP3    H137886   1.858   3.610   4.702
12647TIP3    H237887   1.711   3.616   4.736
12648TIP3   OH237888   1.573   4.147   3.130
12648TIP3    H137889   1.626   4.085   3.080
12648TIP3    H237890   1.617   4.232   3.117
12649TIP3   OH237891   6.331   4.133   4.390
12649TIP3    H137892   6.282   4.138   4.308
12649TIP3    H237893   6.409   4.081   4.368
12650TIP3   OH237894   7.668   2.103   2.632
12650TIP3    H137895   7.623   2.088   2.549
12650TIP3    H237896   7.653   2.022   2.682
12651TIP3   OH237897   1.604   1.628   4.966
12651TIP3    H137898   1.535   1.651   5.029
12651TIP3    H237899   1.622   1.710   4.920
12652TIP3   OH237900   3.180   2.526   6.740
12652TIP3    H137901   3.105   2.573   6.702
12652TIP3    H237902   3.257   2.569   6.704
12653TIP3   OH237903   1.499   0.197   6.038
12653TIP3    H137904   1.513   0.248   5.959
12653TIP3    H237905   1.514   0.106   6.011
12654TIP3   OH237906   4.230   7.817   2.242
12654TIP3    H137907   4.283   7.739   2.224
12654TIP3    H237908   4.190   7.799   2.327
12655TIP3   OH237909   3.626   3.755   1.933
12655TIP3    H137910   3.655   3.757   2.024
12655TIP3    H237911   3.533   3.733   1.938
12656TIP3   OH237912   1.089   0.138   3.079
12656TIP3    H137913   1.074   0.202   3.009
12656TIP3    H237914   1.078   0.053   3.036
12657TIP3   OH237915   4.334   4.557   6.238
12657TIP3    H137916   4.423   4.594   6.231
12657TIP3    H237917   4.347   4.463   6.239
12658TIP3   OH237918   3.381   6.791   0.882
12658TIP3    H137919   3.342   6.754   0.803
12658TIP3    H237920   3.400   6.882   0.859
12659TIP3   OH237921   6.079   6.089   3.492
12659TIP3    H137922   6.125   6.141   3.557
12659TIP3    H237923   5.986   6.099   3.514
12660TIP3   OH237924   6.472   5.494   6.623
12660TIP3    H137925   6.395   5.504   6.680
12660TIP3    H237926   6.499   5.403   6.636
12661TIP3   OH237927   1.622   4.201   5.183
12661TIP3    H137928   1.645   4.191   5.091
12661TIP3    H237929   1.706   4.204   5.230
12662TIP3   OH237930   5.088   1.556   5.399
12662TIP3    H137931   5.124   1.587   5.482
12662TIP3    H237932   5.000   1.594   5.396
12663TIP3   OH237933   3.953   7.607   4.035
12663TIP3    H137934   4.011   7.540   4.072
12663TIP3    H237935   3.919   7.654   4.112
12664TIP3   OH237936   1.768   2.796   3.801
12664TIP3    H137937   1.737   2.864   3.741
12664TIP3    H237938   1.753   2.714   3.755
12665TIP3   OH237939   1.819   2.683   5.315
12665TIP3    H137940   1.795   2.626   5.388
12665TIP3    H237941   1.875   2.751   5.355
12666TIP3   OH237942   5.833   3.680   1.446
12666TIP3    H137943   5.792   3.609   1.395
12666TIP3    H237944   5.802   3.667   1.535
12667TIP3   OH237945   5.322   0.055   3.488
12667TIP3    H137946   5.387  -0.015   3.481
12667TIP3    H237947   5.275   0.036   3.569
12668TIP3   OH237948   3.663   7.639   6.104
12668TIP3    H137949   3.736   7.599   6.152
12668TIP3    H237950   3.706   7.702   6.045
12669TIP3   OH237951   5.560   0.674   5.560
12669TIP3    H137952   5.548   0.689   5.466
12669TIP3    H237953   5.508   0.595   5.577
12670TIP3   OH237954   4.190   7.380   2.006
12670TIP3    H137955   4.228   7.293   2.021
12670TIP3    H237956   4.220   7.405   1.919
12671TIP3   OH237957   2.650   1.988   3.724
12671TIP3    H137958   2.678   1.905   3.686
12671TIP3    H237959   2.607   1.964   3.806
12672TIP3   OH237960   6.723   0.068   6.604
12672TIP3    H137961   6.725   0.142   6.543
12672TIP3    H237962   6.814   0.038   6.608
12673TIP3   OH237963   6.720   6.572   1.680
12673TIP3    H137964   6.747   6.535   1.596
12673TIP3    H237965   6.790   6.634   1.702
12674TIP3   OH237966   5.854   6.778   1.729
12674TIP3    H137967   5.903   6.755   1.650
12674TIP3    H237968   5.920   6.776   1.799
12675TIP3   OH237969   6.670   6.911   5.426
12675TIP3    H137970   6.690   6.831   5.377
12675TIP3    H237971   6.734   6.913   5.496
12676TIP3   OH237972   6.078   4.568   0.967
12676TIP3    H137973   6.021   4.598   1.038
12676TIP3    H237974   6.083   4.473   0.979
12677TIP3   OH237975   0.388   4.907   5.405
12677TIP3    H137976   0.358   4.817   5.415
12677TIP3    H237977   0.313   4.961   5.431
12678TIP3   OH237978   0.442   2.888   5.458
12678TIP3    H137979   0.436   2.974   5.499
12678TIP3    H237980   0.505   2.899   5.387
12679TIP3   OH237981   2.484   4.807   4.089
12679TIP3    H137982   2.405   4.757   4.110
12679TIP3    H237983   2.469   4.893   4.128
12680TIP3   OH237984   2.634   6.111   2.129
12680TIP3    H137985   2.602   6.176   2.191
12680TIP3    H237986   2.699   6.061   2.179
12681TIP3   OH237987   1.509   1.670   3.474
12681TIP3    H137988   1.554   1.752   3.495
12681TIP3    H237989   1.476   1.683   3.385
12682TIP3   OH237990   2.509   7.368   5.346
12682TIP3    H137991   2.602   7.368   5.323
12682TIP3    H237992   2.466   7.325   5.271
12683TIP3   OH237993   3.003   1.282   1.220
12683TIP3    H137994   2.951   1.210   1.256
12683TIP3    H237995   3.033   1.249   1.135
12684TIP3   OH237996   5.635   6.632   4.028
12684TIP3    H137997   5.614   6.711   3.978
12684TIP3    H237998   5.664   6.665   4.113
12685TIP3   OH237999   5.768   6.498   4.313
12685TIP3    H138000   5.686   6.483   4.360
12685TIP3    H238001   5.807   6.411   4.305
12686TIP3   OH238002   2.407   0.791   5.632
12686TIP3    H138003   2.344   0.765   5.565
12686TIP3    H238004   2.487   0.810   5.583
12687TIP3   OH238005   6.305   2.534   0.081
12687TIP3    H138006   6.289   2.470   0.012
12687TIP3    H238007   6.246   2.509   0.151
12688TIP3   OH238008   8.109   3.753   2.980
12688TIP3    H138009   8.180   3.796   3.027
12688TIP3    H238010   8.043   3.820   2.969
12689TIP3   OH238011   3.072   0.648   3.803
12689TIP3    H138012   3.023   0.684   3.877
12689TIP3    H238013   3.120   0.575   3.839
12690TIP3   OH238014   0.349   1.238   1.267
12690TIP3    H138015   0.277   1.186   1.232
12690TIP3    H238016   0.422   1.177   1.275
12691TIP3   OH238017   0.934   3.407   1.410
12691TIP3    H138018   0.875   3.455   1.468
12691TIP3    H238019   1.015   3.399   1.460
12692TIP3   OH238020   2.478   0.473   1.100
12692TIP3    H138021   2.384   0.494   1.095
12692TIP3    H238022   2.515   0.539   1.158
12693TIP3   OH238023   1.173   5.732   5.753
12693TIP3    H138024   1.109   5.708   5.686
12693TIP3    H238025   1.157   5.670   5.824
12694TIP3   OH238026   3.723   4.733   1.275
12694TIP3    H138027   3.628   4.726   1.262
12694TIP3    H238028   3.732   4.774   1.361
12695TIP3   OH238029   7.045   4.516   4.843
12695TIP3    H138030   7.057   4.605   4.810
12695TIP3    H238031   7.017   4.528   4.934
12696TIP3   OH238032   2.959   5.839   0.488
12696TIP3    H138033   2.980   5.930   0.466
12696TIP3    H238034   2.933   5.842   0.580
12697TIP3   OH238035   0.493   1.729   6.520
12697TIP3    H138036   0.486   1.690   6.607
12697TIP3    H238037   0.550   1.669   6.471
12698TIP3   OH238038   5.482   6.316   2.739
12698TIP3    H138039   5.527   6.249   2.791
12698TIP3    H238040   5.451   6.379   2.804
12699TIP3   OH238041   5.263   2.773   2.470
12699TIP3    H138042   5.281   2.819   2.388
12699TIP3    H238043   5.168   2.781   2.482
12700TIP3   OH238044   7.465   6.913   6.722
12700TIP3    H138045   7.528   6.948   6.660
12700TIP3    H238046   7.398   6.872   6.667
12701TIP3   OH238047   7.889   7.158   2.113
12701TIP3    H138048   7.856   7.191   2.197
12701TIP3    H238049   7.894   7.063   2.124
12702TIP3   OH238050   2.209   5.064   3.812
12702TIP3    H138051   2.236   4.972   3.819
12702TIP3    H238052   2.229   5.101   3.898
12703TIP3   OH238053   3.977   6.013   1.501
12703TIP3    H138054   4.038   6.008   1.575
12703TIP3    H238055   4.029   5.988   1.425
12704TIP3   OH238056   4.950   1.226   3.531
12704TIP3    H138057   4.932   1.319   3.543
12704TIP3    H238058   5.016   1.224   3.461
12705TIP3   OH238059   0.434   2.388   3.949
12705TIP3    H138060   0.342   2.394   3.923
12705TIP3    H238061   0.436   2.321   4.018
12706TIP3   OH238062   5.478   0.972   1.051
12706TIP3    H138063   5.420   0.998   0.979
12706TIP3    H238064   5.497   1.054   1.097
12707TIP3   OH238065   8.040   0.193   5.242
12707TIP3    H138066   8.097   0.147   5.303
12707TIP3    H238067   7.984   0.125   5.205
12708TIP3   OH238068   7.092   6.558   0.156
12708TIP3    H138069   7.139   6.570   0.074
12708TIP3    H238070   7.152   6.508   0.211
12709TIP3   OH238071   2.521   5.943   5.873
12709TIP3    H138072   2.513   5.863   5.821
12709TIP3    H238073   2.457   6.003   5.834
12710TIP3   OH238074   7.581   7.663   4.666
12710TIP3    H138075   7.590   7.738   4.724
12710TIP3    H238076   7.487   7.648   4.659
12711TIP3   OH238077   8.116   5.525   5.789
12711TIP3    H138078   8.039   5.514   5.845
12711TIP3    H238079   8.112   5.451   5.729
12712TIP3   OH238080   2.865   2.051   6.415
12712TIP3    H138081   2.953   2.014   6.406
12712TIP3    H238082   2.870   2.109   6.491
12713TIP3   OH238083   0.112   5.413   2.518
12713TIP3    H138084   0.120   5.475   2.445
12713TIP3    H238085   0.018   5.404   2.531
12714TIP3   OH238086   7.815   5.542   0.464
12714TIP3    H138087   7.889   5.598   0.442
12714TIP3    H238088   7.791   5.566   0.553
12715TIP3   OH238089   6.687   3.012   0.450
12715TIP3    H138090   6.759   3.002   0.513
12715TIP3    H238091   6.616   3.050   0.502
12716TIP3   OH238092   2.084   3.009   0.506
12716TIP3    H138093   2.126   3.009   0.420
12716TIP3    H238094   2.007   2.954   0.495
12717TIP3   OH238095   5.068   4.360   6.701
12717TIP3    H138096   5.158   4.346   6.672
12717TIP3    H238097   5.069   4.446   6.743
12718TIP3   OH238098   3.360   2.860   4.676
12718TIP3    H138099   3.379   2.780   4.628
12718TIP3    H238100   3.265   2.858   4.691
12719TIP3   OH238101   1.832   6.287   4.965
12719TIP3    H138102   1.832   6.192   4.948
12719TIP3    H238103   1.775   6.323   4.897
12720TIP3   OH238104   7.478   1.660   2.567
12720TIP3    H138105   7.494   1.755   2.565
12720TIP3    H238106   7.507   1.633   2.654
12721TIP3   OH238107   4.245   4.308   6.319
12721TIP3    H138108   4.218   4.217   6.307
12721TIP3    H238109   4.166   4.352   6.352
12722TIP3   OH238110   6.249   0.228   3.130
12722TIP3    H138111   6.155   0.209   3.120
12722TIP3    H238112   6.271   0.195   3.217
12723TIP3   OH238113   4.255   4.607   5.609
12723TIP3    H138114   4.327   4.624   5.668
12723TIP3    H238115   4.293   4.551   5.540
12724TIP3   OH238116   7.898   5.450   3.056
12724TIP3    H138117   7.837   5.489   3.118
12724TIP3    H238118   7.859   5.466   2.970
12725TIP3   OH238119   5.636   3.235   5.694
12725TIP3    H138120   5.686   3.170   5.645
12725TIP3    H238121   5.572   3.183   5.743
12726TIP3   OH238122   2.612   5.835   5.030
12726TIP3    H138123   2.644   5.912   5.078
12726TIP3    H238124   2.631   5.853   4.939
12727TIP3   OH238125   6.878   3.592   4.667
12727TIP3    H138126   6.800   3.642   4.691
12727TIP3    H238127   6.847   3.526   4.606
12728TIP3   OH238128   6.176   6.498   1.366
12728TIP3    H138129   6.086   6.487   1.335
12728TIP3    H238130   6.199   6.588   1.340
12729TIP3   OH238131   5.216   5.394   3.895
12729TIP3    H138132   5.147   5.381   3.830
12729TIP3    H238133   5.191   5.335   3.967
12730TIP3   OH238134   5.828   4.123   3.287
12730TIP3    H138135   5.912   4.115   3.332
12730TIP3    H238136   5.777   4.182   3.342
12731TIP3   OH238137   7.431   7.447   6.263
12731TIP3    H138138   7.399   7.393   6.190
12731TIP3    H238139   7.423   7.390   6.340
12732TIP3   OH238140   2.395   4.641   2.062
12732TIP3    H138141   2.308   4.650   2.025
12732TIP3    H238142   2.387   4.568   2.123
12733TIP3   OH238143   4.900   6.844   4.588
12733TIP3    H138144   4.926   6.764   4.541
12733TIP3    H238145   4.919   6.823   4.680
12734TIP3   OH238146   1.264   6.813   6.410
12734TIP3    H138147   1.210   6.848   6.481
12734TIP3    H238148   1.323   6.885   6.388
12735TIP3   OH238149   6.942   1.400   1.665
12735TIP3    H138150   6.932   1.422   1.572
12735TIP3    H238151   7.019   1.449   1.693
12736TIP3   OH238152   2.630   3.619   2.096
12736TIP3    H138153   2.577   3.540   2.093
12736TIP3    H238154   2.664   3.628   2.007
12737TIP3   OH238155   8.133   1.792   6.285
12737TIP3    H138156   8.058   1.793   6.225
12737TIP3    H238157   8.209   1.781   6.228
12738TIP3   OH238158   6.162   6.521   6.266
12738TIP3    H138159   6.178   6.616   6.266
12738TIP3    H238160   6.174   6.496   6.174
12739TIP3   OH238161   6.004   1.899   5.249
12739TIP3    H138162   5.939   1.853   5.196
12739TIP3    H238163   6.081   1.842   5.249
12740TIP3   OH238164   7.097   2.192   6.108
12740TIP3    H138165   7.037   2.174   6.036
12740TIP3    H238166   7.139   2.108   6.126
12741TIP3   OH238167   3.288   6.941   4.682
12741TIP3    H138168   3.193   6.931   4.693
12741TIP3    H238169   3.300   6.962   4.590
12742TIP3   OH238170   5.405   4.149   2.005
12742TIP3    H138171   5.474   4.092   2.037
12742TIP3    H238172   5.331   4.132   2.062
12743TIP3   OH238173   6.388   3.381   3.747
12743TIP3    H138174   6.376   3.291   3.780
12743TIP3    H238175   6.451   3.420   3.807
12744TIP3   OH238176   1.709   5.698   0.386
12744TIP3    H138177   1.618   5.671   0.397
12744TIP3    H238178   1.724   5.695   0.292
12745TIP3   OH238179   3.741   0.856   3.970
12745TIP3    H138180   3.763   0.779   4.022
12745TIP3    H238181   3.717   0.922   4.035
12746TIP3   OH238182   2.575   0.962   6.132
12746TIP3    H138183   2.514   1.032   6.153
12746TIP3    H238184   2.619   0.943   6.215
12747TIP3   OH238185   2.065   4.207   4.160
12747TIP3    H138186   2.133   4.149   4.194
12747TIP3    H238187   1.985   4.179   4.206
12748TIP3   OH238188   6.644   5.050   6.730
12748TIP3    H138189   6.577   5.118   6.726
12748TIP3    H238190   6.657   5.024   6.638
12749TIP3   OH238191   3.097   5.180   2.138
12749TIP3    H138192   3.117   5.171   2.045
12749TIP3    H238193   3.164   5.129   2.183
12750TIP3   OH238194   7.054   2.411   3.393
12750TIP3    H138195   6.973   2.462   3.392
12750TIP3    H238196   7.114   2.463   3.447
12751TIP3   OH238197   2.403   7.086   6.392
12751TIP3    H138198   2.396   7.141   6.470
12751TIP3    H238199   2.494   7.096   6.365
12752TIP3   OH238200   0.563   6.385   4.402
12752TIP3    H138201   0.613   6.435   4.466
12752TIP3    H238202   0.522   6.452   4.346
12753TIP3   OH238203   6.083   2.995   3.831
12753TIP3    H138204   6.061   3.011   3.923
12753TIP3    H238205   6.012   2.939   3.799
12754TIP3   OH238206   7.086   3.289   1.706
12754TIP3    H138207   7.035   3.252   1.779
12754TIP3    H238208   7.064   3.382   1.706
12755TIP3   OH238209   2.567   2.237   0.301
12755TIP3    H138210   2.486   2.248   0.350
12755TIP3    H238211   2.591   2.146   0.314
12756TIP3   OH238212   7.487   1.935   2.481
12756TIP3    H138213   7.437   2.012   2.453
12756TIP3    H238214   7.477   1.873   2.408
12757TIP3   OH238215   7.540   5.999   1.679
12757TIP3    H138216   7.581   6.025   1.761
12757TIP3    H238217   7.473   5.935   1.705
12758TIP3   OH238218   0.862   3.183   3.513
12758TIP3    H138219   0.809   3.105   3.522
12758TIP3    H238220   0.835   3.222   3.430
12759TIP3   OH238221   1.824   0.401   4.280
12759TIP3    H138222   1.805   0.364   4.366
12759TIP3    H238223   1.839   0.494   4.296
12760TIP3   OH238224   4.242   3.884   3.374
12760TIP3    H138225   4.321   3.830   3.380
12760TIP3    H238226   4.275   3.974   3.374
12761TIP3   OH238227   1.843   6.995   3.908
12761TIP3    H138228   1.818   7.083   3.937
12761TIP3    H238229   1.817   6.938   3.980
12762TIP3   OH238230   6.383   6.487   2.928
12762TIP3    H138231   6.426   6.435   2.996
12762TIP3    H238232   6.299   6.512   2.968
12763TIP3   OH238233   7.477   0.996   6.394
12763TIP3    H138234   7.388   1.031   6.398
12763TIP3    H238235   7.497   0.972   6.485
12764TIP3   OH238236   4.433   0.671   0.611
12764TIP3    H138237   4.364   0.605   0.621
12764TIP3    H238238   4.402   0.728   0.541
12765TIP3   OH238239   2.168   7.210   5.275
12765TIP3    H138240   2.215   7.155   5.212
12765TIP3    H238241   2.075   7.196   5.254
12766TIP3   OH238242   7.238   6.764   0.633
12766TIP3    H138243   7.300   6.751   0.561
12766TIP3    H238244   7.284   6.734   0.711
12767TIP3   OH238245   3.679   0.410   5.284
12767TIP3    H138246   3.587   0.431   5.266
12767TIP3    H238247   3.714   0.383   5.199
12768TIP3   OH238248   1.076   5.917   3.429
12768TIP3    H138249   1.004   5.918   3.365
12768TIP3    H238250   1.147   5.872   3.385
12769TIP3   OH238251   8.045   4.646   4.584
12769TIP3    H138252   7.983   4.596   4.530
12769TIP3    H238253   8.105   4.579   4.618
12770TIP3   OH238254   0.651   3.593   3.604
12770TIP3    H138255   0.710   3.553   3.668
12770TIP3    H238256   0.681   3.684   3.599
12771TIP3   OH238257   3.599   2.211   4.013
12771TIP3    H138258   3.552   2.266   3.950
12771TIP3    H238259   3.577   2.121   3.987
12772TIP3   OH238260   8.057   0.667   2.907
12772TIP3    H138261   7.966   0.672   2.938
12772TIP3    H238262   8.058   0.590   2.851
12773TIP3   OH238263   7.673   3.154   2.761
12773TIP3    H138264   7.710   3.114   2.840
12773TIP3    H238265   7.581   3.166   2.781
12774TIP3   OH238266   2.677   6.936   5.518
12774TIP3    H138267   2.765   6.904   5.535
12774TIP3    H238268   2.620   6.877   5.567
12775TIP3   OH238269   4.411   3.021   3.760
12775TIP3    H138270   4.374   2.968   3.688
12775TIP3    H238271   4.495   3.050   3.727
12776TIP3   OH238272   5.761   4.161   2.131
12776TIP3    H138273   5.800   4.242   2.164
12776TIP3    H238274   5.679   4.152   2.179
12777TIP3   OH238275   6.947   6.638   5.775
12777TIP3    H138276   6.906   6.721   5.750
12777TIP3    H238277   6.896   6.608   5.850
12778TIP3   OH238278   1.807   2.652   2.617
12778TIP3    H138279   1.791   2.583   2.552
12778TIP3    H238280   1.789   2.610   2.701
12779TIP3   OH238281   0.761   4.837   6.601
12779TIP3    H138282   0.776   4.931   6.589
12779TIP3    H238283   0.787   4.821   6.692
12780TIP3   OH238284   2.774   0.225   0.467
12780TIP3    H138285   2.693   0.255   0.508
12780TIP3    H238286   2.841   0.286   0.499
12781TIP3   OH238287   6.577   2.284   0.007
12781TIP3    H138288   6.554   2.283   0.100
12781TIP3    H238289   6.606   2.373  -0.009
12782TIP3   OH238290   0.418   4.325   5.295
12782TIP3    H138291   0.498   4.320   5.242
12782TIP3    H238292   0.450   4.328   5.385
12783TIP3   OH238293   1.356   6.124   4.199
12783TIP3    H138294   1.272   6.093   4.232
12783TIP3    H238295   1.333   6.179   4.124
12784TIP3   OH238296   7.417   1.110   2.660
12784TIP3    H138297   7.400   1.021   2.690
12784TIP3    H238298   7.513   1.117   2.659
12785TIP3   OH238299   4.877   3.953   3.271
12785TIP3    H138300   4.843   4.000   3.347
12785TIP3    H238301   4.972   3.952   3.283
12786TIP3   OH238302   1.947   3.928   2.519
12786TIP3    H138303   1.939   3.886   2.433
12786TIP3    H238304   1.958   3.855   2.580
12787TIP3   OH238305   6.402   3.664   1.972
12787TIP3    H138306   6.311   3.637   1.960
12787TIP3    H238307   6.399   3.760   1.968
12788TIP3   OH238308   7.812   4.840   6.447
12788TIP3    H138309   7.867   4.909   6.484
12788TIP3    H238310   7.745   4.886   6.397
12789TIP3   OH238311   5.348   7.550   6.405
12789TIP3    H138312   5.372   7.561   6.313
12789TIP3    H238313   5.300   7.468   6.408
12790TIP3   OH238314   1.247   0.612   5.575
12790TIP3    H138315   1.226   0.525   5.609
12790TIP3    H238316   1.310   0.595   5.504
12791TIP3   OH238317   3.824   1.708   3.099
12791TIP3    H138318   3.916   1.719   3.123
12791TIP3    H238319   3.783   1.669   3.177
12792TIP3   OH238320   1.349   6.293   3.700
12792TIP3    H138321   1.419   6.352   3.671
12792TIP3    H238322   1.270   6.346   3.696
12793TIP3   OH238323   6.166   7.705   2.536
12793TIP3    H138324   6.234   7.659   2.585
12793TIP3    H238325   6.207   7.727   2.453
12794TIP3   OH238326   7.162   3.421   6.092
12794TIP3    H138327   7.210   3.338   6.094
12794TIP3    H238328   7.075   3.398   6.060
12795TIP3   OH238329   2.723   6.778   6.086
12795TIP3    H138330   2.676   6.805   6.007
12795TIP3    H238331   2.655   6.760   6.150
12796TIP3   OH238332   1.791   3.941   6.534
12796TIP3    H138333   1.715   3.892   6.504
12796TIP3    H238334   1.852   3.939   6.460
12797TIP3   OH238335   1.439   1.237   2.363
12797TIP3    H138336   1.511   1.176   2.376
12797TIP3    H238337   1.477   1.323   2.381
12798TIP3   OH238338   7.751   5.419   4.299
12798TIP3    H138339   7.667   5.431   4.255
12798TIP3    H238340   7.768   5.325   4.294
12799TIP3   OH238341   7.186   5.164   4.138
12799TIP3    H138342   7.119   5.223   4.173
12799TIP3    H238343   7.252   5.222   4.099
12800TIP3   OH238344   2.261   4.669   4.115
12800TIP3    H138345   2.210   4.590   4.096
12800TIP3    H238346   2.197   4.729   4.155
12801TIP3   OH238347   6.834   4.726   2.573
12801TIP3    H138348   6.872   4.638   2.582
12801TIP3    H238349   6.824   4.738   2.479
12802TIP3   OH238350   3.652   6.952   2.230
12802TIP3    H138351   3.602   6.987   2.304
12802TIP3    H238352   3.739   6.990   2.240
12803TIP3   OH238353   4.230   1.472   6.137
12803TIP3    H138354   4.182   1.405   6.186
12803TIP3    H238355   4.309   1.488   6.189
12804TIP3   OH238356   6.873   4.729   5.256
12804TIP3    H138357   6.799   4.764   5.207
12804TIP3    H238358   6.906   4.657   5.203
12805TIP3   OH238359   5.909   6.029   4.134
12805TIP3    H138360   5.874   5.960   4.078
12805TIP3    H238361   5.979   6.069   4.083
12806TIP3   OH238362   4.238   5.599   3.860
12806TIP3    H138363   4.228   5.554   3.944
12806TIP3    H238364   4.275   5.533   3.802
12807TIP3   OH238365   8.117   3.468   1.761
12807TIP3    H138366   8.200   3.500   1.725
12807TIP3    H238367   8.103   3.520   1.839
12808TIP3   OH238368   2.017   3.605   1.922
12808TIP3    H138369   2.070   3.676   1.958
12808TIP3    H238370   1.935   3.646   1.896
12809TIP3   OH238371   3.699   6.595   5.672
12809TIP3    H138372   3.731   6.516   5.715
12809TIP3    H238373   3.758   6.608   5.598
12810TIP3   OH238374   7.379   1.143   1.051
12810TIP3    H138375   7.300   1.090   1.056
12810TIP3    H238376   7.403   1.143   0.959
12811TIP3   OH238377   2.407   0.724   6.079
12811TIP3    H138378   2.468   0.797   6.069
12811TIP3    H238379   2.464   0.649   6.097
12812TIP3   OH238380   0.635   4.405   3.961
12812TIP3    H138381   0.565   4.464   3.990
12812TIP3    H238382   0.655   4.353   4.039
12813TIP3   OH238383   5.059   1.336   1.363
12813TIP3    H138384   5.150   1.358   1.346
12813TIP3    H238385   5.046   1.356   1.456
12814TIP3   OH238386   1.075   7.475   4.585
12814TIP3    H138387   1.084   7.522   4.503
12814TIP3    H238388   1.097   7.539   4.653
12815TIP3   OH238389   6.169   0.486   5.578
12815TIP3    H138390   6.084   0.460   5.542
12815TIP3    H238391   6.190   0.568   5.534
12816TIP3   OH238392   5.557   4.915   5.284
12816TIP3    H138393   5.468   4.894   5.256
12816TIP3    H238394   5.553   4.914   5.379
12817TIP3   OH238395   4.125   6.837   5.058
12817TIP3    H138396   4.136   6.912   5.116
12817TIP3    H238397   4.166   6.863   4.976
12818TIP3   OH238398   7.806   0.107   3.259
12818TIP3    H138399   7.875   0.070   3.203
12818TIP3    H238400   7.837   0.093   3.348
12819TIP3   OH238401   1.064   4.770   2.662
12819TIP3    H138402   0.981   4.723   2.654
12819TIP3    H238403   1.078   4.810   2.577
12820TIP3   OH238404   5.055   5.892   5.959
12820TIP3    H138405   5.006   5.969   5.929
12820TIP3    H238406   4.990   5.839   6.006
12821TIP3   OH238407   3.473   4.962   3.719
12821TIP3    H138408   3.411   5.032   3.738
12821TIP3    H238409   3.490   4.921   3.804
12822TIP3   OH238410   2.601   4.464   5.610
12822TIP3    H138411   2.509   4.441   5.624
12822TIP3    H238412   2.603   4.505   5.524
12823TIP3   OH238413   7.583   3.762   4.171
12823TIP3    H138414   7.661   3.784   4.119
12823TIP3    H238415   7.510   3.801   4.123
12824TIP3   OH238416   1.878   5.267   1.187
12824TIP3    H138417   1.893   5.173   1.185
12824TIP3    H238418   1.960   5.305   1.155
12825TIP3   OH238419   2.652   4.797   1.159
12825TIP3    H138420   2.683   4.810   1.069
12825TIP3    H238421   2.724   4.827   1.214
12826TIP3   OH238422   7.673   2.834   6.618
12826TIP3    H138423   7.689   2.829   6.523
12826TIP3    H238424   7.687   2.745   6.649
12827TIP3   OH238425   0.267   7.475   3.107
12827TIP3    H138426   0.250   7.410   3.176
12827TIP3    H238427   0.362   7.485   3.108
12828TIP3   OH238428   6.146   6.696   2.282
12828TIP3    H138429   6.066   6.662   2.242
12828TIP3    H238430   6.120   6.721   2.371
12829TIP3   OH238431   5.933   3.646   3.628
12829TIP3    H138432   6.020   3.628   3.663
12829TIP3    H238433   5.899   3.561   3.603
12830TIP3   OH238434   6.197   4.330   2.116
12830TIP3    H138435   6.214   4.327   2.022
12830TIP3    H238436   6.275   4.372   2.153
12831TIP3   OH238437   6.350   7.541   2.660
12831TIP3    H138438   6.356   7.494   2.743
12831TIP3    H238439   6.434   7.524   2.616
12832TIP3   OH238440   5.334   1.282   2.158
12832TIP3    H138441   5.418   1.244   2.182
12832TIP3    H238442   5.327   1.362   2.211
12833TIP3   OH238443   7.511   3.703   1.211
12833TIP3    H138444   7.541   3.629   1.264
12833TIP3    H238445   7.425   3.677   1.179
12834TIP3   OH238446   6.423   1.931   5.979
12834TIP3    H138447   6.330   1.913   5.991
12834TIP3    H238448   6.459   1.931   6.068
12835TIP3   OH238449   2.823   1.206   3.380
12835TIP3    H138450   2.902   1.168   3.418
12835TIP3    H238451   2.855   1.267   3.313
12836TIP3   OH238452   3.036   4.507   2.177
12836TIP3    H138453   2.991   4.446   2.236
12836TIP3    H238454   3.091   4.560   2.234
12837TIP3   OH238455   2.375   1.104   2.915
12837TIP3    H138456   2.419   1.130   2.834
12837TIP3    H238457   2.389   1.177   2.975
12838TIP3   OH238458   5.607   5.165   0.726
12838TIP3    H138459   5.619   5.160   0.632
12838TIP3    H238460   5.660   5.092   0.761
12839TIP3   OH238461   5.364   4.126   5.654
12839TIP3    H138462   5.283   4.176   5.646
12839TIP3    H238463   5.336   4.035   5.659
12840TIP3   OH238464   0.570   7.771   5.994
12840TIP3    H138465   0.514   7.712   5.943
12840TIP3    H238466   0.650   7.779   5.941
12841TIP3   OH238467   6.160   1.565   2.958
12841TIP3    H138468   6.109   1.645   2.944
12841TIP3    H238469   6.245   1.583   2.916
12842TIP3   OH238470   1.277   1.923   2.704
12842TIP3    H138471   1.285   1.828   2.712
12842TIP3    H238472   1.366   1.956   2.716
12843TIP3   OH238473   2.782   4.432   2.004
12843TIP3    H138474   2.719   4.490   1.962
12843TIP3    H238475   2.852   4.490   2.034
12844TIP3   OH238476   6.442   6.409   1.016
12844TIP3    H138477   6.481   6.435   0.933
12844TIP3    H238478   6.478   6.472   1.080
12845TIP3   OH238479   3.976   3.751   6.628
12845TIP3    H138480   4.027   3.785   6.555
12845TIP3    H238481   3.958   3.660   6.605
12846TIP3   OH238482   0.240   2.406   4.920
12846TIP3    H138483   0.240   2.437   5.011
12846TIP3    H238484   0.256   2.312   4.927
12847TIP3   OH238485   7.853   2.372   0.688
12847TIP3    H138486   7.931   2.380   0.634
12847TIP3    H238487   7.880   2.316   0.761
12848TIP3   OH238488   4.159   2.077   3.918
12848TIP3    H138489   4.154   2.059   3.824
12848TIP3    H238490   4.080   2.127   3.937
12849TIP3   OH238491   4.562   3.701   4.873
12849TIP3    H138492   4.657   3.713   4.876
12849TIP3    H238493   4.539   3.710   4.781
12850TIP3   OH238494   4.144   6.399   5.576
12850TIP3    H138495   4.232   6.429   5.599
12850TIP3    H238496   4.122   6.447   5.496
12851TIP3   OH238497   3.244   2.456   0.545
12851TIP3    H138498   3.240   2.441   0.639
12851TIP3    H238499   3.303   2.530   0.535
12852TIP3   OH238500   7.054   4.568   6.162
12852TIP3    H138501   7.110   4.560   6.085
12852TIP3    H238502   6.966   4.580   6.128
12853TIP3   OH238503   4.469   0.630   0.088
12853TIP3    H138504   4.497   0.554   0.038
12853TIP3    H238505   4.532   0.698   0.066
12854TIP3   OH238506   4.365   2.474   6.116
12854TIP3    H138507   4.410   2.390   6.110
12854TIP3    H238508   4.295   2.460   6.180
12855TIP3   OH238509   3.924   2.977   5.266
12855TIP3    H138510   3.931   2.882   5.263
12855TIP3    H238511   3.873   2.996   5.345
12856TIP3   OH238512   8.319   0.278   2.012
12856TIP3    H138513   8.244   0.338   2.022
12856TIP3    H238514   8.304   0.236   1.927
12857TIP3   OH238515   7.681   6.571   2.494
12857TIP3    H138516   7.631   6.625   2.432
12857TIP3    H238517   7.630   6.574   2.575
12858TIP3   OH238518   2.798   5.314   6.021
12858TIP3    H138519   2.762   5.231   5.988
12858TIP3    H238520   2.721   5.366   6.043
12859TIP3   OH238521   0.912   0.169   5.400
12859TIP3    H138522   0.923   0.220   5.319
12859TIP3    H238523   0.907   0.235   5.469
12860TIP3   OH238524   5.871   0.852   2.305
12860TIP3    H138525   5.816   0.820   2.233
12860TIP3    H238526   5.871   0.781   2.369
12861TIP3   OH238527   5.891   3.471   5.457
12861TIP3    H138528   5.891   3.468   5.362
12861TIP3    H238529   5.881   3.379   5.484
12862TIP3   OH238530   6.277   7.038   0.223
12862TIP3    H138531   6.275   7.007   0.314
12862TIP3    H238532   6.229   7.121   0.226
12863TIP3   OH238533   1.408   3.458   1.517
12863TIP3    H138534   1.364   3.383   1.475
12863TIP3    H238535   1.418   3.522   1.446
12864TIP3   OH238536   0.282   2.278   5.324
12864TIP3    H138537   0.347   2.218   5.289
12864TIP3    H238538   0.198   2.241   5.296
12865TIP3   OH238539   6.753   0.113   1.869
12865TIP3    H138540   6.796   0.173   1.809
12865TIP3    H238541   6.745   0.031   1.820
12866TIP3   OH238542   5.545   4.593   1.273
12866TIP3    H138543   5.608   4.641   1.220
12866TIP3    H238544   5.524   4.654   1.344
12867TIP3   OH238545   6.584   5.279   4.490
12867TIP3    H138546   6.626   5.197   4.517
12867TIP3    H238547   6.494   5.271   4.522
12868TIP3   OH238548   4.454   2.959   2.434
12868TIP3    H138549   4.386   3.020   2.464
12868TIP3    H238550   4.449   2.886   2.494
12869TIP3   OH238551   2.982   0.159   2.758
12869TIP3    H138552   2.938   0.075   2.747
12869TIP3    H238553   3.048   0.160   2.689
12870TIP3   OH238554   1.123   2.068   4.272
12870TIP3    H138555   1.056   2.005   4.245
12870TIP3    H238556   1.112   2.076   4.367
12871TIP3   OH238557   1.805   1.879   1.988
12871TIP3    H138558   1.837   1.805   1.936
12871TIP3    H238559   1.794   1.950   1.925
12872TIP3   OH238560   4.513   3.586   6.208
12872TIP3    H138561   4.465   3.549   6.135
12872TIP3    H238562   4.569   3.514   6.239
12873TIP3   OH238563   2.459   7.296   0.213
12873TIP3    H138564   2.419   7.381   0.193
12873TIP3    H238565   2.391   7.232   0.194
12874TIP3   OH238566   5.851   5.995   1.044
12874TIP3    H138567   5.865   5.988   1.138
12874TIP3    H238568   5.882   6.082   1.020
12875TIP3   OH238569   5.694   1.402   1.330
12875TIP3    H138570   5.748   1.403   1.409
12875TIP3    H238571   5.756   1.398   1.258
12876TIP3   OH238572   5.167   7.471   6.112
12876TIP3    H138573   5.118   7.553   6.118
12876TIP3    H238574   5.151   7.428   6.197
12877TIP3   OH238575   2.732   4.059   4.461
12877TIP3    H138576   2.759   4.065   4.370
12877TIP3    H238577   2.660   4.123   4.468
12878TIP3   OH238578   7.560   1.253   2.133
12878TIP3    H138579   7.519   1.177   2.091
12878TIP3    H238580   7.586   1.221   2.219
12879TIP3   OH238581   3.587   4.137   6.257
12879TIP3    H138582   3.617   4.204   6.195
12879TIP3    H238583   3.667   4.095   6.288
12880TIP3   OH238584   5.947   4.690   6.689
12880TIP3    H138585   5.989   4.658   6.610
12880TIP3    H238586   5.923   4.781   6.669
12881TIP3   OH238587   3.515   7.434   1.890
12881TIP3    H138588   3.526   7.459   1.982
12881TIP3    H238589   3.587   7.374   1.872
12882TIP3   OH238590   2.161   4.772   2.875
12882TIP3    H138591   2.096   4.758   2.943
12882TIP3    H238592   2.210   4.849   2.905
12883TIP3   OH238593   2.652   4.008   0.197
12883TIP3    H138594   2.647   3.977   0.106
12883TIP3    H238595   2.739   4.049   0.203
12884TIP3   OH238596   5.302   6.125   4.558
12884TIP3    H138597   5.229   6.184   4.538
12884TIP3    H238598   5.263   6.037   4.554
12885TIP3   OH238599   0.196   2.806   0.660
12885TIP3    H138600   0.160   2.891   0.636
12885TIP3    H238601   0.159   2.788   0.747
12886TIP3   OH238602   2.034   4.798   0.014
12886TIP3    H138603   2.070   4.775   0.100
12886TIP3    H238604   2.021   4.714  -0.030
12887TIP3   OH238605   4.839   2.373   0.217
12887TIP3    H138606   4.766   2.393   0.276
12887TIP3    H238607   4.798   2.331   0.141
12888TIP3   OH238608   2.628   0.714   1.838
12888TIP3    H138609   2.721   0.731   1.826
12888TIP3    H238610   2.585   0.763   1.767
12889TIP3   OH238611   5.149   6.451   3.241
12889TIP3    H138612   5.137   6.368   3.288
12889TIP3    H238613   5.171   6.514   3.309
12890TIP3   OH238614   5.471   2.302   5.223
12890TIP3    H138615   5.452   2.395   5.227
12890TIP3    H238616   5.386   2.259   5.235
12891TIP3   OH238617   5.150   1.831   4.776
12891TIP3    H138618   5.237   1.825   4.814
12891TIP3    H238619   5.102   1.890   4.834
12892TIP3   OH238620   7.122   1.608   6.408
12892TIP3    H138621   7.036   1.567   6.398
12892TIP3    H238622   7.148   1.588   6.497
12893TIP3   OH238623   2.553   0.053   0.748
12893TIP3    H138624   2.562   0.136   0.701
12893TIP3    H238625   2.619   0.056   0.816
12894TIP3   OH238626   3.138   0.113   1.660
12894TIP3    H138627   3.054   0.133   1.619
12894TIP3    H238628   3.188   0.067   1.592
12895TIP3   OH238629   1.601   3.904   5.684
12895TIP3    H138630   1.611   3.814   5.654
12895TIP3    H238631   1.552   3.948   5.615
12896TIP3   OH238632   4.180   3.646   4.535
12896TIP3    H138633   4.159   3.724   4.483
12896TIP3    H238634   4.267   3.664   4.571
12897TIP3   OH238635   0.033   0.660   2.297
12897TIP3    H138636  -0.060   0.658   2.276
12897TIP3    H238637   0.045   0.591   2.362
12898TIP3   OH238638   2.911   6.623   2.286
12898TIP3    H138639   2.844   6.602   2.221
12898TIP3    H238640   2.915   6.718   2.287
12899TIP3   OH238641   2.949   7.619   0.765
12899TIP3    H138642   2.943   7.661   0.850
12899TIP3    H238643   3.041   7.595   0.756
12900TIP3   OH238644   2.459   2.261   3.390
12900TIP3    H138645   2.515   2.314   3.447
12900TIP3    H238646   2.485   2.285   3.301
12901TIP3   OH238647   0.875   5.696   2.437
12901TIP3    H138648   0.815   5.691   2.512
12901TIP3    H238649   0.886   5.790   2.421
12902TIP3   OH238650   0.390   2.862   6.569
12902TIP3    H138651   0.298   2.871   6.545
12902TIP3    H238652   0.416   2.950   6.597
12903TIP3   OH238653   3.973   6.779   2.340
12903TIP3    H138654   3.940   6.758   2.428
12903TIP3    H238655   3.950   6.871   2.328
12904TIP3   OH238656   6.024   1.382   5.545
12904TIP3    H138657   5.967   1.336   5.607
12904TIP3    H238658   6.106   1.394   5.593
12905TIP3   OH238659   0.800   6.519   3.594
12905TIP3    H138660   0.847   6.535   3.513
12905TIP3    H238661   0.711   6.548   3.577
12906TIP3   OH238662   7.403   4.228   2.653
12906TIP3    H138663   7.325   4.195   2.609
12906TIP3    H238664   7.373   4.251   2.741
12907TIP3   OH238665   5.200   5.230   4.090
12907TIP3    H138666   5.280   5.179   4.100
12907TIP3    H238667   5.144   5.203   4.163
12908TIP3   OH238668   4.949   2.842   4.781
12908TIP3    H138669   5.044   2.841   4.778
12908TIP3    H238670   4.924   2.752   4.801
12909TIP3   OH238671   1.537   3.880   4.284
12909TIP3    H138672   1.596   3.810   4.311
12909TIP3    H238673   1.497   3.849   4.203
12910TIP3   OH238674   7.404   6.158   5.289
12910TIP3    H138675   7.368   6.102   5.357
12910TIP3    H238676   7.480   6.200   5.330
12911TIP3   OH238677   3.800   0.977   6.160
12911TIP3    H138678   3.740   1.051   6.159
12911TIP3    H238679   3.869   1.003   6.221
12912TIP3   OH238680   3.878   1.987   6.313
12912TIP3    H138681   3.894   2.060   6.254
12912TIP3    H238682   3.829   2.025   6.386
12913TIP3   OH238683   6.675   1.607   0.207
12913TIP3    H138684   6.610   1.632   0.273
12913TIP3    H238685   6.646   1.521   0.177
12914TIP3   OH238686   2.903   2.240   5.021
12914TIP3    H138687   2.991   2.212   5.047
12914TIP3    H238688   2.917   2.301   4.948
12915TIP3   OH238689   0.898   4.174   1.615
12915TIP3    H138690   0.888   4.223   1.534
12915TIP3    H238691   0.848   4.094   1.602
12916TIP3   OH238692   5.477   3.486   6.509
12916TIP3    H138693   5.431   3.567   6.531
12916TIP3    H238694   5.407   3.425   6.486
12917TIP3   OH238695   0.960   0.646   3.790
12917TIP3    H138696   0.883   0.634   3.734
12917TIP3    H238697   1.030   0.670   3.729
12918TIP3   OH238698   3.057   4.195   5.557
12918TIP3    H138699   3.120   4.263   5.581
12918TIP3    H238700   3.100   4.146   5.488
12919TIP3   OH238701   5.106   1.500   0.544
12919TIP3    H138702   5.110   1.543   0.459
12919TIP3    H238703   5.100   1.572   0.607
12920TIP3   OH238704   6.581   7.293   2.367
12920TIP3    H138705   6.569   7.215   2.312
12920TIP3    H238706   6.504   7.347   2.348
12921TIP3   OH238707   1.891   3.292   2.771
12921TIP3    H138708   1.977   3.335   2.775
12921TIP3    H238709   1.882   3.264   2.680
12922TIP3   OH238710   0.926   6.549   6.439
12922TIP3    H138711   1.014   6.517   6.419
12922TIP3    H238712   0.916   6.627   6.383
12923TIP3   OH238713   6.968   4.838   3.280
12923TIP3    H138714   7.020   4.762   3.253
12923TIP3    H238715   7.023   4.913   3.259
12924TIP3   OH238716   5.624   6.146   2.876
12924TIP3    H138717   5.606   6.074   2.937
12924TIP3    H238718   5.687   6.109   2.814
12925TIP3   OH238719   0.935   0.916   1.581
12925TIP3    H138720   0.868   0.917   1.513
12925TIP3    H238721   1.018   0.925   1.534
12926TIP3   OH238722   7.781   3.733   5.781
12926TIP3    H138723   7.810   3.649   5.816
12926TIP3    H238724   7.861   3.773   5.746
12927TIP3   OH238725   1.839   2.134   5.415
12927TIP3    H138726   1.759   2.081   5.411
12927TIP3    H238727   1.811   2.221   5.385
12928TIP3   OH238728   0.613   1.481   6.433
12928TIP3    H138729   0.550   1.504   6.365
12928TIP3    H238730   0.681   1.432   6.388
12929TIP3   OH238731   6.449   1.941   5.433
12929TIP3    H138732   6.525   1.900   5.474
12929TIP3    H238733   6.387   1.953   5.505
12930TIP3   OH238734   5.737   4.806   6.053
12930TIP3    H138735   5.790   4.886   6.054
12930TIP3    H238736   5.795   4.740   6.015
12931TIP3   OH238737   0.873   7.465   1.018
12931TIP3    H138738   0.812   7.508   1.077
12931TIP3    H238739   0.938   7.533   0.998
12932TIP3   OH238740   1.104   6.622   3.155
12932TIP3    H138741   1.172   6.643   3.091
12932TIP3    H238742   1.109   6.693   3.219
12933TIP3   OH238743   3.538   0.429   1.216
12933TIP3    H138744   3.567   0.420   1.125
12933TIP3    H238745   3.617   0.446   1.266
12934TIP3   OH238746   7.530   6.933   0.669
12934TIP3    H138747   7.621   6.923   0.695
12934TIP3    H238748   7.483   6.867   0.719
12935TIP3   OH238749   6.211   0.208   1.830
12935TIP3    H138750   6.234   0.115   1.821
12935TIP3    H238751   6.117   0.211   1.809
12936TIP3   OH238752   0.912   2.461   2.738
12936TIP3    H138753   0.977   2.449   2.669
12936TIP3    H238754   0.941   2.403   2.809
12937TIP3   OH238755   6.042   7.646   5.811
12937TIP3    H138756   6.046   7.550   5.809
12937TIP3    H238757   6.065   7.669   5.901
12938TIP3   OH238758   7.560   0.877   2.361
12938TIP3    H138759   7.522   0.870   2.449
12938TIP3    H238760   7.561   0.970   2.342
12939TIP3   OH238761   6.568   4.668   5.718
12939TIP3    H138762   6.585   4.658   5.625
12939TIP3    H238763   6.606   4.590   5.759
12940TIP3   OH238764   3.945   3.174   2.786
12940TIP3    H138765   4.032   3.133   2.788
12940TIP3    H238766   3.936   3.213   2.873
12941TIP3   OH238767   3.349   4.029   4.816
12941TIP3    H138768   3.309   4.115   4.821
12941TIP3    H238769   3.283   3.974   4.774
12942TIP3   OH238770   7.696   3.909   1.889
12942TIP3    H138771   7.681   3.967   1.963
12942TIP3    H238772   7.756   3.843   1.922
12943TIP3   OH238773   1.462   1.195   0.602
12943TIP3    H138774   1.555   1.209   0.588
12943TIP3    H238775   1.420   1.276   0.574
12944TIP3   OH238776   5.498   2.020   5.575
12944TIP3    H138777   5.429   2.068   5.622
12944TIP3    H238778   5.450   1.961   5.517
12945TIP3   OH238779   4.969   6.145   6.472
12945TIP3    H138780   4.935   6.057   6.486
12945TIP3    H238781   5.064   6.134   6.467
12946TIP3   OH238782   3.872   0.814   4.913
12946TIP3    H138783   3.945   0.764   4.950
12946TIP3    H238784   3.912   0.896   4.885
12947TIP3   OH238785   0.974   5.879   0.305
12947TIP3    H138786   0.939   5.794   0.333
12947TIP3    H238787   0.943   5.889   0.215
12948TIP3   OH238788   7.331   0.312   4.791
12948TIP3    H138789   7.380   0.388   4.823
12948TIP3    H238790   7.398   0.252   4.758
12949TIP3   OH238791   6.227   6.036   3.963
12949TIP3    H138792   6.201   5.950   3.998
12949TIP3    H238793   6.296   6.016   3.900
12950TIP3   OH238794   0.135   1.263   2.684
12950TIP3    H138795   0.115   1.170   2.691
12950TIP3    H238796   0.113   1.299   2.769
12951TIP3   OH238797   3.135   6.250   2.106
12951TIP3    H138798   3.079   6.289   2.173
12951TIP3    H238799   3.088   6.171   2.079
12952TIP3   OH238800   6.818   6.698   0.919
12952TIP3    H138801   6.726   6.717   0.902
12952TIP3    H238802   6.839   6.624   0.862
12953TIP3   OH238803   4.475   3.959   6.311
12953TIP3    H138804   4.524   4.030   6.270
12953TIP3    H238805   4.536   3.885   6.313
12954TIP3   OH238806   4.706   3.545   2.493
12954TIP3    H138807   4.784   3.598   2.511
12954TIP3    H238808   4.652   3.601   2.437
12955TIP3   OH238809   0.548   2.725   0.584
12955TIP3    H138810   0.627   2.680   0.553
12955TIP3    H238811   0.483   2.655   0.592
12956TIP3   OH238812   5.934   2.475   0.318
12956TIP3    H138813   5.963   2.395   0.362
12956TIP3    H238814   5.911   2.447   0.229
12957TIP3   OH238815   3.043   7.418   6.047
12957TIP3    H138816   3.066   7.351   5.983
12957TIP3    H238817   3.087   7.497   6.016
12958TIP3   OH238818   2.918   0.768   2.167
12958TIP3    H138819   2.947   0.677   2.156
12958TIP3    H238820   2.920   0.782   2.261
12959TIP3   OH238821   6.062   7.685   3.899
12959TIP3    H138822   6.078   7.607   3.951
12959TIP3    H238823   6.004   7.656   3.829
12960TIP3   OH238824   3.725   0.330   2.609
12960TIP3    H138825   3.796   0.384   2.644
12960TIP3    H238826   3.645   0.372   2.639
12961TIP3   OH238827   3.914   7.037   2.238
12961TIP3    H138828   3.922   7.024   2.144
12961TIP3    H238829   4.004   7.050   2.268
12962TIP3   OH238830   4.303   3.989   6.724
12962TIP3    H138831   4.323   4.081   6.708
12962TIP3    H238832   4.252   3.962   6.648
12963TIP3   OH238833   5.256   5.601   3.720
12963TIP3    H138834   5.222   5.533   3.778
12963TIP3    H238835   5.185   5.664   3.712
12964TIP3   OH238836   7.192   3.419   2.926
12964TIP3    H138837   7.118   3.440   2.869
12964TIP3    H238838   7.161   3.345   2.978
12965TIP3   OH238839   1.317   1.239   1.518
12965TIP3    H138840   1.308   1.291   1.598
12965TIP3    H238841   1.408   1.252   1.490
12966TIP3   OH238842   5.939   7.439   3.244
12966TIP3    H138843   6.003   7.385   3.290
12966TIP3    H238844   5.858   7.429   3.294
12967TIP3   OH238845   1.604   3.793   4.998
12967TIP3    H138846   1.537   3.799   5.067
12967TIP3    H238847   1.574   3.724   4.940
12968TIP3   OH238848   4.043   6.650   3.592
12968TIP3    H138849   4.135   6.625   3.588
12968TIP3    H238850   3.998   6.588   3.534
12969TIP3   OH238851   1.112   4.597   6.282
12969TIP3    H138852   1.049   4.643   6.338
12969TIP3    H238853   1.065   4.583   6.199
12970TIP3   OH238854   3.686   7.733   1.546
12970TIP3    H138855   3.744   7.737   1.470
12970TIP3    H238856   3.676   7.639   1.563
12971TIP3   OH238857   4.962   4.739   0.762
12971TIP3    H138858   4.916   4.714   0.842
12971TIP3    H238859   4.903   4.713   0.692
12972TIP3   OH238860   1.914   6.089   5.592
12972TIP3    H138861   1.987   6.149   5.608
12972TIP3    H238862   1.850   6.141   5.543
12973TIP3   OH238863   0.798   2.916   1.530
12973TIP3    H138864   0.731   2.970   1.489
12973TIP3    H238865   0.775   2.826   1.505
12974TIP3   OH238866   6.816   3.908   5.970
12974TIP3    H138867   6.819   4.002   5.984
12974TIP3    H238868   6.898   3.888   5.925
12975TIP3   OH238869   3.699   0.617   2.104
12975TIP3    H138870   3.790   0.618   2.133
12975TIP3    H238871   3.652   0.665   2.172
12976TIP3   OH238872   0.077   3.894   3.395
12976TIP3    H138873   0.002   3.868   3.450
12976TIP3    H238874   0.080   3.989   3.402
12977TIP3   OH238875   2.454   7.750   5.671
12977TIP3    H138876   2.523   7.789   5.724
12977TIP3    H238877   2.464   7.656   5.684
12978TIP3   OH238878   7.053   2.873   4.193
12978TIP3    H138879   7.037   2.789   4.149
12978TIP3    H238880   7.105   2.851   4.270
12979TIP3   OH238881   6.880   5.995   4.618
12979TIP3    H138882   6.858   5.924   4.557
12979TIP3    H238883   6.974   5.985   4.633
12980TIP3   OH238884   1.051   7.447   4.972
12980TIP3    H138885   1.031   7.398   5.052
12980TIP3    H238886   0.997   7.406   4.904
12981TIP3   OH238887   0.806   3.572   1.567
12981TIP3    H138888   0.841   3.651   1.526
12981TIP3    H238889   0.747   3.604   1.635
12982TIP3   OH238890   6.675   2.263   0.513
12982TIP3    H138891   6.770   2.259   0.497
12982TIP3    H238892   6.666   2.328   0.583
12983TIP3   OH238893   2.948   6.253   1.212
12983TIP3    H138894   3.017   6.189   1.199
12983TIP3    H238895   2.918   6.239   1.302
12984TIP3   OH238896   3.695   6.798   1.783
12984TIP3    H138897   3.688   6.713   1.826
12984TIP3    H238898   3.606   6.833   1.785
12985TIP3   OH238899   2.948   3.594   2.249
12985TIP3    H138900   2.920   3.657   2.315
12985TIP3    H238901   2.867   3.555   2.216
12986TIP3   OH238902   3.957   2.217   2.806
12986TIP3    H138903   3.933   2.195   2.716
12986TIP3    H238904   4.052   2.207   2.809
12987TIP3   OH238905   0.228   4.427   6.290
12987TIP3    H138906   0.136   4.455   6.287
12987TIP3    H238907   0.250   4.410   6.199
12988TIP3   OH238908   6.577   1.387   4.974
12988TIP3    H138909   6.603   1.416   4.887
12988TIP3    H238910   6.492   1.345   4.961
12989TIP3   OH238911   7.722   3.725   0.889
12989TIP3    H138912   7.758   3.696   0.973
12989TIP3    H238913   7.627   3.727   0.904
12990TIP3   OH238914   5.157   2.074   1.195
12990TIP3    H138915   5.074   2.069   1.147
12990TIP3    H238916   5.215   2.125   1.138
12991TIP3   OH238917   0.275   0.126   1.988
12991TIP3    H138918   0.216   0.201   1.983
12991TIP3    H238919   0.217   0.050   1.991
12992TIP3   OH238920   1.620   2.938   0.438
12992TIP3    H138921   1.620   3.022   0.483
12992TIP3    H238922   1.626   2.873   0.508
12993TIP3   OH238923   3.726   4.822   6.561
12993TIP3    H138924   3.776   4.829   6.480
12993TIP3    H238925   3.763   4.746   6.605
12994TIP3   OH238926   6.762   6.261   2.916
12994TIP3    H138927   6.673   6.240   2.944
12994TIP3    H238928   6.802   6.304   2.992
12995TIP3   OH238929   1.602   5.669   1.280
12995TIP3    H138930   1.579   5.590   1.330
12995TIP3    H238931   1.655   5.637   1.207
12996TIP3   OH238932   5.375   5.285   3.126
12996TIP3    H138933   5.333   5.255   3.207
12996TIP3    H238934   5.312   5.265   3.057
12997TIP3   OH238935   5.690   5.800   2.600
12997TIP3    H138936   5.671   5.726   2.544
12997TIP3    H238937   5.607   5.848   2.605
12998TIP3   OH238938   3.422   4.794   5.881
12998TIP3    H138939   3.362   4.862   5.912
12998TIP3    H238940   3.506   4.839   5.871
12999TIP3   OH238941   0.386   2.524   4.685
12999TIP3    H138942   0.470   2.479   4.697
12999TIP3    H238943   0.328   2.485   4.749
13000TIP3   OH238944   0.952   7.616   1.538
13000TIP3    H138945   0.954   7.604   1.633
13000TIP3    H238946   1.044   7.614   1.511
13001TIP3   OH238947   7.546   1.471   5.369
13001TIP3    H138948   7.554   1.448   5.461
13001TIP3    H238949   7.623   1.432   5.327
13002TIP3   OH238950   6.962   7.256   0.297
13002TIP3    H138951   7.003   7.305   0.227
13002TIP3    H238952   7.034   7.213   0.343
13003TIP3   OH238953   0.924   3.534   3.786
13003TIP3    H138954   0.979   3.523   3.709
13003TIP3    H238955   0.920   3.447   3.825
13004TIP3   OH238956   1.291   3.022   0.712
13004TIP3    H138957   1.287   2.930   0.684
13004TIP3    H238958   1.355   3.022   0.783
13005TIP3   OH238959   7.586   1.227   1.209
13005TIP3    H138960   7.560   1.302   1.262
13005TIP3    H238961   7.509   1.206   1.156
13006TIP3   OH238962   2.182   3.819   2.013
13006TIP3    H138963   2.253   3.838   1.952
13006TIP3    H238964   2.226   3.809   2.098
13007TIP3   OH238965   1.287   0.542   3.301
13007TIP3    H138966   1.349   0.491   3.250
13007TIP3    H238967   1.256   0.610   3.241
13008TIP3   OH238968   8.158   2.542   0.168
13008TIP3    H138969   8.176   2.451   0.192
13008TIP3    H238970   8.068   2.557   0.199
13009TIP3   OH238971   3.747   7.217   3.506
13009TIP3    H138972   3.726   7.300   3.462
13009TIP3    H238973   3.671   7.162   3.490
13010TIP3   OH238974   4.899   2.585   3.995
13010TIP3    H138975   4.945   2.501   3.983
13010TIP3    H238976   4.813   2.560   4.029
13011TIP3   OH238977   4.329   6.117   1.433
13011TIP3    H138978   4.406   6.073   1.471
13011TIP3    H238979   4.366   6.188   1.381
13012TIP3   OH238980   3.910   1.282   1.606
13012TIP3    H138981   3.915   1.209   1.545
13012TIP3    H238982   3.820   1.280   1.639
13013TIP3   OH238983   3.279   5.435   4.557
13013TIP3    H138984   3.224   5.358   4.539
13013TIP3    H238985   3.288   5.478   4.472
13014TIP3   OH238986   7.427   4.315   1.659
13014TIP3    H138987   7.429   4.322   1.564
13014TIP3    H238988   7.403   4.223   1.676
13015TIP3   OH238989   0.884   3.763   4.684
13015TIP3    H138990   0.945   3.779   4.612
13015TIP3    H238991   0.881   3.846   4.732
13016TIP3   OH238992   4.965   6.763   4.825
13016TIP3    H138993   4.911   6.740   4.901
13016TIP3    H238994   5.004   6.847   4.848
13017TIP3   OH238995   5.262   3.985   3.765
13017TIP3    H138996   5.302   3.982   3.678
13017TIP3    H238997   5.277   3.898   3.802
13018TIP3   OH238998   3.870   0.202   3.488
13018TIP3    H138999   3.880   0.133   3.422
13018TIP3    H239000   3.805   0.262   3.450
13019TIP3   OH239001   2.112   6.192   4.802
13019TIP3    H139002   2.078   6.118   4.752
13019TIP3    H239003   2.166   6.152   4.870
13020TIP3   OH239004   4.919   0.399   1.171
13020TIP3    H139005   4.870   0.338   1.115
13020TIP3    H239006   4.852   0.438   1.227
13021TIP3   OH239007   3.006   6.900   0.364
13021TIP3    H139008   2.926   6.950   0.380
13021TIP3    H239009   3.030   6.864   0.450
13022TIP3   OH239010   2.197   4.174   5.878
13022TIP3    H139011   2.149   4.249   5.912
13022TIP3    H239012   2.281   4.176   5.924
13023TIP3   OH239013   6.209   1.044   6.009
13023TIP3    H139014   6.172   0.985   6.074
13023TIP3    H239015   6.150   1.120   6.010
13024TIP3   OH239016   5.692   3.584   5.738
13024TIP3    H139017   5.682   3.495   5.703
13024TIP3    H239018   5.731   3.634   5.667
13025TIP3   OH239019   4.950   1.082   1.892
13025TIP3    H139020   5.015   1.014   1.874
13025TIP3    H239021   4.968   1.109   1.982
13026TIP3   OH239022   1.832   4.503   3.169
13026TIP3    H139023   1.813   4.553   3.248
13026TIP3    H239024   1.747   4.485   3.130
13027TIP3   OH239025   5.123   0.937   1.149
13027TIP3    H139026   5.183   1.004   1.118
13027TIP3    H239027   5.036   0.974   1.135
13028TIP3   OH239028   1.693   3.060   2.308
13028TIP3    H139029   1.600   3.042   2.322
13028TIP3    H239030   1.695   3.119   2.233
13029TIP3   OH239031   6.811   3.760   0.890
13029TIP3    H139032   6.784   3.835   0.837
13029TIP3    H239033   6.758   3.687   0.857
13030TIP3   OH239034   7.126   3.686   4.317
13030TIP3    H139035   7.081   3.735   4.386
13030TIP3    H239036   7.218   3.711   4.325
13031TIP3   OH239037   6.793   0.559   5.587
13031TIP3    H139038   6.729   0.582   5.655
13031TIP3    H239039   6.743   0.559   5.506
13032TIP3   OH239040   7.602   6.592   4.226
13032TIP3    H139041   7.562   6.674   4.256
13032TIP3    H239042   7.550   6.567   4.149
13033TIP3   OH239043   3.823   0.228   1.271
13033TIP3    H139044   3.830   0.246   1.178
13033TIP3    H239045   3.802   0.313   1.310
13034TIP3   OH239046   1.354   4.905   1.296
13034TIP3    H139047   1.369   4.836   1.231
13034TIP3    H239048   1.368   4.987   1.248
13035TIP3   OH239049   2.661   4.869   4.869
13035TIP3    H139050   2.705   4.932   4.925
13035TIP3    H239051   2.704   4.878   4.784
13036TIP3   OH239052   0.691   7.765   6.238
13036TIP3    H139053   0.669   7.832   6.174
13036TIP3    H239054   0.768   7.721   6.202
13037TIP3   OH239055   2.596   5.104   2.650
13037TIP3    H139056   2.614   5.126   2.741
13037TIP3    H239057   2.607   5.009   2.645
13038TIP3   OH239058   2.557   5.862   3.333
13038TIP3    H139059   2.559   5.823   3.246
13038TIP3    H239060   2.625   5.817   3.382
13039TIP3   OH239061   3.387   5.724   6.241
13039TIP3    H139062   3.435   5.688   6.167
13039TIP3    H239063   3.432   5.689   6.318
13040TIP3   OH239064   3.689   3.868   3.390
13040TIP3    H139065   3.724   3.906   3.470
13040TIP3    H239066   3.654   3.943   3.341
13041TIP3   OH239067   0.438   6.860   5.015
13041TIP3    H139068   0.390   6.801   5.074
13041TIP3    H239069   0.369   6.901   4.963
13042TIP3   OH239070   6.015   5.121   0.103
13042TIP3    H139071   5.921   5.138   0.094
13042TIP3    H239072   6.058   5.200   0.071
13043TIP3   OH239073   7.900   1.178   5.364
13043TIP3    H139074   7.983   1.152   5.404
13043TIP3    H239075   7.833   1.141   5.421
13044TIP3   OH239076   6.727   3.173   2.109
13044TIP3    H139077   6.816   3.162   2.074
13044TIP3    H239078   6.682   3.225   2.042
13045TIP3   OH239079   6.361   0.848   0.866
13045TIP3    H139080   6.451   0.825   0.889
13045TIP3    H239081   6.359   0.847   0.771
13046TIP3   OH239082   4.882   3.687   5.711
13046TIP3    H139083   4.868   3.687   5.805
13046TIP3    H239084   4.916   3.600   5.692
13047TIP3   OH239085   5.334   3.465   0.390
13047TIP3    H139086   5.393   3.420   0.329
13047TIP3    H239087   5.369   3.554   0.394
13048TIP3   OH239088   2.443   4.411   5.161
13048TIP3    H139089   2.458   4.452   5.076
13048TIP3    H239090   2.528   4.374   5.185
13049TIP3   OH239091   3.680   4.561   0.394
13049TIP3    H139092   3.680   4.566   0.298
13049TIP3    H239093   3.628   4.483   0.414
13050TIP3   OH239094   7.239   1.022   1.817
13050TIP3    H139095   7.203   1.003   1.731
13050TIP3    H239096   7.258   1.116   1.814
13051TIP3   OH239097   4.869   1.742   1.052
13051TIP3    H139098   4.953   1.709   1.085
13051TIP3    H239099   4.818   1.663   1.033
13052TIP3   OH239100   1.348   0.927   3.632
13052TIP3    H139101   1.364   0.834   3.614
13052TIP3    H239102   1.328   0.929   3.726
13053TIP3   OH239103   5.956   7.281   4.757
13053TIP3    H139104   5.952   7.373   4.730
13053TIP3    H239105   6.049   7.261   4.764
13054TIP3   OH239106   1.545   0.852   0.344
13054TIP3    H139107   1.597   0.870   0.266
13054TIP3    H239108   1.606   0.863   0.417
13055TIP3   OH239109   0.811   0.882   0.853
13055TIP3    H139110   0.735   0.883   0.911
13055TIP3    H239111   0.810   0.967   0.810
13056TIP3   OH239112   7.898   2.504   0.314
13056TIP3    H139113   7.812   2.494   0.274
13056TIP3    H239114   7.918   2.418   0.351
13057TIP3   OH239115   2.577   5.499   6.459
13057TIP3    H139116   2.667   5.525   6.479
13057TIP3    H239117   2.535   5.490   6.545
13058TIP3   OH239118   8.238   4.144   2.954
13058TIP3    H139119   8.288   4.066   2.978
13058TIP3    H239120   8.181   4.160   3.030
13059TIP3   OH239121   7.516   0.160   4.431
13059TIP3    H139122   7.463   0.237   4.410
13059TIP3    H239123   7.562   0.183   4.511
13060TIP3   OH239124   3.723   7.444   0.642
13060TIP3    H139125   3.814   7.471   0.647
13060TIP3    H239126   3.699   7.423   0.733
13061TIP3   OH239127   0.284   2.844   5.849
13061TIP3    H139128   0.260   2.752   5.834
13061TIP3    H239129   0.222   2.894   5.796
13062TIP3   OH239130   0.421   4.509   1.369
13062TIP3    H139131   0.395   4.474   1.454
13062TIP3    H239132   0.499   4.561   1.387
13063TIP3   OH239133   1.966   2.080   3.943
13063TIP3    H139134   1.964   1.985   3.958
13063TIP3    H239135   1.911   2.093   3.866
13064TIP3   OH239136   2.409   2.193   4.072
13064TIP3    H139137   2.368   2.180   4.158
13064TIP3    H239138   2.336   2.186   4.010
13065TIP3   OH239139   4.084   7.401   4.207
13065TIP3    H139140   4.031   7.358   4.274
13065TIP3    H239141   4.152   7.447   4.256
13066TIP3   OH239142   4.489   2.996   5.703
13066TIP3    H139143   4.559   2.932   5.688
13066TIP3    H239144   4.480   3.000   5.799
13067TIP3   OH239145   4.782   3.977   5.058
13067TIP3    H139146   4.807   4.034   5.130
13067TIP3    H239147   4.863   3.932   5.034
13068TIP3   OH239148   1.093   6.909   4.503
13068TIP3    H139149   1.162   6.843   4.497
13068TIP3    H239150   1.022   6.865   4.548
13069TIP3   OH239151   4.111   2.993   6.579
13069TIP3    H139152   4.115   2.898   6.593
13069TIP3    H239153   4.200   3.018   6.558
13070TIP3   OH239154   8.045   6.719   5.650
13070TIP3    H139155   8.054   6.662   5.727
13070TIP3    H239156   7.954   6.749   5.653
13071TIP3   OH239157   1.974   5.218   0.583
13071TIP3    H139158   2.041   5.282   0.556
13071TIP3    H239159   1.967   5.158   0.509
13072TIP3   OH239160   5.373   2.567   5.156
13072TIP3    H139161   5.412   2.620   5.225
13072TIP3    H239162   5.280   2.561   5.179
13073TIP3   OH239163   2.751   4.239   0.945
13073TIP3    H139164   2.690   4.214   0.876
13073TIP3    H239165   2.721   4.324   0.975
13074TIP3   OH239166   5.766   7.280   1.329
13074TIP3    H139167   5.729   7.279   1.240
13074TIP3    H239168   5.860   7.281   1.316
13075TIP3   OH239169   6.963   6.996   5.170
13075TIP3    H139170   6.949   7.007   5.264
13075TIP3    H239171   7.001   7.079   5.142
13076TIP3   OH239172   0.568   6.161   1.844
13076TIP3    H139173   0.545   6.243   1.801
13076TIP3    H239174   0.634   6.122   1.786
13077TIP3   OH239175   2.766   4.527   3.541
13077TIP3    H139176   2.807   4.612   3.556
13077TIP3    H239177   2.774   4.513   3.447
13078TIP3   OH239178   3.151   3.962   6.399
13078TIP3    H139179   3.144   3.868   6.412
13078TIP3    H239180   3.244   3.980   6.408
13079TIP3   OH239181   3.761   7.062   4.384
13079TIP3    H139182   3.805   7.115   4.317
13079TIP3    H239183   3.675   7.103   4.393
13080TIP3   OH239184   1.567   7.030   0.864
13080TIP3    H139185   1.517   7.017   0.783
13080TIP3    H239186   1.605   6.945   0.883
13081TIP3   OH239187   4.838   0.598   1.694
13081TIP3    H139188   4.742   0.602   1.700
13081TIP3    H239189   4.866   0.689   1.692
13082TIP3   OH239190   7.254   5.611   3.308
13082TIP3    H139191   7.299   5.629   3.391
13082TIP3    H239192   7.287   5.678   3.248
13083TIP3   OH239193   7.303   3.308   2.593
13083TIP3    H139194   7.387   3.353   2.604
13083TIP3    H239195   7.245   3.374   2.556
13084TIP3   OH239196   3.868   0.683   0.166
13084TIP3    H139197   3.924   0.758   0.145
13084TIP3    H239198   3.916   0.637   0.235
13085TIP3   OH239199   7.894   5.386   1.434
13085TIP3    H139200   7.848   5.443   1.496
13085TIP3    H239201   7.973   5.434   1.412
13086TIP3   OH239202   3.413   7.253   3.250
13086TIP3    H139203   3.459   7.191   3.306
13086TIP3    H239204   3.468   7.260   3.172
13087TIP3   OH239205   3.170   6.092   1.194
13087TIP3    H139206   3.264   6.083   1.213
13087TIP3    H239207   3.150   6.018   1.137
13088TIP3   OH239208   5.253   6.123   6.729
13088TIP3    H139209   5.307   6.066   6.783
13088TIP3    H239210   5.270   6.093   6.639
13089TIP3   OH239211   3.607   6.537   6.144
13089TIP3    H139212   3.645   6.596   6.079
13089TIP3    H239213   3.662   6.547   6.221
13090TIP3   OH239214   2.615   5.854   6.701
13090TIP3    H139215   2.617   5.867   6.795
13090TIP3    H239216   2.645   5.764   6.688
13091TIP3   OH239217   5.893   1.157   2.512
13091TIP3    H139218   5.972   1.103   2.505
13091TIP3    H239219   5.905   1.206   2.593
13092TIP3   OH239220   3.950   3.299   3.445
13092TIP3    H139221   3.858   3.289   3.420
13092TIP3    H239222   3.963   3.393   3.452
13093TIP3   OH239223   6.381   5.538   2.573
13093TIP3    H139224   6.456   5.496   2.533
13093TIP3    H239225   6.334   5.466   2.616
13094TIP3   OH239226   5.785   4.936   0.800
13094TIP3    H139227   5.781   4.945   0.895
13094TIP3    H239228   5.747   4.850   0.783
13095TIP3   OH239229   4.196   3.470   2.761
13095TIP3    H139230   4.227   3.426   2.840
13095TIP3    H239231   4.272   3.519   2.730
13096TIP3   OH239232   1.044   7.582   0.011
13096TIP3    H139233   1.005   7.501  -0.022
13096TIP3    H239234   0.971   7.645   0.013
13097TIP3   OH239235   5.167   1.757   6.462
13097TIP3    H139236   5.143   1.839   6.504
13097TIP3    H239237   5.097   1.741   6.399
13098TIP3   OH239238   3.614   4.521   4.280
13098TIP3    H139239   3.708   4.537   4.294
13098TIP3    H239240   3.594   4.447   4.338
13099TIP3   OH239241   0.766   0.340   6.235
13099TIP3    H139242   0.757   0.305   6.324
13099TIP3    H239243   0.729   0.272   6.179
13100TIP3   OH239244   4.473   0.429   0.274
13100TIP3    H139245   4.485   0.369   0.200
13100TIP3    H239246   4.518   0.509   0.247
13101TIP3   OH239247   5.406   0.195   6.103
13101TIP3    H139248   5.459   0.132   6.152
13101TIP3    H239249   5.322   0.151   6.090
13102TIP3   OH239250   2.340   7.615   6.606
13102TIP3    H139251   2.313   7.558   6.534
13102TIP3    H239252   2.346   7.702   6.567
13103TIP3   OH239253   2.531   2.926   2.261
13103TIP3    H139254   2.545   2.976   2.341
13103TIP3    H239255   2.589   2.966   2.197
13104TIP3   OH239256   6.851   3.019   1.119
13104TIP3    H139257   6.939   2.982   1.108
13104TIP3    H239258   6.806   3.000   1.037
13105TIP3   OH239259   3.313   2.048   1.072
13105TIP3    H139260   3.409   2.046   1.077
13105TIP3    H239261   3.294   2.125   1.018
13106TIP3   OH239262   6.184   3.079   5.660
13106TIP3    H139263   6.108   3.110   5.611
13106TIP3    H239264   6.153   3.073   5.751
13107TIP3   OH239265   2.415   2.201   6.120
13107TIP3    H139266   2.322   2.207   6.142
13107TIP3    H239267   2.456   2.275   6.164
13108TIP3   OH239268   4.807   2.416   3.743
13108TIP3    H139269   4.737   2.463   3.790
13108TIP3    H239270   4.801   2.326   3.776
13109TIP3   OH239271   2.594   1.242   1.288
13109TIP3    H139272   2.588   1.236   1.193
13109TIP3    H239273   2.642   1.323   1.305
13110TIP3   OH239274   2.822   1.952   1.467
13110TIP3    H139275   2.744   2.005   1.447
13110TIP3    H239276   2.853   1.986   1.551
13111TIP3   OH239277   6.706   3.408   3.035
13111TIP3    H139278   6.664   3.339   3.085
13111TIP3    H239279   6.658   3.488   3.058
13112TIP3   OH239280   0.415   1.919   5.034
13112TIP3    H139281   0.402   1.845   4.975
13112TIP3    H239282   0.499   1.903   5.076
13113TIP3   OH239283   4.720   1.665   6.115
13113TIP3    H139284   4.629   1.696   6.121
13113TIP3    H239285   4.738   1.627   6.201
13114TIP3   OH239286   7.920   2.873   1.371
13114TIP3    H139287   7.928   2.793   1.318
13114TIP3    H239288   7.875   2.935   1.314
13115TIP3   OH239289   4.184   0.137   0.498
13115TIP3    H139290   4.254   0.116   0.560
13115TIP3    H239291   4.104   0.110   0.543
13116TIP3   OH239292   2.286   5.215   3.581
13116TIP3    H139293   2.262   5.170   3.662
13116TIP3    H239294   2.206   5.260   3.554
13117TIP3   OH239295   7.135   5.036   3.309
13117TIP3    H139296   7.167   5.072   3.226
13117TIP3    H239297   7.118   5.114   3.363
13118TIP3   OH239298   3.578   7.466   6.497
13118TIP3    H139299   3.670   7.440   6.487
13118TIP3    H239300   3.534   7.385   6.522
13119TIP3   OH239301   0.229   1.993   2.913
13119TIP3    H139302   0.143   1.954   2.896
13119TIP3    H239303   0.283   1.963   2.840
13120TIP3   OH239304   4.351   3.081   6.507
13120TIP3    H139305   4.434   3.044   6.476
13120TIP3    H239306   4.362   3.175   6.498
13121TIP3   OH239307   0.993   5.523   6.189
13121TIP3    H139308   0.908   5.567   6.184
13121TIP3    H239309   1.014   5.522   6.283
13122TIP3   OH239310   5.974   0.210   2.240
13122TIP3    H139311   5.889   0.252   2.248
13122TIP3    H239312   6.020   0.261   2.173
13123TIP3   OH239313   7.543   6.292   3.854
13123TIP3    H139314   7.620   6.280   3.910
13123TIP3    H239315   7.476   6.235   3.893
13124TIP3   OH239316   3.911   2.377   3.697
13124TIP3    H139317   3.918   2.365   3.792
13124TIP3    H239318   3.826   2.420   3.685
13125TIP3   OH239319   6.442   7.092   1.873
13125TIP3    H139320   6.488   7.037   1.810
13125TIP3    H239321   6.421   7.172   1.824
13126TIP3   OH239322   5.031   2.687   4.212
13126TIP3    H139323   5.015   2.665   4.121
13126TIP3    H239324   4.943   2.691   4.251
13127TIP3   OH239325   6.764   3.329   4.853
13127TIP3    H139326   6.700   3.382   4.805
13127TIP3    H239327   6.712   3.283   4.919
13128TIP3   OH239328   7.192   3.610   0.466
13128TIP3    H139329   7.118   3.561   0.503
13128TIP3    H239330   7.152   3.671   0.405
13129TIP3   OH239331   4.836   5.379   4.336
13129TIP3    H139332   4.789   5.301   4.305
13129TIP3    H239333   4.897   5.400   4.265
13130TIP3   OH239334   3.543   6.725   1.124
13130TIP3    H139335   3.500   6.759   1.046
13130TIP3    H239336   3.547   6.630   1.110
13131TIP3   OH239337   4.479   7.462   6.685
13131TIP3    H139338   4.572   7.464   6.705
13131TIP3    H239339   4.437   7.512   6.755
13132TIP3   OH239340   4.694   2.957   1.450
13132TIP3    H139341   4.622   3.010   1.485
13132TIP3    H239342   4.663   2.867   1.455
13133TIP3   OH239343   0.120   7.534   4.040
13133TIP3    H139344   0.060   7.602   4.008
13133TIP3    H239345   0.075   7.451   4.019
13134TIP3   OH239346   0.771   4.839   2.950
13134TIP3    H139347   0.748   4.762   2.897
13134TIP3    H239348   0.748   4.815   3.039
13135TIP3   OH239349   5.486   3.319   4.231
13135TIP3    H139350   5.401   3.295   4.268
13135TIP3    H239351   5.517   3.389   4.288
13136TIP3   OH239352   5.761   3.664   1.715
13136TIP3    H139353   5.790   3.754   1.735
13136TIP3    H239354   5.736   3.628   1.800
13137TIP3   OH239355   8.267   5.613   2.624
13137TIP3    H139356   8.297   5.589   2.712
13137TIP3    H239357   8.255   5.708   2.628
13138TIP3   OH239358   5.765   0.876   5.065
13138TIP3    H139359   5.725   0.937   5.126
13138TIP3    H239360   5.840   0.923   5.029
13139TIP3   OH239361   6.298   6.440   1.637
13139TIP3    H139362   6.230   6.447   1.570
13139TIP3    H239363   6.375   6.407   1.590
13140TIP3   OH239364   2.863   3.216   3.949
13140TIP3    H139365   2.934   3.155   3.970
13140TIP3    H239366   2.873   3.232   3.855
13141TIP3   OH239367   5.792   4.401   6.244
13141TIP3    H139368   5.873   4.405   6.191
13141TIP3    H239369   5.793   4.483   6.294
13142TIP3   OH239370   8.193   1.115   3.454
13142TIP3    H139371   8.265   1.174   3.477
13142TIP3    H239372   8.224   1.067   3.378
13143TIP3   OH239373   1.328   6.603   5.775
13143TIP3    H139374   1.265   6.536   5.749
13143TIP3    H239375   1.400   6.555   5.815
13144TIP3   OH239376   1.423   5.554   4.771
13144TIP3    H139377   1.335   5.592   4.764
13144TIP3    H239378   1.410   5.472   4.819
13145TIP3   OH239379   6.507   5.020   2.401
13145TIP3    H139380   6.505   4.960   2.475
13145TIP3    H239381   6.579   5.080   2.420
13146TIP3   OH239382   0.371   5.735   2.696
13146TIP3    H139383   0.337   5.650   2.722
13146TIP3    H239384   0.423   5.717   2.617
13147TIP3   OH239385   7.496   1.970   0.521
13147TIP3    H139386   7.498   1.883   0.560
13147TIP3    H239387   7.412   2.007   0.550
13148TIP3   OH239388   0.483   7.175   5.129
13148TIP3    H139389   0.507   7.266   5.110
13148TIP3    H239390   0.396   7.181   5.168
13149TIP3   OH239391   4.143   4.518   4.273
13149TIP3    H139392   4.178   4.504   4.185
13149TIP3    H239393   4.186   4.597   4.304
13150TIP3   OH239394   1.546   6.157   6.253
13150TIP3    H139395   1.491   6.183   6.179
13150TIP3    H239396   1.597   6.235   6.274
13151TIP3   OH239397   1.738   5.299   3.363
13151TIP3    H139398   1.767   5.209   3.352
13151TIP3    H239399   1.818   5.348   3.382
13152TIP3   OH239400   3.710   5.999   4.625
13152TIP3    H139401   3.802   6.026   4.628
13152TIP3    H239402   3.702   5.935   4.696
13153TIP3   OH239403   0.663   2.059   3.439
13153TIP3    H139404   0.622   1.973   3.452
13153TIP3    H239405   0.756   2.043   3.456
13154TIP3   OH239406   7.174   2.445   0.393
13154TIP3    H139407   7.100   2.422   0.337
13154TIP3    H239408   7.147   2.525   0.437
13155TIP3   OH239409   5.037   2.416   5.999
13155TIP3    H139410   5.052   2.441   5.908
13155TIP3    H239411   4.943   2.397   6.003
13156TIP3   OH239412   1.754   1.041   5.875
13156TIP3    H139413   1.785   0.990   5.950
13156TIP3    H239414   1.726   0.975   5.812
13157TIP3   OH239415   7.571   7.742   5.952
13157TIP3    H139416   7.491   7.717   5.998
13157TIP3    H239417   7.637   7.745   6.021
13158TIP3   OH239418   4.733   1.479   6.640
13158TIP3    H139419   4.687   1.556   6.674
13158TIP3    H239420   4.734   1.417   6.713
13159TIP3   OH239421   0.383   1.580   5.511
13159TIP3    H139422   0.357   1.606   5.422
13159TIP3    H239423   0.307   1.602   5.565
13160TIP3   OH239424   4.882   4.385   5.331
13160TIP3    H139425   4.930   4.468   5.333
13160TIP3    H239426   4.798   4.404   5.373
13161TIP3   OH239427   3.335   3.083   3.153
13161TIP3    H139428   3.362   3.069   3.243
13161TIP3    H239429   3.253   3.035   3.144
13162TIP3   OH239430   6.365   5.303   3.956
13162TIP3    H139431   6.410   5.277   3.875
13162TIP3    H239432   6.426   5.279   4.026
13163TIP3   OH239433   7.657   0.544   5.854
13163TIP3    H139434   7.652   0.577   5.944
13163TIP3    H239435   7.595   0.598   5.805
13164TIP3   OH239436   3.712   2.580   4.354
13164TIP3    H139437   3.712   2.675   4.344
13164TIP3    H239438   3.649   2.564   4.424
13165TIP3   OH239439   7.901   2.125   6.419
13165TIP3    H139440   7.962   2.192   6.389
13165TIP3    H239441   7.956   2.049   6.438
13166TIP3   OH239442   4.442   6.311   0.625
13166TIP3    H139443   4.373   6.261   0.669
13166TIP3    H239444   4.516   6.250   0.619
13167TIP3   OH239445   6.358   7.318   2.857
13167TIP3    H139446   6.438   7.286   2.899
13167TIP3    H239447   6.300   7.242   2.855
13168TIP3   OH239448   3.906   7.124   2.523
13168TIP3    H139449   3.914   7.111   2.618
13168TIP3    H239450   3.996   7.118   2.491
13169TIP3   OH239451   1.130   5.295   1.832
13169TIP3    H139452   1.153   5.362   1.768
13169TIP3    H239453   1.093   5.344   1.906
13170TIP3   OH239454   2.178   7.769   4.293
13170TIP3    H139455   2.127   7.731   4.364
13170TIP3    H239456   2.239   7.700   4.268
13171TIP3   OH239457   7.766   5.733   4.728
13171TIP3    H139458   7.705   5.806   4.718
13171TIP3    H239459   7.739   5.670   4.660
13172TIP3   OH239460   5.333   3.230   5.886
13172TIP3    H139461   5.313   3.162   5.823
13172TIP3    H239462   5.428   3.230   5.893
13173TIP3   OH239463   2.453   6.087   5.249
13173TIP3    H139464   2.452   6.178   5.220
13173TIP3    H239465   2.543   6.072   5.276
13174TIP3   OH239466   6.178   6.809   1.594
13174TIP3    H139467   6.262   6.817   1.549
13174TIP3    H239468   6.113   6.801   1.524
13175TIP3   OH239469   2.731   4.883   5.201
13175TIP3    H139470   2.699   4.968   5.170
13175TIP3    H239471   2.806   4.903   5.255
13176TIP3   OH239472   1.638   4.798   4.290
13176TIP3    H139473   1.630   4.759   4.203
13176TIP3    H239474   1.694   4.738   4.339
13177TIP3   OH239475   0.439   2.077   0.568
13177TIP3    H139476   0.460   2.019   0.495
13177TIP3    H239477   0.345   2.066   0.582
13178TIP3   OH239478   2.819   4.300   5.483
13178TIP3    H139479   2.870   4.239   5.536
13178TIP3    H239480   2.755   4.338   5.544
13179TIP3   OH239481   3.391   6.647   5.750
13179TIP3    H139482   3.392   6.667   5.843
13179TIP3    H239483   3.379   6.731   5.707
13180TIP3   OH239484   4.872   0.479   3.770
13180TIP3    H139485   4.810   0.409   3.786
13180TIP3    H239486   4.889   0.477   3.676
13181TIP3   OH239487   5.019   6.157   3.341
13181TIP3    H139488   5.059   6.118   3.418
13181TIP3    H239489   4.933   6.185   3.370
13182TIP3   OH239490   6.401   4.270   4.094
13182TIP3    H139491   6.352   4.258   4.012
13182TIP3    H239492   6.454   4.348   4.078
13183TIP3   OH239493   5.206   0.176   4.348
13183TIP3    H139494   5.270   0.176   4.419
13183TIP3    H239495   5.232   0.249   4.292
13184TIP3   OH239496   2.741   6.189   3.600
13184TIP3    H139497   2.753   6.094   3.603
13184TIP3    H239498   2.715   6.213   3.689
13185TIP3   OH239499   2.415   4.753   4.792
13185TIP3    H139500   2.497   4.797   4.816
13185TIP3    H239501   2.361   4.822   4.753
13186TIP3   OH239502   3.754   0.922   3.695
13186TIP3    H139503   3.757   0.889   3.784
13186TIP3    H239504   3.845   0.918   3.665
13187TIP3   OH239505   3.130   0.725   0.503
13187TIP3    H139506   3.190   0.778   0.450
13187TIP3    H239507   3.163   0.733   0.592
13188TIP3   OH239508   2.315   4.569   0.902
13188TIP3    H139509   2.358   4.555   0.986
13188TIP3    H239510   2.356   4.506   0.843
13189TIP3   OH239511   4.817   1.536   5.425
13189TIP3    H139512   4.746   1.486   5.385
13189TIP3    H239513   4.838   1.488   5.505
13190TIP3   OH239514   3.204   5.172   3.132
13190TIP3    H139515   3.267   5.116   3.177
13190TIP3    H239516   3.258   5.235   3.084
13191TIP3   OH239517   6.108   3.931   2.990
13191TIP3    H139518   6.187   3.974   3.022
13191TIP3    H239519   6.064   3.898   3.068
13192TIP3   OH239520   1.044   1.686   4.664
13192TIP3    H139521   1.030   1.605   4.616
13192TIP3    H239522   0.984   1.749   4.624
13193TIP3   OH239523   3.366   6.494   1.017
13193TIP3    H139524   3.286   6.543   0.995
13193TIP3    H239525   3.338   6.431   1.083
13194TIP3   OH239526   4.532   4.200   1.958
13194TIP3    H139527   4.626   4.195   1.942
13194TIP3    H239528   4.525   4.249   2.040
13195TIP3   OH239529   4.712   1.290   0.131
13195TIP3    H139530   4.744   1.369   0.088
13195TIP3    H239531   4.763   1.286   0.212
13196TIP3   OH239532   0.512   0.686   5.678
13196TIP3    H139533   0.509   0.605   5.628
13196TIP3    H239534   0.540   0.753   5.615
13197TIP3   OH239535   7.555   3.203   1.121
13197TIP3    H139536   7.494   3.265   1.159
13197TIP3    H239537   7.552   3.219   1.027
13198TIP3   OH239538   4.838   3.677   6.009
13198TIP3    H139539   4.894   3.621   6.063
13198TIP3    H239540   4.836   3.761   6.056
13199TIP3   OH239541   5.330   5.718   0.601
13199TIP3    H139542   5.243   5.699   0.635
13199TIP3    H239543   5.323   5.804   0.560
13200TIP3   OH239544   6.833   7.633   2.535
13200TIP3    H139545   6.780   7.599   2.607
13200TIP3    H239546   6.908   7.675   2.577
13201TIP3   OH239547   0.612   1.199   4.401
13201TIP3    H139548   0.631   1.106   4.400
13201TIP3    H239549   0.696   1.242   4.387
13202TIP3   OH239550   5.903   1.521   5.323
13202TIP3    H139551   5.939   1.482   5.403
13202TIP3    H239552   5.843   1.589   5.355
13203TIP3   OH239553   0.688   7.530   1.478
13203TIP3    H139554   0.763   7.581   1.511
13203TIP3    H239555   0.670   7.568   1.392
13204TIP3   OH239556   5.075   7.636   6.716
13204TIP3    H139557   5.098   7.546   6.694
13204TIP3    H239558   5.057   7.678   6.632
13205TIP3   OH239559   4.786   3.003   1.105
13205TIP3    H139560   4.738   2.999   1.187
13205TIP3    H239561   4.764   3.089   1.069
13206TIP3   OH239562   2.919   1.285   4.704
13206TIP3    H139563   2.961   1.357   4.658
13206TIP3    H239564   2.833   1.319   4.728
13207TIP3   OH239565   3.961   6.406   3.435
13207TIP3    H139566   4.009   6.414   3.352
13207TIP3    H239567   3.972   6.314   3.460
13208TIP3   OH239568   7.767   0.625   0.484
13208TIP3    H139569   7.812   0.664   0.408
13208TIP3    H239570   7.685   0.592   0.448
13209TIP3   OH239571   5.291   6.750   6.732
13209TIP3    H139572   5.215   6.780   6.784
13209TIP3    H239573   5.345   6.702   6.795
13210TIP3   OH239574   0.911   7.079   1.978
13210TIP3    H139575   0.883   6.989   1.998
13210TIP3    H239576   0.951   7.073   1.892
13211TIP3   OH239577   0.385   0.618   2.179
13211TIP3    H139578   0.351   0.632   2.268
13211TIP3    H239579   0.464   0.671   2.174
13212TIP3   OH239580   3.057   7.520   0.341
13212TIP3    H139581   3.037   7.613   0.355
13212TIP3    H239582   3.098   7.517   0.254
13213TIP3   OH239583   0.265   3.598   5.465
13213TIP3    H139584   0.282   3.563   5.552
13213TIP3    H239585   0.311   3.539   5.406
13214TIP3   OH239586   4.385   4.372   3.419
13214TIP3    H139587   4.362   4.465   3.414
13214TIP3    H239588   4.363   4.338   3.332
13215TIP3   OH239589   4.479   5.606   2.865
13215TIP3    H139590   4.472   5.688   2.913
13215TIP3    H239591   4.428   5.544   2.916
13216TIP3   OH239592   6.138   7.521   4.408
13216TIP3    H139593   6.160   7.443   4.358
13216TIP3    H239594   6.221   7.565   4.422
13217TIP3   OH239595   2.144   5.424   1.184
13217TIP3    H139596   2.142   5.520   1.182
13217TIP3    H239597   2.169   5.399   1.095
13218TIP3   OH239598   7.631   4.079   4.175
13218TIP3    H139599   7.622   4.173   4.187
13218TIP3    H239600   7.618   4.066   4.081
13219TIP3   OH239601   3.036   7.332   2.927
13219TIP3    H139602   3.107   7.396   2.934
13219TIP3    H239603   2.965   7.370   2.978
13220TIP3   OH239604   6.815   5.649   2.472
13220TIP3    H139605   6.776   5.678   2.390
13220TIP3    H239606   6.908   5.637   2.452
13221TIP3   OH239607   2.305   4.446   1.738
13221TIP3    H139608   2.258   4.373   1.700
13221TIP3    H239609   2.390   4.410   1.762
13222TIP3   OH239610   1.131   1.632   5.080
13222TIP3    H139611   1.068   1.562   5.097
13222TIP3    H239612   1.080   1.701   5.038
13223TIP3   OH239613   4.999   2.605   5.468
13223TIP3    H139614   4.963   2.518   5.486
13223TIP3    H239615   4.950   2.636   5.392
13224TIP3   OH239616   0.524   2.178   5.288
13224TIP3    H139617   0.483   2.094   5.309
13224TIP3    H239618   0.568   2.163   5.204
13225TIP3   OH239619   5.338   0.617   3.960
13225TIP3    H139620   5.363   0.678   3.891
13225TIP3    H239621   5.280   0.554   3.916
13226TIP3   OH239622   1.615   7.519   2.909
13226TIP3    H139623   1.612   7.499   3.002
13226TIP3    H239624   1.698   7.483   2.879
13227TIP3   OH239625   7.587   4.234   0.491
13227TIP3    H139626   7.583   4.148   0.449
13227TIP3    H239627   7.681   4.249   0.505
13228TIP3   OH239628   1.405   0.204   0.605
13228TIP3    H139629   1.407   0.125   0.552
13228TIP3    H239630   1.470   0.262   0.565
13229TIP3   OH239631   2.840   4.912   1.599
13229TIP3    H139632   2.801   4.901   1.686
13229TIP3    H239633   2.934   4.915   1.616
13230TIP3   OH239634   4.984   5.347   3.210
13230TIP3    H139635   5.064   5.336   3.261
13230TIP3    H239636   4.920   5.381   3.272
13231TIP3   OH239637   3.707   1.345   1.282
13231TIP3    H139638   3.719   1.256   1.247
13231TIP3    H239639   3.685   1.398   1.205
13232TIP3   OH239640   7.692   5.252   1.268
13232TIP3    H139641   7.738   5.263   1.351
13232TIP3    H239642   7.760   5.231   1.205
13233TIP3   OH239643   6.708   7.505   4.430
13233TIP3    H139644   6.648   7.430   4.424
13233TIP3    H239645   6.788   7.474   4.387
13234TIP3   OH239646   0.567   6.996   2.345
13234TIP3    H139647   0.579   6.903   2.368
13234TIP3    H239648   0.656   7.031   2.341
13235TIP3   OH239649   3.304   0.590   0.079
13235TIP3    H139650   3.322   0.621   0.168
13235TIP3    H239651   3.258   0.663   0.037
13236TIP3   OH239652   5.357   3.291   6.181
13236TIP3    H139653   5.357   3.378   6.222
13236TIP3    H239654   5.365   3.308   6.088
13237TIP3   OH239655   5.345   1.088   3.829
13237TIP3    H139656   5.278   1.124   3.886
13237TIP3    H239657   5.426   1.132   3.857
13238TIP3   OH239658   4.033   5.482   3.099
13238TIP3    H139659   4.005   5.410   3.156
13238TIP3    H239660   3.959   5.543   3.100
13239TIP3   OH239661   6.215   1.709   0.198
13239TIP3    H139662   6.168   1.753   0.127
13239TIP3    H239663   6.258   1.780   0.246
13240TIP3   OH239664   7.633   2.608   4.849
13240TIP3    H139665   7.566   2.660   4.894
13240TIP3    H239666   7.584   2.552   4.789
13241TIP3   OH239667   2.434   3.388   4.657
13241TIP3    H139668   2.487   3.427   4.587
13241TIP3    H239669   2.454   3.294   4.653
13242TIP3   OH239670   5.590   4.973   5.563
13242TIP3    H139671   5.673   5.016   5.584
13242TIP3    H239672   5.575   4.912   5.636
13243TIP3   OH239673   8.137   1.002   4.547
13243TIP3    H139674   8.228   1.008   4.576
13243TIP3    H239675   8.089   0.974   4.625
13244TIP3   OH239676   7.149   0.038   6.065
13244TIP3    H139677   7.220   0.047   6.129
13244TIP3    H239678   7.085   0.104   6.091
13245TIP3   OH239679   0.976   2.975   1.970
13245TIP3    H139680   0.972   2.883   1.997
13245TIP3    H239681   0.889   3.009   1.988
13246TIP3   OH239682   6.639   3.491   4.511
13246TIP3    H139683   6.681   3.516   4.429
13246TIP3    H239684   6.655   3.397   4.518
13247TIP3   OH239685   5.353   6.019   2.312
13247TIP3    H139686   5.389   6.086   2.369
13247TIP3    H239687   5.425   5.995   2.254
13248TIP3   OH239688   0.737   1.216   1.550
13248TIP3    H139689   0.728   1.128   1.514
13248TIP3    H239690   0.685   1.271   1.491
13249TIP3   OH239691   5.404   6.923   2.626
13249TIP3    H139692   5.427   6.983   2.555
13249TIP3    H239693   5.415   6.835   2.588
13250TIP3   OH239694   8.091   0.436   4.616
13250TIP3    H139695   8.183   0.427   4.592
13250TIP3    H239696   8.060   0.346   4.626
13251TIP3   OH239697   1.765   6.045   5.963
13251TIP3    H139698   1.757   6.021   6.055
13251TIP3    H239699   1.751   5.962   5.916
13252TIP3   OH239700   2.765   5.637   0.714
13252TIP3    H139701   2.755   5.604   0.803
13252TIP3    H239702   2.818   5.570   0.670
13253TIP3   OH239703   1.593   0.733   2.256
13253TIP3    H139704   1.614   0.799   2.190
13253TIP3    H239705   1.535   0.672   2.211
13254TIP3   OH239706   6.775   6.584   2.454
13254TIP3    H139707   6.801   6.515   2.516
13254TIP3    H239708   6.810   6.554   2.370
13255TIP3   OH239709   0.212   3.268   1.066
13255TIP3    H139710   0.299   3.307   1.078
13255TIP3    H239711   0.229   3.174   1.060
13256TIP3   OH239712   5.555   6.469   0.080
13256TIP3    H139713   5.627   6.423   0.123
13256TIP3    H239714   5.476   6.441   0.126
13257TIP3   OH239715   3.436   6.012   3.495
13257TIP3    H139716   3.458   5.980   3.582
13257TIP3    H239717   3.390   6.095   3.511
13258TIP3   OH239718   0.515   5.204   6.722
13258TIP3    H139719   0.489   5.296   6.726
13258TIP3    H239720   0.610   5.206   6.730
13259TIP3   OH239721   2.529   0.388   5.056
13259TIP3    H139722   2.475   0.371   4.979
13259TIP3    H239723   2.601   0.325   5.049
13260TIP3   OH239724   6.374   7.751   2.267
13260TIP3    H139725   6.368   7.846   2.251
13260TIP3    H239726   6.446   7.741   2.329
13261TIP3   OH239727   7.666   3.525   5.148
13261TIP3    H139728   7.719   3.447   5.165
13261TIP3    H239729   7.668   3.535   5.053
13262TIP3   OH239730   0.691   5.365   2.156
13262TIP3    H139731   0.731   5.333   2.237
13262TIP3    H239732   0.675   5.285   2.105
13263TIP3   OH239733   5.928   3.007   2.217
13263TIP3    H139734   6.004   3.045   2.261
13263TIP3    H239735   5.953   3.005   2.124
13264TIP3   OH239736   6.217   2.935   1.307
13264TIP3    H139737   6.309   2.961   1.304
13264TIP3    H239738   6.209   2.867   1.240
13265TIP3   OH239739   4.369   0.811   4.748
13265TIP3    H139740   4.386   0.849   4.835
13265TIP3    H239741   4.445   0.754   4.733
13266TIP3   OH239742   5.454   0.447   5.707
13266TIP3    H139743   5.400   0.384   5.659
13266TIP3    H239744   5.520   0.393   5.751
13267TIP3   OH239745   7.541   3.259   6.093
13267TIP3    H139746   7.460   3.208   6.082
13267TIP3    H239747   7.608   3.193   6.111
13268TIP3   OH239748   0.517   3.085   1.746
13268TIP3    H139749   0.538   3.064   1.837
13268TIP3    H239750   0.527   3.180   1.740
13269TIP3   OH239751   6.801   2.102   5.156
13269TIP3    H139752   6.739   2.034   5.182
13269TIP3    H239753   6.758   2.184   5.182
13270TIP3   OH239754   5.444   2.516   5.672
13270TIP3    H139755   5.467   2.512   5.765
13270TIP3    H239756   5.384   2.442   5.658
13271TIP3   OH239757   1.661   5.213   4.938
13271TIP3    H139758   1.590   5.276   4.949
13271TIP3    H239759   1.620   5.128   4.949
13272TIP3   OH239760   2.162   2.486   6.219
13272TIP3    H139761   2.104   2.547   6.265
13272TIP3    H239762   2.194   2.428   6.288
13273TIP3   OH239763   1.320   0.674   0.986
13273TIP3    H139764   1.237   0.650   0.943
13273TIP3    H239765   1.304   0.658   1.079
13274TIP3   OH239766   2.090   3.271   4.617
13274TIP3    H139767   2.103   3.204   4.684
13274TIP3    H239768   1.995   3.275   4.606
13275TIP3   OH239769   0.790   5.051   4.593
13275TIP3    H139770   0.826   5.130   4.633
13275TIP3    H239771   0.696   5.059   4.605
13276TIP3   OH239772   7.712   5.687   2.883
13276TIP3    H139773   7.723   5.749   2.955
13276TIP3    H239774   7.695   5.742   2.807
13277TIP3   OH239775   8.003   0.651   5.102
13277TIP3    H139776   8.080   0.620   5.150
13277TIP3    H239777   8.035   0.664   5.012
13278TIP3   OH239778   3.696   7.263   0.013
13278TIP3    H139779   3.664   7.257   0.103
13278TIP3    H239780   3.771   7.322   0.018
13279TIP3   OH239781   1.735   0.124   0.984
13279TIP3    H139782   1.675   0.198   0.980
13279TIP3    H239783   1.744   0.095   0.893
13280TIP3   OH239784   6.712   2.271   1.680
13280TIP3    H139785   6.674   2.183   1.688
13280TIP3    H239786   6.650   2.328   1.726
13281TIP3   OH239787   7.795   0.230   0.373
13281TIP3    H139788   7.743   0.249   0.451
13281TIP3    H239789   7.864   0.171   0.404
13282TIP3   OH239790   2.876   1.536   1.223
13282TIP3    H139791   2.942   1.605   1.229
13282TIP3    H239792   2.925   1.455   1.236
13283TIP3   OH239793   4.501   2.514   5.742
13283TIP3    H139794   4.451   2.574   5.687
13283TIP3    H239795   4.457   2.430   5.733
13284TIP3   OH239796   7.609   5.567   3.520
13284TIP3    H139797   7.655   5.556   3.436
13284TIP3    H239798   7.668   5.528   3.585
13285TIP3   OH239799   6.394   0.308   3.994
13285TIP3    H139800   6.468   0.254   3.968
13285TIP3    H239801   6.343   0.317   3.913
13286TIP3   OH239802   7.340   5.494   1.563
13286TIP3    H139803   7.350   5.522   1.472
13286TIP3    H239804   7.430   5.484   1.595
13287TIP3   OH239805   0.091   6.013   0.575
13287TIP3    H139806   0.161   6.039   0.516
13287TIP3    H239807   0.025   6.082   0.565
13288TIP3   OH239808   7.975   7.260   6.487
13288TIP3    H139809   8.046   7.292   6.431
13288TIP3    H239810   7.969   7.166   6.467
13289TIP3   OH239811   0.523   0.690   4.880
13289TIP3    H139812   0.561   0.602   4.876
13289TIP3    H239813   0.565   0.738   4.809
13290TIP3   OH239814   2.933   0.235   2.170
13290TIP3    H139815   3.026   0.219   2.157
13290TIP3    H239816   2.889   0.168   2.118
13291TIP3   OH239817   2.203   7.156   1.563
13291TIP3    H139818   2.171   7.170   1.474
13291TIP3    H239819   2.137   7.198   1.620
13292TIP3   OH239820   3.425   5.151   4.975
13292TIP3    H139821   3.441   5.201   5.055
13292TIP3    H239822   3.393   5.216   4.912
13293TIP3   OH239823   2.133   1.643   4.541
13293TIP3    H139824   2.038   1.638   4.555
13293TIP3    H239825   2.167   1.561   4.577
13294TIP3   OH239826   4.230   2.453   5.212
13294TIP3    H139827   4.239   2.478   5.304
13294TIP3    H239828   4.263   2.529   5.164
13295TIP3   OH239829   4.819   3.875   2.918
13295TIP3    H139830   4.783   3.951   2.963
13295TIP3    H239831   4.890   3.845   2.975
13296TIP3   OH239832   5.850   5.349   2.615
13296TIP3    H139833   5.758   5.376   2.624
13296TIP3    H239834   5.900   5.423   2.652
13297TIP3   OH239835   1.229   3.667   6.107
13297TIP3    H139836   1.205   3.757   6.086
13297TIP3    H239837   1.196   3.615   6.034
13298TIP3   OH239838   0.122   0.018   2.943
13298TIP3    H139839   0.134   0.029   2.849
13298TIP3    H239840   0.210   0.006   2.978
13299TIP3   OH239841   0.893   4.609   1.532
13299TIP3    H139842   0.939   4.538   1.577
13299TIP3    H239843   0.911   4.686   1.586
13300TIP3   OH239844   6.166   4.079   1.264
13300TIP3    H139845   6.101   4.096   1.332
13300TIP3    H239846   6.249   4.070   1.310
13301TIP3   OH239847   7.583   6.180   4.920
13301TIP3    H139848   7.553   6.239   4.851
13301TIP3    H239849   7.508   6.124   4.938
13302TIP3   OH239850   5.548   7.278   3.868
13302TIP3    H139851   5.467   7.321   3.841
13302TIP3    H239852   5.610   7.350   3.881
13303TIP3   OH239853   4.063   6.575   0.662
13303TIP3    H139854   4.113   6.514   0.608
13303TIP3    H239855   3.992   6.523   0.699
13304TIP3   OH239856   2.402   2.987   0.963
13304TIP3    H139857   2.353   2.912   0.927
13304TIP3    H239858   2.406   3.050   0.890
13305TIP3   OH239859   4.362   3.684   6.412
13305TIP3    H139860   4.417   3.665   6.488
13305TIP3    H239861   4.416   3.659   6.337
13306TIP3   OH239862   7.124   3.781   0.740
13306TIP3    H139863   7.064   3.738   0.800
13306TIP3    H239864   7.136   3.718   0.668
13307TIP3   OH239865   5.077   1.645   6.188
13307TIP3    H139866   5.088   1.553   6.163
13307TIP3    H239867   5.162   1.685   6.173
13308TIP3   OH239868   6.656   2.465   0.678
13308TIP3    H139869   6.694   2.546   0.710
13308TIP3    H239870   6.586   2.492   0.619
13309TIP3   OH239871   1.713   6.380   2.574
13309TIP3    H139872   1.789   6.407   2.626
13309TIP3    H239873   1.688   6.458   2.526
13310TIP3   OH239874   2.150   2.982   1.329
13310TIP3    H139875   2.101   2.971   1.247
13310TIP3    H239876   2.197   3.065   1.318
13311TIP3   OH239877   7.994   6.631   3.309
13311TIP3    H139878   7.989   6.726   3.321
13311TIP3    H239879   8.045   6.600   3.384
13312TIP3   OH239880   5.321   4.949   5.126
13312TIP3    H139881   5.298   4.960   5.034
13312TIP3    H239882   5.365   5.031   5.149
13313TIP3   OH239883   3.353   5.572   4.339
13313TIP3    H139884   3.366   5.667   4.329
13313TIP3    H239885   3.384   5.536   4.256
13314TIP3   OH239886   3.777   0.999   5.709
13314TIP3    H139887   3.856   1.051   5.693
13314TIP3    H239888   3.768   0.944   5.631
13315TIP3   OH239889   3.138   0.432   5.497
13315TIP3    H139890   3.201   0.481   5.549
13315TIP3    H239891   3.053   0.462   5.528
13316TIP3   OH239892   0.648   0.294   1.709
13316TIP3    H139893   0.592   0.335   1.643
13316TIP3    H239894   0.736   0.297   1.671
13317TIP3   OH239895   2.720   3.050   2.085
13317TIP3    H139896   2.752   2.997   2.012
13317TIP3    H239897   2.796   3.103   2.111
13318TIP3   OH239898   3.549   3.846   5.498
13318TIP3    H139899   3.500   3.789   5.439
13318TIP3    H239900   3.629   3.868   5.449
13319TIP3   OH239901   3.484   0.390   4.260
13319TIP3    H139902   3.478   0.384   4.356
13319TIP3    H239903   3.404   0.435   4.234
13320TIP3   OH239904   6.634   6.918   6.219
13320TIP3    H139905   6.634   7.013   6.232
13320TIP3    H239906   6.673   6.905   6.133
13321TIP3   OH239907   5.987   6.481   1.882
13321TIP3    H139908   5.904   6.504   1.922
13321TIP3    H239909   6.039   6.561   1.885
13322TIP3   OH239910   4.216   7.314   3.057
13322TIP3    H139911   4.196   7.221   3.072
13322TIP3    H239912   4.237   7.349   3.143
13323TIP3   OH239913   0.957   2.979   1.210
13323TIP3    H139914   0.931   3.048   1.271
13323TIP3    H239915   0.901   2.905   1.232
13324TIP3   OH239916   1.188   4.025   1.610
13324TIP3    H139917   1.165   4.118   1.601
13324TIP3    H239918   1.160   4.002   1.699
13325TIP3   OH239919   0.201   4.789   1.685
13325TIP3    H139920   0.250   4.864   1.719
13325TIP3    H239921   0.118   4.791   1.733
13326TIP3   OH239922   5.002   0.507   2.769
13326TIP3    H139923   4.975   0.501   2.677
13326TIP3    H239924   5.025   0.599   2.781
13327TIP3   OH239925   0.749   0.489   0.337
13327TIP3    H139926   0.842   0.477   0.316
13327TIP3    H239927   0.748   0.528   0.424
13328TIP3   OH239928   2.204   1.887   1.635
13328TIP3    H139929   2.226   1.798   1.610
13328TIP3    H239930   2.288   1.931   1.643
13329TIP3   OH239931   5.155   2.184   4.689
13329TIP3    H139932   5.136   2.119   4.757
13329TIP3    H239933   5.141   2.137   4.607
13330TIP3   OH239934   4.598   5.423   2.460
13330TIP3    H139935   4.601   5.484   2.386
13330TIP3    H239936   4.600   5.337   2.419
13331TIP3   OH239937   7.366   6.606   4.811
13331TIP3    H139938   7.435   6.607   4.878
13331TIP3    H239939   7.284   6.601   4.861
13332TIP3   OH239940   3.676   2.601   6.575
13332TIP3    H139941   3.749   2.599   6.638
13332TIP3    H239942   3.708   2.655   6.503
13333TIP3   OH239943   3.711   1.612   3.326
13333TIP3    H139944   3.665   1.530   3.342
13333TIP3    H239945   3.797   1.600   3.366
13334TIP3   OH239946   2.200   6.915   6.042
13334TIP3    H139947   2.265   6.961   6.095
13334TIP3    H239948   2.180   6.975   5.970
13335TIP3   OH239949   3.692   3.682   2.839
13335TIP3    H139950   3.625   3.737   2.879
13335TIP3    H239951   3.722   3.626   2.910
13336TIP3   OH239952   6.883   6.788   1.358
13336TIP3    H139953   6.794   6.812   1.384
13336TIP3    H239954   6.915   6.865   1.311
13337TIP3   OH239955   2.841   3.817   1.467
13337TIP3    H139956   2.903   3.826   1.396
13337TIP3    H239957   2.851   3.897   1.519
13338TIP3   OH239958   3.656   2.644   0.387
13338TIP3    H139959   3.740   2.597   0.381
13338TIP3    H239960   3.680   2.736   0.376
13339TIP3   OH239961   3.148   0.367   4.444
13339TIP3    H139962   3.148   0.396   4.535
13339TIP3    H239963   3.193   0.283   4.445
13340TIP3   OH239964   7.551   7.333   4.894
13340TIP3    H139965   7.535   7.337   4.988
13340TIP3    H239966   7.646   7.324   4.886
13341TIP3   OH239967   4.536   6.569   3.412
13341TIP3    H139968   4.520   6.620   3.333
13341TIP3    H239969   4.523   6.478   3.385
13342TIP3   OH239970   2.442   2.387   1.129
13342TIP3    H139971   2.448   2.354   1.219
13342TIP3    H239972   2.515   2.448   1.121
13343TIP3   OH239973   3.712   5.083   2.782
13343TIP3    H139974   3.749   5.149   2.724
13343TIP3    H239975   3.723   5.119   2.870
13344TIP3   OH239976   7.123   7.122   1.489
13344TIP3    H139977   7.136   7.187   1.559
13344TIP3    H239978   7.133   7.037   1.532
13345TIP3   OH239979   2.220   2.143   3.893
13345TIP3    H139980   2.238   2.100   3.809
13345TIP3    H239981   2.125   2.146   3.898
13346TIP3   OH239982   3.732   5.063   6.690
13346TIP3    H139983   3.804   5.089   6.633
13346TIP3    H239984   3.706   4.977   6.658
13347TIP3   OH239985   4.445   1.268   0.208
13347TIP3    H139986   4.540   1.274   0.203
13347TIP3    H239987   4.421   1.328   0.279
13348TIP3   OH239988   6.887   0.902   2.958
13348TIP3    H139989   6.914   0.861   2.876
13348TIP3    H239990   6.959   0.960   2.981
13349TIP3   OH239991   8.174   3.708   1.178
13349TIP3    H139992   8.103   3.649   1.202
13349TIP3    H239993   8.175   3.773   1.248
13350TIP3   OH239994   1.644   5.791   6.399
13350TIP3    H139995   1.609   5.716   6.447
13350TIP3    H239996   1.719   5.820   6.450
13351TIP3   OH239997   5.099   7.130   1.733
13351TIP3    H139998   5.178   7.184   1.738
13351TIP3    H239999   5.132   7.041   1.722
13352TIP3   OH240000   3.832   7.812   0.486
13352TIP3    H140001   3.787   7.769   0.414
13352TIP3    H240002   3.925   7.813   0.460
13353TIP3   OH240003   3.899   7.127   2.839
13353TIP3    H140004   3.812   7.161   2.820
13353TIP3    H240005   3.895   7.101   2.931
13354TIP3   OH240006   6.594   7.061   6.753
13354TIP3    H140007   6.616   6.995   6.687
13354TIP3    H240008   6.498   7.059   6.757
13355TIP3   OH240009   4.066   1.385   0.863
13355TIP3    H140010   4.151   1.421   0.887
13355TIP3    H240011   4.022   1.457   0.817
13356TIP3   OH240012   6.382   0.782   4.357
13356TIP3    H140013   6.462   0.746   4.395
13356TIP3    H240014   6.324   0.707   4.348
13357TIP3   OH240015   0.963   3.441   1.116
13357TIP3    H140016   0.903   3.374   1.083
13357TIP3    H240017   0.964   3.427   1.211
13358TIP3   OH240018   6.800   1.597   6.034
13358TIP3    H140019   6.741   1.589   5.959
13358TIP3    H240020   6.752   1.652   6.096
13359TIP3   OH240021   2.557   3.605   6.229
13359TIP3    H140022   2.553   3.584   6.136
13359TIP3    H240023   2.558   3.700   6.232
13360TIP3   OH240024   5.701   4.837   4.884
13360TIP3    H140025   5.648   4.779   4.938
13360TIP3    H240026   5.752   4.888   4.947
13361TIP3   OH240027   1.729   7.388   2.379
13361TIP3    H140028   1.654   7.446   2.391
13361TIP3    H240029   1.690   7.301   2.366
13362TIP3   OH240030   6.202   2.392   2.184
13362TIP3    H140031   6.162   2.305   2.177
13362TIP3    H240032   6.230   2.399   2.275
13363TIP3   OH240033   6.855   3.239   0.701
13363TIP3    H140034   6.807   3.266   0.622
13363TIP3    H240035   6.791   3.191   0.753
13364TIP3   OH240036   6.361   2.860   2.830
13364TIP3    H140037   6.355   2.817   2.915
13364TIP3    H240038   6.439   2.915   2.835
13365TIP3   OH240039   2.228   1.596   5.097
13365TIP3    H140040   2.314   1.637   5.107
13365TIP3    H240041   2.171   1.666   5.065
13366TIP3   OH240042   5.818   5.840   4.793
13366TIP3    H140043   5.907   5.824   4.761
13366TIP3    H240044   5.772   5.878   4.718
13367TIP3   OH240045   2.178   3.317   2.799
13367TIP3    H140046   2.227   3.307   2.718
13367TIP3    H240047   2.241   3.353   2.861
13368TIP3   OH240048   3.329   4.624   5.700
13368TIP3    H140049   3.409   4.607   5.651
13368TIP3    H240050   3.359   4.669   5.779
13369TIP3   OH240051   2.210   4.825   3.560
13369TIP3    H140052   2.115   4.839   3.570
13369TIP3    H240053   2.242   4.820   3.650
13370TIP3   OH240054   4.654   2.405   2.644
13370TIP3    H140055   4.562   2.393   2.621
13370TIP3    H240056   4.700   2.396   2.560
13371TIP3   OH240057   5.071   2.810   5.636
13371TIP3    H140058   5.022   2.793   5.716
13371TIP3    H240059   5.016   2.775   5.566
13372TIP3   OH240060   2.472   3.918   3.161
13372TIP3    H140061   2.426   3.979   3.219
13372TIP3    H240062   2.563   3.919   3.192
13373TIP3   OH240063   2.108   6.405   2.034
13373TIP3    H140064   2.171   6.337   2.056
13373TIP3    H240065   2.115   6.414   1.939
13374TIP3   OH240066   6.399   6.934   5.438
13374TIP3    H140067   6.371   6.940   5.530
13374TIP3    H240068   6.495   6.939   5.442
13375TIP3   OH240069   0.633   7.435   6.001
13375TIP3    H140070   0.574   7.484   5.944
13375TIP3    H240071   0.717   7.436   5.955
13376TIP3   OH240072   7.539   2.999   0.671
13376TIP3    H140073   7.568   2.936   0.606
13376TIP3    H240074   7.539   3.083   0.625
13377TIP3   OH240075   1.309   1.496   3.560
13377TIP3    H140076   1.248   1.473   3.490
13377TIP3    H240077   1.381   1.542   3.516
13378TIP3   OH240078   2.274   3.991   5.686
13378TIP3    H140079   2.274   4.049   5.763
13378TIP3    H240080   2.321   4.040   5.619
13379TIP3   OH240081   0.242   6.034   3.141
13379TIP3    H140082   0.193   5.956   3.166
13379TIP3    H240083   0.176   6.099   3.119
13380TIP3   OH240084   5.205   5.076   2.422
13380TIP3    H140085   5.230   5.098   2.512
13380TIP3    H240086   5.141   5.005   2.432
13381TIP3   OH240087   5.196   4.645   0.956
13381TIP3    H140088   5.133   4.638   0.884
13381TIP3    H240089   5.152   4.701   1.021
13382TIP3   OH240090   3.026   6.247   0.215
13382TIP3    H140091   2.961   6.317   0.217
13382TIP3    H240092   3.091   6.277   0.151
13383TIP3   OH240093   1.092   1.624   6.226
13383TIP3    H140094   1.054   1.709   6.250
13383TIP3    H240095   1.182   1.629   6.259
13384TIP3   OH240096   6.823   3.572   5.844
13384TIP3    H140097   6.849   3.663   5.828
13384TIP3    H240098   6.727   3.574   5.840
13385TIP3   OH240099   1.515   2.189   0.592
13385TIP3    H140100   1.482   2.218   0.507
13385TIP3    H240101   1.534   2.270   0.639
13386TIP3   OH240102   7.326   0.067   0.975
13386TIP3    H140103   7.401   0.032   0.928
13386TIP3    H240104   7.256   0.004   0.959
13387TIP3   OH240105   6.326   4.463   0.043
13387TIP3    H140106   6.339   4.440  -0.049
13387TIP3    H240107   6.373   4.396   0.091
13388TIP3   OH240108   6.642   7.527   5.918
13388TIP3    H140109   6.639   7.475   5.998
13388TIP3    H240110   6.551   7.553   5.904
13389TIP3   OH240111   0.869   3.273   2.896
13389TIP3    H140112   0.901   3.202   2.840
13389TIP3    H240113   0.850   3.344   2.835
13390TIP3   OH240114   3.648   4.461   3.118
13390TIP3    H140115   3.694   4.500   3.193
13390TIP3    H240116   3.618   4.376   3.150
13391TIP3   OH240117   7.773   7.529   2.400
13391TIP3    H140118   7.708   7.528   2.470
13391TIP3    H240119   7.849   7.572   2.438
13392TIP3   OH240120   3.588   7.231   3.038
13392TIP3    H140121   3.673   7.188   3.038
13392TIP3    H240122   3.581   7.272   2.952
13393TIP3   OH240123   8.244   5.681   5.291
13393TIP3    H140124   8.200   5.682   5.376
13393TIP3    H240125   8.174   5.666   5.228
13394TIP3   OH240126   6.647   1.267   6.317
13394TIP3    H140127   6.659   1.291   6.226
13394TIP3    H240128   6.579   1.327   6.349
13395TIP3   OH240129   1.378   2.035   1.958
13395TIP3    H140130   1.440   2.077   2.018
13395TIP3    H240131   1.377   1.943   1.985
13396TIP3   OH240132   5.782   4.998   2.273
13396TIP3    H140133   5.799   4.986   2.179
13396TIP3    H240134   5.781   5.093   2.284
13397TIP3   OH240135   7.382   2.000   1.068
13397TIP3    H140136   7.352   1.928   1.013
13397TIP3    H240137   7.436   1.958   1.135
13398TIP3   OH240138   1.225   6.820   0.849
13398TIP3    H140139   1.154   6.862   0.898
13398TIP3    H240140   1.208   6.846   0.758
13399TIP3   OH240141   5.757   0.810   4.485
13399TIP3    H140142   5.803   0.733   4.519
13399TIP3    H240143   5.820   0.882   4.493
13400TIP3   OH240144   6.553   3.221   4.431
13400TIP3    H140145   6.608   3.177   4.496
13400TIP3    H240146   6.506   3.149   4.388
13401TIP3   OH240147   0.853   2.342   2.496
13401TIP3    H140148   0.870   2.262   2.547
13401TIP3    H240149   0.818   2.404   2.561
13402TIP3   OH240150   7.057   6.703   4.202
13402TIP3    H140151   7.098   6.620   4.224
13402TIP3    H240152   7.013   6.687   4.119
13403TIP3   OH240153   4.755   7.124   1.212
13403TIP3    H140154   4.779   7.045   1.164
13403TIP3    H240155   4.724   7.091   1.297
13404TIP3   OH240156   4.913   5.670   2.788
13404TIP3    H140157   5.001   5.660   2.751
13404TIP3    H240158   4.881   5.580   2.798
13405TIP3   OH240159   6.405   5.489   0.978
13405TIP3    H140160   6.441   5.550   1.043
13405TIP3    H240161   6.393   5.407   1.025
13406TIP3   OH240162   5.431   5.548   3.244
13406TIP3    H140163   5.349   5.568   3.289
13406TIP3    H240164   5.417   5.461   3.206
13407TIP3   OH240165   8.023   4.610   3.289
13407TIP3    H140166   8.011   4.521   3.322
13407TIP3    H240167   8.113   4.611   3.255
13408TIP3   OH240168   1.395   5.066   3.880
13408TIP3    H140169   1.397   5.001   3.810
13408TIP3    H240170   1.304   5.065   3.911
13409TIP3   OH240171   3.249   7.448   1.798
13409TIP3    H140172   3.241   7.506   1.723
13409TIP3    H240173   3.337   7.465   1.833
13410TIP3   OH240174   1.819   4.976   0.174
13410TIP3    H140175   1.792   4.906   0.234
13410TIP3    H240176   1.905   4.949   0.144
13411TIP3   OH240177   1.955   0.673   6.660
13411TIP3    H140178   2.010   0.704   6.732
13411TIP3    H240179   1.874   0.723   6.669
13412TIP3   OH240180   4.641   6.262   1.632
13412TIP3    H140181   4.698   6.192   1.601
13412TIP3    H240182   4.579   6.218   1.690
13413TIP3   OH240183   3.164   2.178   2.209
13413TIP3    H140184   3.235   2.212   2.264
13413TIP3    H240185   3.161   2.084   2.229
13414TIP3   OH240186   5.361   0.260   5.529
13414TIP3    H140187   5.279   0.246   5.577
13414TIP3    H240188   5.415   0.185   5.554
13415TIP3   OH240189   1.593   5.846   2.459
13415TIP3    H140190   1.648   5.896   2.520
13415TIP3    H240191   1.507   5.844   2.501
13416TIP3   OH240192   4.440   7.813   2.704
13416TIP3    H140193   4.385   7.891   2.701
13416TIP3    H240194   4.385   7.744   2.667
13417TIP3   OH240195   5.437   5.882   1.431
13417TIP3    H140196   5.430   5.859   1.338
13417TIP3    H240197   5.348   5.905   1.457
13418TIP3   OH240198   1.313   1.462   3.136
13418TIP3    H140199   1.286   1.428   3.221
13418TIP3    H240200   1.230   1.480   3.091
13419TIP3   OH240201   6.178   6.237   6.641
13419TIP3    H140202   6.202   6.144   6.645
13419TIP3    H240203   6.088   6.240   6.673
13420TIP3   OH240204   1.997   6.933   1.045
13420TIP3    H140205   2.046   6.998   1.096
13420TIP3    H240206   1.992   6.971   0.957
13421TIP3   OH240207   4.081   5.497   1.805
13421TIP3    H140208   4.174   5.513   1.786
13421TIP3    H240209   4.037   5.577   1.776
13422TIP3   OH240210   4.373   3.355   1.081
13422TIP3    H140211   4.453   3.395   1.047
13422TIP3    H240212   4.400   3.268   1.111
13423TIP3   OH240213   7.403   4.053   5.967
13423TIP3    H140214   7.449   4.003   5.900
13423TIP3    H240215   7.390   3.991   6.039
13424TIP3   OH240216   5.157   3.770   5.305
13424TIP3    H140217   5.133   3.695   5.360
13424TIP3    H240218   5.238   3.744   5.263
13425TIP3   OH240219   2.690   7.044   1.610
13425TIP3    H140220   2.738   7.098   1.673
13425TIP3    H240221   2.611   7.095   1.590
13426TIP3   OH240222   0.318   6.189   0.770
13426TIP3    H140223   0.315   6.132   0.847
13426TIP3    H240224   0.407   6.179   0.736
13427TIP3   OH240225   1.891   3.867   3.213
13427TIP3    H140226   1.959   3.861   3.281
13427TIP3    H240227   1.819   3.815   3.248
13428TIP3   OH240228   1.705   4.140   0.004
13428TIP3    H140229   1.627   4.174   0.049
13428TIP3    H240230   1.751   4.090   0.071
13429TIP3   OH240231   3.376   6.002   1.753
13429TIP3    H140232   3.456   5.978   1.800
13429TIP3    H240233   3.374   5.944   1.677
13430TIP3   OH240234   0.592   4.954   2.292
13430TIP3    H140235   0.686   4.970   2.307
13430TIP3    H240236   0.549   5.035   2.321
13431TIP3   OH240237   5.629   0.969   0.223
13431TIP3    H140238   5.584   0.887   0.242
13431TIP3    H240239   5.716   0.958   0.261
13432TIP3   OH240240   3.515   5.796   5.059
13432TIP3    H140241   3.467   5.732   5.110
13432TIP3    H240242   3.481   5.786   4.970
13433TIP3   OH240243   3.513   0.083   1.594
13433TIP3    H140244   3.518   0.135   1.513
13433TIP3    H240245   3.605   0.066   1.617
13434TIP3   OH240246   6.773   3.286   1.131
13434TIP3    H140247   6.780   3.190   1.134
13434TIP3    H240248   6.684   3.302   1.100
13435TIP3   OH240249   3.818   0.694   5.373
13435TIP3    H140250   3.737   0.672   5.327
13435TIP3    H240251   3.888   0.666   5.314
13436TIP3   OH240252   5.838   2.662   0.989
13436TIP3    H140253   5.784   2.739   0.973
13436TIP3    H240254   5.926   2.696   1.004
13437TIP3   OH240255   7.546   0.449   5.115
13437TIP3    H140256   7.579   0.520   5.170
13437TIP3    H240257   7.624   0.398   5.092
13438TIP3   OH240258   3.245   1.572   2.909
13438TIP3    H140259   3.163   1.526   2.895
13438TIP3    H240260   3.301   1.509   2.954
13439TIP3   OH240261   3.029   0.786   4.732
13439TIP3    H140262   3.059   0.714   4.676
13439TIP3    H240263   3.091   0.857   4.716
13440TIP3   OH240264   6.831   5.948   3.894
13440TIP3    H140265   6.763   6.014   3.878
13440TIP3    H240266   6.910   5.986   3.856
13441TIP3   OH240267   5.546   0.500   4.368
13441TIP3    H140268   5.560   0.567   4.301
13441TIP3    H240269   5.453   0.503   4.387
13442TIP3   OH240270   0.280   6.571   2.269
13442TIP3    H140271   0.357   6.596   2.219
13442TIP3    H240272   0.260   6.647   2.323
13443TIP3   OH240273   8.173   6.268   5.666
13443TIP3    H140274   8.175   6.179   5.699
13443TIP3    H240275   8.244   6.313   5.712
13444TIP3   OH240276   0.481   4.484   4.454
13444TIP3    H140277   0.446   4.540   4.524
13444TIP3    H240278   0.514   4.546   4.388
13445TIP3   OH240279   6.389   0.614   6.743
13445TIP3    H140280   6.372   0.707   6.726
13445TIP3    H240281   6.306   0.581   6.776
13446TIP3   OH240282   7.243   6.994   6.156
13446TIP3    H140283   7.325   6.987   6.108
13446TIP3    H240284   7.205   6.906   6.153
13447TIP3   OH240285   2.621   2.635   1.094
13447TIP3    H140286   2.685   2.603   1.157
13447TIP3    H240287   2.594   2.720   1.129
13448TIP3   OH240288   8.170   5.170   6.762
13448TIP3    H140289   8.213   5.211   6.837
13448TIP3    H240290   8.233   5.107   6.729
13449TIP3   OH240291   6.654   3.337   0.525
13449TIP3    H140292   6.603   3.266   0.563
13449TIP3    H240293   6.588   3.399   0.492
13450TIP3   OH240294   2.620   7.402   0.800
13450TIP3    H140295   2.644   7.361   0.883
13450TIP3    H240296   2.590   7.490   0.824
13451TIP3   OH240297   7.203   7.622   2.280
13451TIP3    H140298   7.110   7.603   2.281
13451TIP3    H240299   7.245   7.539   2.259
13452TIP3   OH240300   7.009   6.694   3.676
13452TIP3    H140301   6.976   6.628   3.615
13452TIP3    H240302   6.935   6.753   3.689
13453TIP3   OH240303   7.144   5.794   0.948
13453TIP3    H140304   7.223   5.765   0.901
13453TIP3    H240305   7.072   5.751   0.902
13454TIP3   OH240306   6.489   6.690   6.277
13454TIP3    H140307   6.421   6.716   6.339
13454TIP3    H240308   6.539   6.770   6.261
13455TIP3   OH240309   3.095   4.872   2.002
13455TIP3    H140310   3.169   4.815   1.980
13455TIP3    H240311   3.118   4.957   1.964
13456TIP3   OH240312   2.891   3.140   0.294
13456TIP3    H140313   2.833   3.074   0.332
13456TIP3    H240314   2.843   3.172   0.217
13457TIP3   OH240315   0.620   5.168   5.524
13457TIP3    H140316   0.687   5.201   5.464
13457TIP3    H240317   0.587   5.089   5.482
13458TIP3   OH240318   1.756   0.762   5.291
13458TIP3    H140319   1.761   0.723   5.378
13458TIP3    H240320   1.791   0.850   5.302
13459TIP3   OH240321   8.295   5.281   2.177
13459TIP3    H140322   8.227   5.347   2.164
13459TIP3    H240323   8.272   5.238   2.260
13460TIP3   OH240324   1.493   2.104   3.272
13460TIP3    H140325   1.545   2.145   3.203
13460TIP3    H240326   1.429   2.171   3.296
13461TIP3   OH240327   5.937   3.231   5.825
13461TIP3    H140328   5.929   3.174   5.748
13461TIP3    H240329   5.905   3.179   5.898
13462TIP3   OH240330   1.825   1.439   4.925
13462TIP3    H140331   1.880   1.403   4.994
13462TIP3    H240332   1.767   1.500   4.969
13463TIP3   OH240333   4.446   0.203   4.697
13463TIP3    H140334   4.444   0.158   4.612
13463TIP3    H240335   4.532   0.244   4.701
13464TIP3   OH240336   6.699   7.200   6.140
13464TIP3    H140337   6.680   7.154   6.058
13464TIP3    H240338   6.792   7.183   6.156
13465TIP3   OH240339   2.229   4.709   2.365
13465TIP3    H140340   2.216   4.636   2.303
13465TIP3    H240341   2.158   4.700   2.428
13466TIP3   OH240342   4.163   1.627   2.560
13466TIP3    H140343   4.199   1.559   2.617
13466TIP3    H240344   4.236   1.688   2.547
13467TIP3   OH240345   3.383   3.022   3.664
13467TIP3    H140346   3.376   3.033   3.759
13467TIP3    H240347   3.293   3.022   3.633
13468TIP3   OH240348   5.268   4.094   0.237
13468TIP3    H140349   5.263   4.128   0.326
13468TIP3    H240350   5.210   4.018   0.237
13469TIP3   OH240351   8.193   2.795   3.291
13469TIP3    H140352   8.204   2.714   3.340
13469TIP3    H240353   8.233   2.778   3.206
13470TIP3   OH240354   6.739   0.982   5.510
13470TIP3    H140355   6.706   1.060   5.465
13470TIP3    H240356   6.669   0.917   5.499
13471TIP3   OH240357   1.527   3.161   0.235
13471TIP3    H140358   1.548   3.144   0.327
13471TIP3    H240359   1.519   3.256   0.230
13472TIP3   OH240360   3.962   2.685   0.466
13472TIP3    H140361   3.916   2.687   0.382
13472TIP3    H240362   4.020   2.609   0.460
13473TIP3   OH240363   6.523   5.693   3.214
13473TIP3    H140364   6.474   5.721   3.292
13473TIP3    H240365   6.503   5.600   3.205
13474TIP3   OH240366   3.250   0.210   3.785
13474TIP3    H140367   3.261   0.152   3.710
13474TIP3    H240368   3.327   0.267   3.782
13475TIP3   OH240369   7.812   7.681   0.342
13475TIP3    H140370   7.870   7.611   0.310
13475TIP3    H240371   7.725   7.642   0.339
13476TIP3   OH240372   2.184   1.379   4.950
13476TIP3    H140373   2.096   1.373   4.988
13476TIP3    H240374   2.224   1.454   4.994
13477TIP3   OH240375   3.980   5.889   2.953
13477TIP3    H140376   3.904   5.898   2.895
13477TIP3    H240377   3.942   5.872   3.040
13478TIP3   OH240378   3.302   0.141   4.439
13478TIP3    H140379   3.390   0.151   4.476
13478TIP3    H240380   3.316   0.135   4.344
13479TIP3   OH240381   6.015   5.189   5.627
13479TIP3    H140382   6.039   5.282   5.628
13479TIP3    H240383   6.082   5.147   5.681
13480TIP3   OH240384   8.009   5.033   5.472
13480TIP3    H140385   7.925   5.032   5.427
13480TIP3    H240386   7.993   4.988   5.555
13481TIP3   OH240387   6.105   2.002   4.001
13481TIP3    H140388   6.128   1.993   4.094
13481TIP3    H240389   6.038   1.936   3.986
13482TIP3   OH240390   1.179   5.090   5.729
13482TIP3    H140391   1.115   5.147   5.685
13482TIP3    H240392   1.165   5.106   5.822
13483TIP3   OH240393   1.803   7.743   3.453
13483TIP3    H140394   1.736   7.732   3.521
13483TIP3    H240395   1.753   7.760   3.373
13484TIP3   OH240396   6.183   3.237   5.302
13484TIP3    H140397   6.108   3.256   5.358
13484TIP3    H240398   6.217   3.153   5.334
13485TIP3   OH240399   3.575   7.707   0.261
13485TIP3    H140400   3.663   7.672   0.274
13485TIP3    H240401   3.530   7.642   0.208
13486TIP3   OH240402   4.320   7.723   1.925
13486TIP3    H140403   4.316   7.689   2.015
13486TIP3    H240404   4.263   7.663   1.875
13487TIP3   OH240405   4.133   4.160   1.990
13487TIP3    H140406   4.075   4.178   1.916
13487TIP3    H240407   4.221   4.154   1.951
13488TIP3   OH240408   8.119   6.865   1.265
13488TIP3    H140409   8.108   6.797   1.199
13488TIP3    H240410   8.124   6.947   1.215
13489TIP3   OH240411   6.616   3.331   0.030
13489TIP3    H140412   6.576   3.338   0.117
13489TIP3    H240413   6.694   3.386   0.034
13490TIP3   OH240414   2.013   0.579   5.245
13490TIP3    H140415   2.036   0.672   5.255
13490TIP3    H240416   2.058   0.536   5.318
13491TIP3   OH240417   2.170   4.513   5.136
13491TIP3    H140418   2.260   4.490   5.115
13491TIP3    H240419   2.177   4.570   5.213
13492TIP3   OH240420   4.368   0.814   5.052
13492TIP3    H140421   4.399   0.739   5.103
13492TIP3    H240422   4.308   0.860   5.110
13493TIP3   OH240423   3.924   6.910   1.994
13493TIP3    H140424   3.980   6.864   1.932
13493TIP3    H240425   3.843   6.859   1.994
13494TIP3   OH240426   6.475   6.756   1.128
13494TIP3    H140427   6.516   6.686   1.179
13494TIP3    H240428   6.544   6.821   1.116
13495TIP3   OH240429   5.126   3.749   2.269
13495TIP3    H140430   5.139   3.755   2.175
13495TIP3    H240431   5.211   3.723   2.304
13496TIP3   OH240432   1.499   3.007   5.975
13496TIP3    H140433   1.568   2.946   6.001
13496TIP3    H240434   1.529   3.043   5.892
13497TIP3   OH240435   0.364   6.518   5.136
13497TIP3    H140436   0.293   6.458   5.112
13497TIP3    H240437   0.320   6.600   5.157
13498TIP3   OH240438   4.718   1.260   5.110
13498TIP3    H140439   4.702   1.177   5.065
13498TIP3    H240440   4.747   1.319   5.040
13499TIP3   OH240441  -0.040   1.050   6.564
13499TIP3    H140442   0.052   1.027   6.572
13499TIP3    H240443  -0.057   1.048   6.470
13500TIP3   OH240444   7.138   1.722   4.210
13500TIP3    H140445   7.207   1.704   4.147
13500TIP3    H240446   7.063   1.671   4.180
13501TIP3   OH240447   5.382   4.209   5.389
13501TIP3    H140448   5.454   4.263   5.355
13501TIP3    H240449   5.403   4.198   5.482
13502TIP3   OH240450   4.522   4.819   2.239
13502TIP3    H140451   4.534   4.801   2.146
13502TIP3    H240452   4.504   4.914   2.242
13503TIP3   OH240453   5.106   3.909   1.142
13503TIP3    H140454   5.014   3.883   1.143
13503TIP3    H240455   5.147   3.856   1.210
13504TIP3   OH240456   2.439   0.049   3.366
13504TIP3    H140457   2.390   0.131   3.356
13504TIP3    H240458   2.476   0.033   3.279
13505TIP3   OH240459   3.658   4.659   4.011
13505TIP3    H140460   3.642   4.605   4.088
13505TIP3    H240461   3.683   4.744   4.046
13506TIP3   OH240462   1.611   7.429   3.804
13506TIP3    H140463   1.557   7.363   3.848
13506TIP3    H240464   1.641   7.486   3.874
13507TIP3   OH240465   7.471   1.376   3.033
13507TIP3    H140466   7.376   1.360   3.034
13507TIP3    H240467   7.501   1.350   3.120
13508TIP3   OH240468   7.380   6.598   5.428
13508TIP3    H140469   7.295   6.597   5.473
13508TIP3    H240470   7.357   6.613   5.336
13509TIP3   OH240471   6.265   2.035   2.678
13509TIP3    H140472   6.183   2.004   2.641
13509TIP3    H240473   6.331   2.018   2.610
13510TIP3   OH240474   4.479   2.784   2.619
13510TIP3    H140475   4.532   2.710   2.588
13510TIP3    H240476   4.426   2.748   2.690
13511TIP3   OH240477   6.658   0.549   2.891
13511TIP3    H140478   6.682   0.546   2.798
13511TIP3    H240479   6.591   0.482   2.900
13512TIP3   OH240480   1.908   4.142   3.119
13512TIP3    H140481   1.967   4.164   3.191
13512TIP3    H240482   1.878   4.053   3.139
13513TIP3   OH240483   3.627   6.408   0.402
13513TIP3    H140484   3.641   6.379   0.312
13513TIP3    H240485   3.684   6.484   0.412
13514TIP3   OH240486   4.968   0.778   5.780
13514TIP3    H140487   5.057   0.748   5.799
13514TIP3    H240488   4.979   0.865   5.743
13515TIP3   OH240489   6.483   1.983   2.522
13515TIP3    H140490   6.508   1.974   2.431
13515TIP3    H240491   6.529   1.913   2.567
13516TIP3   OH240492   4.709   0.125   3.166
13516TIP3    H140493   4.686   0.188   3.098
13516TIP3    H240494   4.627   0.080   3.185
13517TIP3   OH240495   6.903   5.880   2.867
13517TIP3    H140496   6.829   5.822   2.852
13517TIP3    H240497   6.872   5.940   2.935
13518TIP3   OH240498   0.090   1.295   5.851
13518TIP3    H140499   0.167   1.299   5.907
13518TIP3    H240500   0.126   1.299   5.762
13519TIP3   OH240501   0.947   1.691   0.228
13519TIP3    H140502   0.923   1.601   0.207
13519TIP3    H240503   1.033   1.684   0.270
13520TIP3   OH240504   6.905   7.227   1.934
13520TIP3    H140505   6.944   7.142   1.912
13520TIP3    H240506   6.890   7.269   1.850
13521TIP3   OH240507   7.583   4.042   3.911
13521TIP3    H140508   7.521   4.068   3.843
13521TIP3    H240509   7.669   4.050   3.869
13522TIP3   OH240510   2.244   5.779   3.383
13522TIP3    H140511   2.187   5.814   3.451
13522TIP3    H240512   2.322   5.834   3.386
13523TIP3   OH240513   7.805   3.653   2.496
13523TIP3    H140514   7.745   3.586   2.461
13523TIP3    H240515   7.763   3.681   2.577
13524TIP3   OH240516   7.757   5.245   1.907
13524TIP3    H140517   7.780   5.327   1.863
13524TIP3    H240518   7.768   5.264   2.000
13525TIP3   OH240519   6.219   7.065   2.526
13525TIP3    H140520   6.219   7.142   2.469
13525TIP3    H240521   6.160   7.088   2.598
13526TIP3   OH240522   7.092   2.975   5.480
13526TIP3    H140523   7.009   2.929   5.469
13526TIP3    H240524   7.159   2.910   5.461
13527TIP3   OH240525   0.045   4.331   4.388
13527TIP3    H140526   0.080   4.410   4.429
13527TIP3    H240527   0.011   4.280   4.461
13528TIP3   OH240528   8.134   1.902   5.096
13528TIP3    H140529   8.058   1.933   5.048
13528TIP3    H240530   8.201   1.888   5.029
13529TIP3   OH240531   3.611   0.728   3.341
13529TIP3    H140532   3.666   0.807   3.340
13529TIP3    H240533   3.551   0.742   3.414
13530TIP3   OH240534   0.570   6.992   6.742
13530TIP3    H140535   0.646   7.024   6.694
13530TIP3    H240536   0.606   6.956   6.824
13531TIP3   OH240537   1.457   0.444   4.681
13531TIP3    H140538   1.435   0.534   4.661
13531TIP3    H240539   1.414   0.393   4.612
13532TIP3   OH240540   0.586   3.080   1.488
13532TIP3    H140541   0.495   3.074   1.460
13532TIP3    H240542   0.583   3.067   1.583
13533TIP3   OH240543   6.177   4.998   5.171
13533TIP3    H140544   6.114   4.949   5.118
13533TIP3    H240545   6.125   5.067   5.212
13534TIP3   OH240546   3.873   5.741   6.480
13534TIP3    H140547   3.944   5.677   6.471
13534TIP3    H240548   3.876   5.791   6.399
13535TIP3   OH240549   6.898   7.215   6.773
13535TIP3    H140550   6.886   7.239   6.681
13535TIP3    H240551   6.964   7.275   6.806
13536TIP3   OH240552   3.593   1.250   4.947
13536TIP3    H140553   3.499   1.229   4.949
13536TIP3    H240554   3.636   1.165   4.946
13537TIP3   OH240555   5.564   2.563   4.851
13537TIP3    H140556   5.540   2.652   4.826
13537TIP3    H240557   5.480   2.521   4.872
13538TIP3   OH240558   4.657   2.517   3.192
13538TIP3    H140559   4.586   2.551   3.246
13538TIP3    H240560   4.729   2.579   3.205
13539TIP3   OH240561   5.067   4.145   3.857
13539TIP3    H140562   5.142   4.091   3.831
13539TIP3    H240563   5.107   4.221   3.900
13540TIP3   OH240564   4.927   0.570   6.671
13540TIP3    H140565   4.854   0.563   6.609
13540TIP3    H240566   4.920   0.659   6.706
13541TIP3   OH240567   7.757   3.333   3.144
13541TIP3    H140568   7.773   3.261   3.084
13541TIP3    H240569   7.694   3.389   3.099
13542TIP3   OH240570   6.281   1.447   3.296
13542TIP3    H140571   6.281   1.528   3.245
13542TIP3    H240572   6.299   1.379   3.231
13543TIP3   OH240573   7.187   7.367   6.497
13543TIP3    H140574   7.181   7.280   6.457
13543TIP3    H240575   7.267   7.365   6.549
13544TIP3   OH240576   8.224   4.948   5.352
13544TIP3    H140577   8.233   4.853   5.352
13544TIP3    H240578   8.142   4.964   5.399
13545TIP3   OH240579   0.854   3.216   5.892
13545TIP3    H140580   0.833   3.130   5.929
13545TIP3    H240581   0.865   3.200   5.798
13546TIP3   OH240582   8.163   3.693   2.348
13546TIP3    H140583   8.149   3.742   2.429
13546TIP3    H240584   8.233   3.741   2.303
13547TIP3   OH240585   7.914   2.837   6.446
13547TIP3    H140586   7.917   2.804   6.536
13547TIP3    H240587   7.900   2.931   6.455
13548TIP3   OH240588   7.250   3.071   2.435
13548TIP3    H140589   7.297   3.153   2.451
13548TIP3    H240590   7.168   3.081   2.484
13549TIP3   OH240591   5.301   3.566   6.198
13549TIP3    H140592   5.221   3.576   6.250
13549TIP3    H240593   5.338   3.654   6.193
13550TIP3   OH240594   4.917   5.747   3.067
13550TIP3    H140595   4.912   5.728   2.973
13550TIP3    H240596   4.875   5.833   3.076
13551TIP3   OH240597   7.631   2.091   5.324
13551TIP3    H140598   7.668   2.034   5.256
13551TIP3    H240599   7.632   2.178   5.284
13552TIP3   OH240600   4.854   3.620   6.494
13552TIP3    H140601   4.939   3.662   6.481
13552TIP3    H240602   4.876   3.533   6.529
13553TIP3   OH240603   7.160   5.949   4.707
13553TIP3    H140604   7.240   5.897   4.701
13553TIP3    H240605   7.121   5.925   4.791
13554TIP3   OH240606   1.030   3.834   5.273
13554TIP3    H140607   1.018   3.897   5.202
13554TIP3    H240608   1.083   3.764   5.233
13555TIP3   OH240609   4.041   3.446   2.240
13555TIP3    H140610   4.089   3.467   2.160
13555TIP3    H240611   4.109   3.424   2.304
13556TIP3   OH240612   2.637   2.314   3.957
13556TIP3    H140613   2.566   2.272   4.005
13556TIP3    H240614   2.716   2.288   4.004
13557TIP3   OH240615   5.809   4.924   1.156
13557TIP3    H140616   5.715   4.908   1.143
13557TIP3    H240617   5.812   4.983   1.232
13558TIP3   OH240618   1.526   1.713   0.589
13558TIP3    H140619   1.491   1.729   0.502
13558TIP3    H240620   1.559   1.623   0.586
13559TIP3   OH240621   5.383   2.971   5.080
13559TIP3    H140622   5.366   3.052   5.128
13559TIP3    H240623   5.467   2.940   5.114
13560TIP3   OH240624   0.757   5.934   1.736
13560TIP3    H140625   0.712   5.853   1.758
13560TIP3    H240626   0.727   5.956   1.648
13561TIP3   OH240627   1.876   0.158   5.049
13561TIP3    H140628   1.914   0.079   5.011
13561TIP3    H240629   1.906   0.229   4.992
13562TIP3   OH240630   4.441   4.963   5.932
13562TIP3    H140631   4.379   5.002   5.994
13562TIP3    H240632   4.519   4.946   5.984
13563TIP3   OH240633   7.430   1.756   5.053
13563TIP3    H140634   7.371   1.694   5.096
13563TIP3    H240635   7.487   1.701   4.999
13564TIP3   OH240636   3.688   1.004   2.712
13564TIP3    H140637   3.680   1.011   2.807
13564TIP3    H240638   3.744   1.077   2.687
13565TIP3   OH240639   2.133   3.047   3.412
13565TIP3    H140640   2.097   3.125   3.454
13565TIP3    H240641   2.107   2.975   3.470
13566TIP3   OH240642   6.621   3.848   0.136
13566TIP3    H140643   6.561   3.918   0.162
13566TIP3    H240644   6.636   3.797   0.215
13567TIP3   OH240645   1.274   2.036   0.690
13567TIP3    H140646   1.261   2.115   0.743
13567TIP3    H240647   1.354   2.053   0.640
13568TIP3   OH240648   7.988   2.746   6.706
13568TIP3    H140649   7.934   2.673   6.734
13568TIP3    H240650   8.078   2.714   6.714
13569TIP3   OH240651   4.568   5.346   0.424
13569TIP3    H140652   4.533   5.284   0.360
13569TIP3    H240653   4.513   5.334   0.501
13570TIP3   OH240654   4.326   6.168   6.280
13570TIP3    H140655   4.279   6.159   6.197
13570TIP3    H240656   4.418   6.171   6.254
13571TIP3   OH240657   0.313   3.048   4.720
13571TIP3    H140658   0.310   2.961   4.759
13571TIP3    H240659   0.390   3.090   4.758
13572TIP3   OH240660   4.660   4.526   5.653
13572TIP3    H140661   4.599   4.591   5.688
13572TIP3    H240662   4.640   4.446   5.701
13573TIP3   OH240663   2.573   2.486   3.534
13573TIP3    H140664   2.581   2.416   3.598
13573TIP3    H240665   2.641   2.468   3.469
13574TIP3   OH240666   2.187   4.395   6.432
13574TIP3    H140667   2.178   4.463   6.498
13574TIP3    H240668   2.111   4.404   6.375
13575TIP3   OH240669   0.182   5.025   5.974
13575TIP3    H140670   0.161   5.118   5.976
13575TIP3    H240671   0.187   5.000   6.066
13576TIP3   OH240672   4.030   6.516   5.238
13576TIP3    H140673   4.125   6.501   5.242
13576TIP3    H240674   4.012   6.530   5.145
13577TIP3   OH240675   4.122   5.668   0.645
13577TIP3    H140676   4.103   5.589   0.697
13577TIP3    H240677   4.217   5.680   0.654
13578TIP3   OH240678   4.430   0.923   4.248
13578TIP3    H140679   4.493   0.995   4.243
13578TIP3    H240680   4.357   0.952   4.193
13579TIP3   OH240681   1.598   1.051   1.548
13579TIP3    H140682   1.536   0.983   1.573
13579TIP3    H240683   1.633   1.083   1.631
13580TIP3   OH240684   2.366   2.709   3.715
13580TIP3    H140685   2.370   2.688   3.622
13580TIP3    H240686   2.326   2.632   3.756
13581TIP3   OH240687   4.690   0.370   4.316
13581TIP3    H140688   4.614   0.313   4.325
13581TIP3    H240689   4.764   0.310   4.311
13582TIP3   OH240690   6.542   6.400   0.246
13582TIP3    H140691   6.536   6.478   0.190
13582TIP3    H240692   6.631   6.402   0.279
13583TIP3   OH240693   4.877   0.248   0.928
13583TIP3    H140694   4.827   0.313   0.877
13583TIP3    H240695   4.841   0.164   0.900
13584TIP3   OH240696   6.653   5.035   0.710
13584TIP3    H140697   6.612   4.976   0.772
13584TIP3    H240698   6.705   5.095   0.764
13585TIP3   OH240699   7.284   5.653   4.499
13585TIP3    H140700   7.359   5.698   4.538
13585TIP3    H240701   7.250   5.714   4.434
13586TIP3   OH240702   3.968   0.525   0.376
13586TIP3    H140703   4.060   0.500   0.370
13586TIP3    H240704   3.923   0.446   0.405
13587TIP3   OH240705   5.393   1.468   4.692
13587TIP3    H140706   5.378   1.392   4.636
13587TIP3    H240707   5.338   1.537   4.655
13588TIP3   OH240708   2.498   3.286   3.847
13588TIP3    H140709   2.558   3.212   3.857
13588TIP3    H240710   2.414   3.246   3.824
13589TIP3   OH240711   5.653   7.093   2.994
13589TIP3    H140712   5.604   7.015   3.019
13589TIP3    H240713   5.610   7.124   2.914
13590TIP3   OH240714   7.978   0.670   4.456
13590TIP3    H140715   8.000   0.763   4.460
13590TIP3    H240716   8.050   0.627   4.502
13591TIP3   OH240717   6.602   0.740   0.137
13591TIP3    H140718   6.561   0.668   0.090
13591TIP3    H240719   6.684   0.704   0.170
13592TIP3   OH240720   0.360   1.252   3.409
13592TIP3    H140721   0.449   1.244   3.377
13592TIP3    H240722   0.310   1.188   3.357
13593TIP3   OH240723   0.473   0.379   1.501
13593TIP3    H140724   0.452   0.346   1.414
13593TIP3    H240725   0.466   0.474   1.493
13594TIP3   OH240726   2.904   7.540   5.770
13594TIP3    H140727   2.901   7.559   5.864
13594TIP3    H240728   2.962   7.608   5.734
13595TIP3   OH240729   2.370   2.842   3.073
13595TIP3    H140730   2.380   2.812   3.163
13595TIP3    H240731   2.457   2.834   3.034
13596TIP3   OH240732   0.772   4.809   1.178
13596TIP3    H140733   0.693   4.840   1.221
13596TIP3    H240734   0.843   4.857   1.222
13597TIP3   OH240735   0.644   6.898   5.945
13597TIP3    H140736   0.662   6.984   5.985
13597TIP3    H240737   0.707   6.839   5.987
13598TIP3   OH240738   1.319   4.232   4.901
13598TIP3    H140739   1.336   4.217   4.808
13598TIP3    H240740   1.339   4.148   4.942
13599TIP3   OH240741   4.642   3.390   6.672
13599TIP3    H140742   4.620   3.411   6.762
13599TIP3    H240743   4.707   3.320   6.678
13600TIP3   OH240744   0.418   5.648   0.229
13600TIP3    H140745   0.409   5.555   0.208
13600TIP3    H240746   0.418   5.652   0.324
13601TIP3   OH240747   3.262   3.938   5.174
13601TIP3    H140748   3.344   3.921   5.128
13601TIP3    H240749   3.196   3.894   5.120
13602TIP3   OH240750   2.981   5.589   3.259
13602TIP3    H140751   3.059   5.577   3.204
13602TIP3    H240752   2.957   5.501   3.287
13603TIP3   OH240753   5.200   6.462   1.138
13603TIP3    H140754   5.257   6.387   1.160
13603TIP3    H240755   5.142   6.429   1.071
13604TIP3   OH240756   5.975   6.914   2.390
13604TIP3    H140757   5.892   6.917   2.342
13604TIP3    H240758   6.032   6.974   2.342
13605TIP3   OH240759   4.800   2.712   2.646
13605TIP3    H140760   4.792   2.620   2.622
13605TIP3    H240761   4.756   2.720   2.730
13606TIP3   OH240762   2.916   7.197   1.821
13606TIP3    H140763   2.942   7.106   1.838
13606TIP3    H240764   2.985   7.250   1.860
13607TIP3   OH240765   6.394   1.867   3.672
13607TIP3    H140766   6.417   1.922   3.747
13607TIP3    H240767   6.298   1.868   3.669
13608TIP3   OH240768   1.358   0.799   0.055
13608TIP3    H140769   1.337   0.892   0.044
13608TIP3    H240770   1.453   0.797   0.069
13609TIP3   OH240771   6.732   7.301   0.788
13609TIP3    H140772   6.805   7.313   0.850
13609TIP3    H240773   6.774   7.304   0.702
13610TIP3   OH240774   3.898   7.718   1.367
13610TIP3    H140775   3.888   7.792   1.306
13610TIP3    H240776   3.875   7.641   1.315
13611TIP3   OH240777   5.005   5.059   0.235
13611TIP3    H140778   4.994   5.148   0.266
13611TIP3    H240779   4.921   5.037   0.195
13612TIP3   OH240780   4.278   7.170   6.198
13612TIP3    H140781   4.369   7.145   6.183
13612TIP3    H240782   4.244   7.105   6.259
13613TIP3   OH240783   5.659   6.714   1.059
13613TIP3    H140784   5.578   6.665   1.053
13613TIP3    H240785   5.641   6.781   1.126
13614TIP3   OH240786   7.395   5.398   4.853
13614TIP3    H140787   7.429   5.316   4.816
13614TIP3    H240788   7.472   5.454   4.862
13615TIP3   OH240789   0.671   1.373   0.245
13615TIP3    H140790   0.755   1.407   0.275
13615TIP3    H240791   0.688   1.339   0.157
13616TIP3   OH240792   5.170   4.973   3.883
13616TIP3    H140793   5.107   4.901   3.894
13616TIP3    H240794   5.181   5.009   3.971
13617TIP3   OH240795   3.699   3.283   3.408
13617TIP3    H140796   3.660   3.363   3.443
13617TIP3    H240797   3.707   3.225   3.483
13618TIP3   OH240798   5.349   2.258   4.452
13618TIP3    H140799   5.333   2.339   4.403
13618TIP3    H240800   5.275   2.202   4.429
13619TIP3   OH240801   8.299   3.907   5.750
13619TIP3    H140802   8.208   3.910   5.778
13619TIP3    H240803   8.299   3.946   5.663
13620TIP3   OH240804   4.360   5.752   5.055
13620TIP3    H140805   4.365   5.775   5.148
13620TIP3    H240806   4.428   5.686   5.043
13621TIP3   OH240807   3.782   2.652   6.056
13621TIP3    H140808   3.818   2.634   5.969
13621TIP3    H240809   3.687   2.643   6.045
13622TIP3   OH240810   3.871   0.378   6.127
13622TIP3    H140811   3.857   0.413   6.038
13622TIP3    H240812   3.853   0.285   6.118
13623TIP3   OH240813   6.952   1.983   4.310
13623TIP3    H140814   6.901   2.004   4.389
13623TIP3    H240815   6.920   2.043   4.244
13624TIP3   OH240816   1.442   0.720   2.852
13624TIP3    H140817   1.402   0.764   2.928
13624TIP3    H240818   1.387   0.643   2.838
13625TIP3   OH240819   3.646   1.601   2.114
13625TIP3    H140820   3.617   1.531   2.172
13625TIP3    H240821   3.568   1.655   2.102
13626TIP3   OH240822   0.887   2.489   3.673
13626TIP3    H140823   0.864   2.404   3.635
13626TIP3    H240824   0.939   2.532   3.606
13627TIP3   OH240825   4.435   2.332   4.134
13627TIP3    H140826   4.400   2.318   4.222
13627TIP3    H240827   4.372   2.393   4.094
13628TIP3   OH240828   6.233   5.801   0.712
13628TIP3    H140829   6.212   5.827   0.802
13628TIP3    H240830   6.239   5.706   0.715
13629TIP3   OH240831   0.518   4.941   6.305
13629TIP3    H140832   0.514   4.868   6.368
13629TIP3    H240833   0.611   4.953   6.287
13630TIP3   OH240834   4.925   2.881   0.080
13630TIP3    H140835   4.862   2.945   0.046
13630TIP3    H240836   4.964   2.842   0.001
13631TIP3   OH240837   7.386   6.116   3.983
13631TIP3    H140838   7.435   6.034   3.990
13631TIP3    H240839   7.302   6.097   4.024
13632TIP3   OH240840   2.436   3.282   4.220
13632TIP3    H140841   2.484   3.252   4.142
13632TIP3    H240842   2.401   3.367   4.195
13633TIP3   OH240843   3.247   6.990   5.351
13633TIP3    H140844   3.255   7.034   5.435
13633TIP3    H240845   3.190   6.915   5.369
13634TIP3   OH240846   6.532   6.605   4.121
13634TIP3    H140847   6.579   6.676   4.165
13634TIP3    H240848   6.450   6.596   4.170
13635TIP3   OH240849   8.164   3.680   3.379
13635TIP3    H140850   8.228   3.612   3.401
13635TIP3    H240851   8.171   3.744   3.449
13636TIP3   OH240852   0.308   5.331   3.614
13636TIP3    H140853   0.291   5.423   3.633
13636TIP3    H240854   0.222   5.291   3.610
13637TIP3   OH240855   1.730   2.496   1.916
13637TIP3    H140856   1.718   2.579   1.869
13637TIP3    H240857   1.808   2.458   1.877
13638TIP3   OH240858   3.552   5.474   3.777
13638TIP3    H140859   3.568   5.526   3.855
13638TIP3    H240860   3.586   5.527   3.705
13639TIP3   OH240861   5.420   4.366   6.272
13639TIP3    H140862   5.468   4.290   6.239
13639TIP3    H240863   5.469   4.441   6.239
13640TIP3   OH240864   7.891   0.556   1.067
13640TIP3    H140865   7.845   0.574   1.149
13640TIP3    H240866   7.921   0.642   1.037
13641TIP3   OH240867   7.467   5.103   1.984
13641TIP3    H140868   7.507   5.115   2.071
13641TIP3    H240869   7.484   5.011   1.963
13642TIP3   OH240870   4.530   5.941   4.739
13642TIP3    H140871   4.570   5.948   4.826
13642TIP3    H240872   4.596   5.896   4.687
13643TIP3   OH240873   5.522   2.028   1.605
13643TIP3    H140874   5.513   2.075   1.523
13643TIP3    H240875   5.605   1.982   1.598
13644TIP3   OH240876   7.669   1.892   6.214
13644TIP3    H140877   7.686   1.939   6.295
13644TIP3    H240878   7.603   1.827   6.237
13645TIP3   OH240879   0.725   2.504   3.047
13645TIP3    H140880   0.772   2.421   3.055
13645TIP3    H240881   0.681   2.516   3.131
13646TIP3   OH240882   4.756   1.076   5.539
13646TIP3    H140883   4.766   1.021   5.461
13646TIP3    H240884   4.808   1.154   5.520
13647TIP3   OH240885   3.823   5.062   1.116
13647TIP3    H140886   3.735   5.037   1.144
13647TIP3    H240887   3.870   5.080   1.197
13648TIP3   OH240888   3.749   7.630   2.808
13648TIP3    H140889   3.762   7.563   2.741
13648TIP3    H240890   3.828   7.627   2.861
13649TIP3   OH240891   0.208   0.569   1.253
13649TIP3    H140892   0.298   0.572   1.284
13649TIP3    H240893   0.211   0.519   1.171
13650TIP3   OH240894   1.644   3.199   0.518
13650TIP3    H140895   1.717   3.258   0.497
13650TIP3    H240896   1.589   3.250   0.577
13651TIP3   OH240897   6.501   5.374   1.554
13651TIP3    H140898   6.408   5.353   1.560
13651TIP3    H240899   6.531   5.374   1.645
13652TIP3   OH240900   7.613   2.558   1.711
13652TIP3    H140901   7.519   2.575   1.704
13652TIP3    H240902   7.645   2.624   1.772
13653TIP3   OH240903   2.552   3.602   4.874
13653TIP3    H140904   2.581   3.573   4.788
13653TIP3    H240905   2.622   3.575   4.933
13654TIP3   OH240906   6.525   4.216   3.059
13654TIP3    H140907   6.493   4.268   3.133
13654TIP3    H240908   6.615   4.193   3.082
13655TIP3   OH240909   7.631   6.099   4.302
13655TIP3    H140910   7.681   6.017   4.304
13655TIP3    H240911   7.540   6.071   4.298
13656TIP3   OH240912   7.771   5.855   4.193
13656TIP3    H140913   7.829   5.855   4.269
13656TIP3    H240914   7.695   5.805   4.221
13657TIP3   OH240915   5.889   6.240   6.609
13657TIP3    H140916   5.804   6.203   6.586
13657TIP3    H240917   5.889   6.242   6.704
13658TIP3   OH240918   7.017   4.918   6.750
13658TIP3    H140919   7.029   4.989   6.686
13658TIP3    H240920   7.104   4.904   6.788
13659TIP3   OH240921   3.637   1.267   1.705
13659TIP3    H140922   3.581   1.333   1.664
13659TIP3    H240923   3.577   1.214   1.758
13660TIP3   OH240924   5.264   5.852   6.418
13660TIP3    H140925   5.327   5.786   6.448
13660TIP3    H240926   5.178   5.814   6.438
13661TIP3   OH240927  -0.006   3.690   1.869
13661TIP3    H140928   0.027   3.613   1.915
13661TIP3    H240929  -0.018   3.756   1.937
13662TIP3   OH240930   7.365   3.783   1.771
13662TIP3    H140931   7.282   3.775   1.817
13662TIP3    H240932   7.347   3.752   1.682
13663TIP3   OH240933   4.418   3.273   5.373
13663TIP3    H140934   4.338   3.221   5.385
13663TIP3    H240935   4.387   3.353   5.330
13664TIP3   OH240936   7.933   5.445   0.949
13664TIP3    H140937   7.955   5.522   0.898
13664TIP3    H240938   7.929   5.476   1.040
13665TIP3   OH240939   6.883   4.715   0.226
13665TIP3    H140940   6.839   4.639   0.187
13665TIP3    H240941   6.823   4.745   0.294
13666TIP3   OH240942   2.810   2.917   0.115
13666TIP3    H140943   2.863   2.863   0.057
13666TIP3    H240944   2.790   2.996   0.063
13667TIP3   OH240945   7.255   5.952   0.173
13667TIP3    H140946   7.349   5.935   0.177
13667TIP3    H240947   7.217   5.874   0.133
13668TIP3   OH240948   0.998   6.084   5.877
13668TIP3    H140949   1.034   6.124   5.956
13668TIP3    H240950   1.039   5.998   5.872
13669TIP3   OH240951   4.993   6.986   4.274
13669TIP3    H140952   4.957   7.033   4.349
13669TIP3    H240953   4.934   7.006   4.202
13670TIP3   OH240954   0.937   7.627   6.204
13670TIP3    H140955   0.990   7.593   6.131
13670TIP3    H240956   0.926   7.553   6.263
13671TIP3   OH240957   2.645   1.606   6.326
13671TIP3    H140958   2.667   1.697   6.347
13671TIP3    H240959   2.665   1.557   6.406
13672TIP3   OH240960   1.499   0.335   1.894
13672TIP3    H140961   1.440   0.349   1.821
13672TIP3    H240962   1.505   0.239   1.902
13673TIP3   OH240963   3.523   0.872   1.295
13673TIP3    H140964   3.606   0.825   1.287
13673TIP3    H240965   3.457   0.804   1.304
13674TIP3   OH240966   6.520   4.162   6.330
13674TIP3    H140967   6.551   4.107   6.402
13674TIP3    H240968   6.454   4.219   6.371
13675TIP3   OH240969   1.640   7.438   5.853
13675TIP3    H140970   1.572   7.371   5.853
13675TIP3    H240971   1.721   7.390   5.841
13676TIP3   OH240972   5.512   3.064   2.035
13676TIP3    H140973   5.574   3.032   1.969
13676TIP3    H240974   5.559   3.136   2.078
13677TIP3   OH240975   2.150   6.579   0.991
13677TIP3    H140976   2.242   6.569   1.015
13677TIP3    H240977   2.112   6.628   1.064
13678TIP3   OH240978   6.664   4.374   5.532
13678TIP3    H140979   6.680   4.313   5.605
13678TIP3    H240980   6.708   4.334   5.457
13679TIP3   OH240981   2.765   7.319   1.016
13679TIP3    H140982   2.771   7.388   1.083
13679TIP3    H240983   2.847   7.271   1.024
13680TIP3   OH240984   0.141   6.256   6.653
13680TIP3    H140985   0.084   6.262   6.730
13680TIP3    H240986   0.181   6.343   6.647
13681TIP3   OH240987   1.046   0.709   0.365
13681TIP3    H140988   1.034   0.618   0.340
13681TIP3    H240989   1.037   0.710   0.460
13682TIP3   OH240990   0.608   6.191   3.670
13682TIP3    H140991   0.553   6.241   3.609
13682TIP3    H240992   0.692   6.235   3.668
13683TIP3   OH240993   1.372   4.265   2.643
13683TIP3    H140994   1.383   4.349   2.599
13683TIP3    H240995   1.416   4.276   2.727
13684TIP3   OH240996   1.878   3.081   2.951
13684TIP3    H140997   1.941   3.117   3.013
13684TIP3    H240998   1.877   3.143   2.878
13685TIP3   OH240999   8.030   1.265   2.854
13685TIP3    H141000   7.946   1.232   2.885
13685TIP3    H241001   8.014   1.359   2.839
13686TIP3   OH241002   7.648   1.763   5.248
13686TIP3    H141003   7.609   1.683   5.282
13686TIP3    H241004   7.578   1.805   5.197
13687TIP3   OH241005   3.038   1.023   2.365
13687TIP3    H141006   2.976   1.062   2.304
13687TIP3    H241007   3.002   0.937   2.384
13688TIP3   OH241008   0.283   5.727   6.662
13688TIP3    H141009   0.274   5.821   6.647
13688TIP3    H241010   0.198   5.690   6.636
13689TIP3   OH241011   4.296   2.539   2.710
13689TIP3    H141012   4.259   2.610   2.657
13689TIP3    H241013   4.250   2.461   2.681
13690TIP3   OH241014   4.142   3.186   5.375
13690TIP3    H141015   4.134   3.179   5.470
13690TIP3    H241016   4.059   3.152   5.341
13691TIP3   OH241017   6.937   5.270   6.593
13691TIP3    H141018   6.895   5.215   6.526
13691TIP3    H241019   6.906   5.234   6.676
13692TIP3   OH241020   1.064   6.194   6.430
13692TIP3    H141021   1.096   6.282   6.447
13692TIP3    H241022   1.127   6.136   6.473
13693TIP3   OH241023   4.869   4.202   6.550
13693TIP3    H141024   4.962   4.226   6.546
13693TIP3    H241025   4.869   4.106   6.548
13694TIP3   OH241026   2.506   1.783   1.325
13694TIP3    H141027   2.513   1.828   1.240
13694TIP3    H241028   2.552   1.700   1.312
13695TIP3   OH241029   2.723   6.420   1.431
13695TIP3    H141030   2.705   6.427   1.337
13695TIP3    H241031   2.705   6.329   1.453
13696TIP3   OH241032   5.618   1.429   5.589
13696TIP3    H141033   5.577   1.382   5.517
13696TIP3    H241034   5.569   1.511   5.595
13697TIP3   OH241035   6.686   4.013   3.260
13697TIP3    H141036   6.763   4.009   3.203
13697TIP3    H241037   6.720   4.040   3.345
13698TIP3   OH241038   6.105   1.564   1.961
13698TIP3    H141039   6.134   1.639   1.910
13698TIP3    H241040   6.028   1.596   2.009
13699TIP3   OH241041   4.279   3.811   3.025
13699TIP3    H141042   4.202   3.766   2.989
13699TIP3    H241043   4.244   3.892   3.063
13700TIP3   OH241044   3.799   7.390   5.891
13700TIP3    H141045   3.733   7.369   5.957
13700TIP3    H241046   3.849   7.309   5.880
13701TIP3   OH241047   7.164   6.124   6.111
13701TIP3    H141048   7.200   6.161   6.031
13701TIP3    H241049   7.087   6.177   6.129
13702TIP3   OH241050   1.225   0.151   5.542
13702TIP3    H141051   1.320   0.153   5.542
13702TIP3    H241052   1.199   0.236   5.579
13703TIP3   OH241053   5.241   2.061   5.216
13703TIP3    H141054   5.167   2.112   5.251
13703TIP3    H241055   5.213   2.037   5.128
13704TIP3   OH241056   4.393   4.657   4.342
13704TIP3    H141057   4.390   4.562   4.331
13704TIP3    H241058   4.414   4.670   4.435
13705TIP3   OH241059   0.835   1.218   2.992
13705TIP3    H141060   0.756   1.184   3.033
13705TIP3    H241061   0.839   1.310   3.018
13706TIP3   OH241062   0.411   6.439   4.020
13706TIP3    H141063   0.453   6.353   4.020
13706TIP3    H241064   0.458   6.488   4.088
13707TIP3   OH241065   7.970   2.586   2.215
13707TIP3    H141066   7.944   2.669   2.254
13707TIP3    H241067   8.049   2.560   2.262
13708TIP3   OH241068   1.978   2.759   4.330
13708TIP3    H141069   1.971   2.809   4.249
13708TIP3    H241070   1.892   2.767   4.372
13709TIP3   OH241071   5.854   0.674   0.472
13709TIP3    H141072   5.921   0.609   0.452
13709TIP3    H241073   5.791   0.627   0.526
13710TIP3   OH241074   2.129   0.202   6.024
13710TIP3    H141075   2.195   0.190   6.092
13710TIP3    H241076   2.126   0.297   6.011
13711TIP3   OH241077   8.150   1.272   4.231
13711TIP3    H141078   8.242   1.299   4.227
13711TIP3    H241079   8.153   1.177   4.242
13712TIP3   OH241080   7.746   6.200   6.397
13712TIP3    H141081   7.780   6.190   6.486
13712TIP3    H241082   7.794   6.134   6.346
13713TIP3   OH241083   7.286   7.430   1.219
13713TIP3    H141084   7.336   7.463   1.293
13713TIP3    H241085   7.302   7.493   1.149
13714TIP3   OH241086   5.230   2.870   5.380
13714TIP3    H141087   5.265   2.959   5.375
13714TIP3    H241088   5.135   2.881   5.380
13715TIP3   OH241089   5.915   1.348   0.920
13715TIP3    H141090   5.904   1.414   0.851
13715TIP3    H241091   5.867   1.272   0.888
13716TIP3   OH241092   6.546   6.360   4.336
13716TIP3    H141093   6.459   6.328   4.361
13716TIP3    H241094   6.566   6.313   4.255
13717TIP3   OH241095   1.414   5.483   4.488
13717TIP3    H141096   1.367   5.474   4.571
13717TIP3    H241097   1.374   5.559   4.446
13718TIP3   OH241098   3.368   1.575   1.284
13718TIP3    H141099   3.426   1.634   1.235
13718TIP3    H241100   3.363   1.614   1.371
13719TIP3   OH241101   6.712   4.652   5.482
13719TIP3    H141102   6.794   4.694   5.457
13719TIP3    H241103   6.732   4.559   5.485
13720TIP3   OH241104   3.858   6.986   4.887
13720TIP3    H141105   3.911   7.050   4.935
13720TIP3    H241106   3.808   7.038   4.825
13721TIP3   OH241107   2.069   2.402   3.906
13721TIP3    H141108   2.136   2.335   3.891
13721TIP3    H241109   2.074   2.421   4.000
13722TIP3   OH241110   1.100   1.456   1.079
13722TIP3    H141111   1.124   1.531   1.133
13722TIP3    H241112   1.177   1.440   1.024
13723TIP3   OH241113   8.055   0.012   6.695
13723TIP3    H141114   7.994  -0.053   6.730
13723TIP3    H241115   8.016   0.096   6.718
13724TIP3   OH241116   1.832   4.433   2.161
13724TIP3    H141117   1.741   4.446   2.135
13724TIP3    H241118   1.883   4.478   2.094
13725TIP3   OH241119   4.323   0.104   3.458
13725TIP3    H141120   4.279   0.036   3.509
13725TIP3    H241121   4.383   0.146   3.521
13726TIP3   OH241122   0.949   3.753   6.615
13726TIP3    H141123   0.878   3.816   6.598
13726TIP3    H241124   1.029   3.806   6.609
13727TIP3   OH241125   4.155   1.155   3.574
13727TIP3    H141126   4.189   1.234   3.615
13727TIP3    H241127   4.221   1.130   3.510
13728TIP3   OH241128   2.118   1.665   5.863
13728TIP3    H141129   2.169   1.646   5.942
13728TIP3    H241130   2.169   1.625   5.792
13729TIP3   OH241131   2.461   7.418   1.302
13729TIP3    H141132   2.533   7.475   1.329
13729TIP3    H241133   2.466   7.344   1.362
13730TIP3   OH241134   7.283   4.238   2.286
13730TIP3    H141135   7.233   4.229   2.205
13730TIP3    H241136   7.274   4.331   2.310
13731TIP3   OH241137   0.681   4.602   0.196
13731TIP3    H141138   0.619   4.620   0.267
13731TIP3    H241139   0.626   4.597   0.118
13732TIP3   OH241140   0.497   2.946   2.826
13732TIP3    H141141   0.562   2.894   2.874
13732TIP3    H241142   0.548   3.013   2.781
13733TIP3   OH241143   2.451   5.540   0.853
13733TIP3    H141144   2.536   5.527   0.811
13733TIP3    H241145   2.423   5.627   0.824
13734TIP3   OH241146   5.189   2.617   3.269
13734TIP3    H141147   5.213   2.701   3.230
13734TIP3    H241148   5.273   2.571   3.279
13735TIP3   OH241149   1.302   5.816   3.340
13735TIP3    H141150   1.288   5.733   3.295
13735TIP3    H241151   1.351   5.792   3.419
13736TIP3   OH241152   3.137   0.534   6.166
13736TIP3    H141153   3.081   0.611   6.171
13736TIP3    H241154   3.121   0.499   6.078
13737TIP3   OH241155   4.693   6.188   0.607
13737TIP3    H141156   4.770   6.142   0.574
13737TIP3    H241157   4.724   6.235   0.685
13738TIP3   OH241158   2.148   4.839   5.498
13738TIP3    H141159   2.054   4.842   5.518
13738TIP3    H241160   2.189   4.891   5.567
13739TIP3   OH241161   3.089   2.876   6.303
13739TIP3    H141162   3.122   2.795   6.265
13739TIP3    H241163   3.021   2.848   6.364
13740TIP3   OH241164   4.159   0.343   2.385
13740TIP3    H141165   4.072   0.310   2.406
13740TIP3    H241166   4.155   0.365   2.292
13741TIP3   OH241167   1.065   1.948   1.964
13741TIP3    H141168   1.037   1.918   2.050
13741TIP3    H241169   1.148   1.993   1.980
13742TIP3   OH241170   0.793   4.137   5.336
13742TIP3    H141171   0.803   4.185   5.418
13742TIP3    H241172   0.804   4.045   5.361
13743TIP3   OH241173   6.141   3.074   1.800
13743TIP3    H141174   6.154   3.069   1.705
13743TIP3    H241175   6.221   3.116   1.832
13744TIP3   OH241176   3.880   6.312   5.351
13744TIP3    H141177   3.912   6.402   5.346
13744TIP3    H241178   3.938   6.263   5.293
13745TIP3   OH241179   3.478   6.948   5.198
13745TIP3    H141180   3.480   7.008   5.124
13745TIP3    H241181   3.398   6.971   5.245
13746TIP3   OH241182   3.209   7.769   2.189
13746TIP3    H141183   3.233   7.862   2.194
13746TIP3    H241184   3.190   7.754   2.097
13747TIP3   OH241185   5.827   3.752   5.549
13747TIP3    H141186   5.832   3.799   5.466
13747TIP3    H241187   5.844   3.661   5.525
13748TIP3   OH241188   5.747   0.312   2.860
13748TIP3    H141189   5.708   0.261   2.788
13748TIP3    H241190   5.703   0.397   2.855
13749TIP3   OH241191   6.840   2.898   6.501
13749TIP3    H141192   6.843   2.969   6.565
13749TIP3    H241193   6.905   2.923   6.435
13750TIP3   OH241194   6.419   5.179   5.379
13750TIP3    H141195   6.336   5.141   5.353
13750TIP3    H241196   6.478   5.104   5.389
13751TIP3   OH241197   1.174   1.481   5.682
13751TIP3    H141198   1.207   1.480   5.772
13751TIP3    H241199   1.238   1.429   5.633
13752TIP3   OH241200   2.597   2.220   1.818
13752TIP3    H141201   2.595   2.310   1.784
13752TIP3    H241202   2.637   2.228   1.904
13753TIP3   OH241203   3.600   1.219   6.083
13753TIP3    H141204   3.551   1.141   6.110
13753TIP3    H241205   3.585   1.225   5.989
13754TIP3   OH241206   6.264   7.770   0.211
13754TIP3    H141207   6.238   7.861   0.198
13754TIP3    H241208   6.246   7.753   0.304
13755TIP3   OH241209   0.037   5.844   0.797
13755TIP3    H141210   0.070   5.901   0.727
13755TIP3    H241211   0.007   5.766   0.751
13756TIP3   OH241212   0.092   1.097   4.797
13756TIP3    H141213   0.116   1.012   4.760
13756TIP3    H241214   0.082   1.154   4.721
13757TIP3   OH241215   1.819   7.351   1.209
13757TIP3    H141216   1.803   7.313   1.123
13757TIP3    H241217   1.732   7.357   1.249
13758TIP3   OH241218   4.324   0.140   2.936
13758TIP3    H141219   4.355   0.065   2.988
13758TIP3    H241220   4.399   0.199   2.933
13759TIP3   OH241221   3.367   2.097   2.530
13759TIP3    H141222   3.399   2.092   2.440
13759TIP3    H241223   3.433   2.148   2.577
13760TIP3   OH241224   3.716   7.808   0.735
13760TIP3    H141225   3.690   7.899   0.720
13760TIP3    H241226   3.710   7.767   0.649
13761TIP3   OH241227   4.900   0.322   0.095
13761TIP3    H141228   4.833   0.254   0.086
13761TIP3    H241229   4.946   0.322   0.011
13762TIP3   OH241230   5.642   7.360   0.087
13762TIP3    H141231   5.651   7.443   0.135
13762TIP3    H241232   5.636   7.386  -0.005
13763TIP3   OH241233   4.264   3.189   5.988
13763TIP3    H141234   4.356   3.169   5.973
13763TIP3    H241235   4.261   3.219   6.080
13764TIP3   OH241236   6.630   1.275   1.561
13764TIP3    H141237   6.545   1.306   1.594
13764TIP3    H241238   6.671   1.232   1.636
13765TIP3   OH241239   3.108   5.685   2.234
13765TIP3    H141240   3.027   5.688   2.184
13765TIP3    H241241   3.119   5.593   2.257
13766TIP3   OH241242   4.583   1.602   4.069
13766TIP3    H141243   4.667   1.610   4.024
13766TIP3    H241244   4.555   1.693   4.081
13767TIP3   OH241245   2.077   2.545   4.122
13767TIP3    H141246   2.146   2.599   4.084
13767TIP3    H241247   2.048   2.593   4.199
13768TIP3   OH241248   4.205   2.674   6.048
13768TIP3    H141249   4.148   2.641   5.979
13768TIP3    H241250   4.275   2.608   6.054
13769TIP3   OH241251   3.810   4.043   3.188
13769TIP3    H141252   3.841   4.129   3.216
13769TIP3    H241253   3.890   3.989   3.182
13770TIP3   OH241254   5.866   0.835   2.989
13770TIP3    H141255   5.944   0.881   3.018
13770TIP3    H241256   5.898   0.748   2.964
13771TIP3   OH241257   7.054   3.850   5.053
13771TIP3    H141258   7.030   3.761   5.027
13771TIP3    H241259   6.971   3.892   5.074
13772TIP3   OH241260   5.255   3.284   4.369
13772TIP3    H141261   5.209   3.366   4.349
13772TIP3    H241262   5.205   3.246   4.441
13773TIP3   OH241263   0.337   6.502   3.240
13773TIP3    H141264   0.299   6.535   3.321
13773TIP3    H241265   0.278   6.433   3.211
13774TIP3   OH241266   1.141   5.764   3.647
13774TIP3    H141267   1.234   5.770   3.625
13774TIP3    H241268   1.096   5.806   3.574
13775TIP3   OH241269   2.964   0.816   3.301
13775TIP3    H141270   2.893   0.821   3.238
13775TIP3    H241271   2.953   0.893   3.357
13776TIP3   OH241272   2.069   2.324   4.416
13776TIP3    H141273   1.998   2.372   4.458
13776TIP3    H241274   2.044   2.317   4.324
13777TIP3   OH241275   2.874   5.722   2.097
13777TIP3    H141276   2.890   5.628   2.093
13777TIP3    H241277   2.779   5.730   2.093
13778TIP3   OH241278   6.952   7.423   6.572
13778TIP3    H141279   6.910   7.377   6.500
13778TIP3    H241280   7.046   7.419   6.552
13779TIP3   OH241281   1.121   1.159   4.333
13779TIP3    H141282   1.170   1.186   4.411
13779TIP3    H241283   1.072   1.237   4.307
13780TIP3   OH241284   4.836   3.530   1.922
13780TIP3    H141285   4.763   3.497   1.870
13780TIP3    H241286   4.794   3.575   1.996
13781TIP3   OH241287   1.467   3.133   1.221
13781TIP3    H141288   1.558   3.107   1.233
13781TIP3    H241289   1.420   3.050   1.210
13782TIP3   OH241290   7.568   4.820   5.408
13782TIP3    H141291   7.656   4.782   5.406
13782TIP3    H241292   7.533   4.803   5.320
13783TIP3   OH241293   3.493   2.533   1.198
13783TIP3    H141294   3.481   2.554   1.290
13783TIP3    H241295   3.441   2.597   1.151
13784TIP3   OH241296   3.297   2.642   0.895
13784TIP3    H141297   3.271   2.550   0.900
13784TIP3    H241298   3.242   2.686   0.959
13785TIP3   OH241299   7.074   3.652   4.824
13785TIP3    H141300   7.131   3.678   4.752
13785TIP3    H241301   6.986   3.651   4.787
13786TIP3   OH241302   2.049   2.190   2.686
13786TIP3    H141303   2.109   2.264   2.679
13786TIP3    H241304   2.037   2.159   2.596
13787TIP3   OH241305   0.334   1.656   3.679
13787TIP3    H141306   0.405   1.617   3.731
13787TIP3    H241307   0.264   1.672   3.742
13788TIP3   OH241308   4.599   2.269   5.573
13788TIP3    H141309   4.510   2.242   5.547
13788TIP3    H241310   4.611   2.232   5.660
13789TIP3   OH241311   2.202   5.401   6.604
13789TIP3    H141312   2.274   5.438   6.656
13789TIP3    H241313   2.205   5.450   6.521
13790TIP3   OH241314   8.301   0.998   2.696
13790TIP3    H141315   8.219   1.042   2.715
13790TIP3    H241316   8.303   0.990   2.601
13791TIP3   OH241317   4.779   5.867   6.544
13791TIP3    H141318   4.796   5.858   6.450
13791TIP3    H241319   4.686   5.849   6.553
13792TIP3   OH241320   0.517   7.265   3.664
13792TIP3    H141321   0.549   7.304   3.582
13792TIP3    H241322   0.552   7.323   3.732
13793TIP3   OH241323   2.573   0.561   0.419
13793TIP3    H141324   2.496   0.540   0.473
13793TIP3    H241325   2.560   0.512   0.338
13794TIP3   OH241326   7.079   3.939   3.492
13794TIP3    H141327   7.014   3.869   3.502
13794TIP3    H241328   7.098   3.940   3.398
13795TIP3   OH241329   6.321   2.382   6.496
13795TIP3    H141330   6.277   2.458   6.459
13795TIP3    H241331   6.265   2.308   6.471
13796TIP3   OH241332   1.940   5.004   5.207
13796TIP3    H141333   2.033   4.981   5.204
13796TIP3    H241334   1.936   5.090   5.165
13797TIP3   OH241335   1.681   4.151   1.736
13797TIP3    H141336   1.630   4.180   1.661
13797TIP3    H241337   1.675   4.223   1.799
13798TIP3   OH241338   6.075   1.058   3.646
13798TIP3    H141339   6.037   1.134   3.602
13798TIP3    H241340   6.074   1.081   3.739
13799TIP3   OH241341   1.236   6.751   2.599
13799TIP3    H141342   1.273   6.805   2.669
13799TIP3    H241343   1.194   6.678   2.645
13800TIP3   OH241344   5.634   3.216   3.846
13800TIP3    H141345   5.658   3.272   3.920
13800TIP3    H241346   5.691   3.139   3.854
13801TIP3   OH241347   1.226   5.858   1.565
13801TIP3    H141348   1.313   5.873   1.601
13801TIP3    H241349   1.171   5.839   1.642
13802TIP3   OH241350   1.767   1.336   0.265
13802TIP3    H141351   1.678   1.310   0.291
13802TIP3    H241352   1.789   1.277   0.193
13803TIP3   OH241353   1.796   4.458   1.791
13803TIP3    H141354   1.816   4.516   1.865
13803TIP3    H241355   1.873   4.402   1.783
13804TIP3   OH241356   1.415   5.585   1.932
13804TIP3    H141357   1.326   5.619   1.920
13804TIP3    H241358   1.440   5.553   1.846
13805TIP3   OH241359   7.606   2.482   0.742
13805TIP3    H141360   7.550   2.416   0.702
13805TIP3    H241361   7.695   2.452   0.724
13806TIP3   OH241362   5.954   1.059   3.312
13806TIP3    H141363   5.874   1.074   3.262
13806TIP3    H241364   5.990   1.146   3.327
13807TIP3   OH241365   7.489   7.242   6.486
13807TIP3    H141366   7.416   7.205   6.436
13807TIP3    H241367   7.535   7.166   6.521
13808TIP3   OH241368   2.631   2.017   0.026
13808TIP3    H141369   2.579   1.991   0.102
13808TIP3    H241370   2.657   1.935  -0.015
13809TIP3   OH241371   8.194   0.593   4.275
13809TIP3    H141372   8.158   0.509   4.246
13809TIP3    H241373   8.198   0.646   4.195
13810TIP3   OH241374   1.027   5.957   1.808
13810TIP3    H141375   0.932   5.963   1.800
13810TIP3    H241376   1.059   6.043   1.784
13811TIP3   OH241377   8.201   2.438   5.919
13811TIP3    H141378   8.112   2.474   5.921
13811TIP3    H241379   8.216   2.416   5.827
13812TIP3   OH241380   1.118   4.822   3.767
13812TIP3    H141381   1.115   4.900   3.712
13812TIP3    H241382   1.162   4.851   3.847
13813TIP3   OH241383   6.536   0.059   3.764
13813TIP3    H141384   6.476   0.000   3.720
13813TIP3    H241385   6.574   0.112   3.694
13814TIP3   OH241386   5.377   1.209   3.555
13814TIP3    H141387   5.337   1.296   3.554
13814TIP3    H241388   5.361   1.177   3.644
13815TIP3   OH241389   6.333   3.840   2.567
13815TIP3    H141390   6.370   3.896   2.499
13815TIP3    H241391   6.325   3.897   2.644
13816TIP3   OH241392   4.275   5.470   5.164
13816TIP3    H141393   4.262   5.521   5.083
13816TIP3    H241394   4.360   5.499   5.197
13817TIP3   OH241395   2.991   0.529   3.286
13817TIP3    H141396   2.964   0.620   3.302
13817TIP3    H241397   2.973   0.515   3.193
13818TIP3   OH241398   8.268   2.542   0.843
13818TIP3    H141399   8.238   2.624   0.883
13818TIP3    H241400   8.358   2.560   0.815
13819TIP3   OH241401   2.693   4.231   3.983
13819TIP3    H141402   2.667   4.320   3.961
13819TIP3    H241403   2.623   4.198   4.039
13820TIP3   OH241404   1.707   5.404   2.911
13820TIP3    H141405   1.707   5.497   2.931
13820TIP3    H241406   1.640   5.367   2.969
13821TIP3   OH241407   5.982   0.125   5.321
13821TIP3    H141408   5.936   0.154   5.242
13821TIP3    H241409   6.072   0.109   5.291
13822TIP3   OH241410   6.965   5.518   2.155
13822TIP3    H141411   6.890   5.563   2.194
13822TIP3    H241412   7.010   5.477   2.228
13823TIP3   OH241413   1.526   5.912   4.234
13823TIP3    H141414   1.479   5.992   4.211
13823TIP3    H241415   1.605   5.942   4.279
13824TIP3   OH241416   4.331   0.787   2.868
13824TIP3    H141417   4.276   0.755   2.940
13824TIP3    H241418   4.273   0.792   2.793
13825TIP3   OH241419   3.896   2.518   1.970
13825TIP3    H141420   3.916   2.598   1.922
13825TIP3    H241421   3.893   2.449   1.903
13826TIP3   OH241422   3.823   3.491   4.714
13826TIP3    H141423   3.852   3.480   4.804
13826TIP3    H241424   3.904   3.491   4.663
13827TIP3   OH241425   0.380   2.415   0.860
13827TIP3    H141426   0.292   2.396   0.829
13827TIP3    H241427   0.413   2.482   0.801
13828TIP3   OH241428   4.684   6.695   5.393
13828TIP3    H141429   4.719   6.769   5.443
13828TIP3    H241430   4.628   6.648   5.456
13829TIP3   OH241431   7.272   7.283   0.869
13829TIP3    H141432   7.230   7.276   0.783
13829TIP3    H241433   7.350   7.227   0.861
13830TIP3   OH241434   0.571   0.769   1.789
13830TIP3    H141435   0.612   0.832   1.729
13830TIP3    H241436   0.479   0.796   1.793
13831TIP3   OH241437   8.206   4.430   6.641
13831TIP3    H141438   8.259   4.452   6.565
13831TIP3    H241439   8.122   4.474   6.625
13832TIP3   OH241440   3.167   2.870   3.143
13832TIP3    H141441   3.097   2.929   3.170
13832TIP3    H241442   3.153   2.858   3.049
13833TIP3   OH241443   7.054   0.378   2.492
13833TIP3    H141444   6.999   0.453   2.468
13833TIP3    H241445   7.144   0.412   2.485
13834TIP3   OH241446   3.498   1.290   6.623
13834TIP3    H141447   3.475   1.335   6.704
13834TIP3    H241448   3.419   1.293   6.570
13835TIP3   OH241449   3.867   5.172   6.484
13835TIP3    H141450   3.887   5.265   6.485
13835TIP3    H241451   3.790   5.164   6.428
13836TIP3   OH241452   3.180   7.240   5.911
13836TIP3    H141453   3.231   7.162   5.932
13836TIP3    H241454   3.220   7.274   5.830
13837TIP3   OH241455   7.043   5.724   5.291
13837TIP3    H141456   7.063   5.650   5.233
13837TIP3    H241457   6.976   5.774   5.243
13838TIP3   OH241458   1.465   0.605   5.416
13838TIP3    H141459   1.469   0.564   5.330
13838TIP3    H241460   1.552   0.589   5.454
13839TIP3   OH241461   7.463   7.594   5.754
13839TIP3    H141462   7.483   7.520   5.811
13839TIP3    H241463   7.487   7.671   5.805
13840TIP3   OH241464   1.138   0.162   6.440
13840TIP3    H141465   1.113   0.228   6.506
13840TIP3    H241466   1.176   0.091   6.491
13841TIP3   OH241467   7.978   4.182   4.350
13841TIP3    H141468   7.980   4.136   4.267
13841TIP3    H241469   8.042   4.136   4.405
13842TIP3   OH241470   2.431   6.678   5.405
13842TIP3    H141471   2.470   6.689   5.319
13842TIP3    H241472   2.474   6.601   5.441
13843TIP3   OH241473   1.178   2.064   4.806
13843TIP3    H141474   1.216   2.138   4.760
13843TIP3    H241475   1.127   2.103   4.877
13844TIP3   OH241476   5.755   4.266   6.664
13844TIP3    H141477   5.814   4.280   6.737
13844TIP3    H241478   5.811   4.235   6.593
13845TIP3   OH241479   5.509   5.306   5.462
13845TIP3    H141480   5.470   5.374   5.517
13845TIP3    H241481   5.557   5.250   5.523
13846TIP3   OH241482   8.249   6.608   5.153
13846TIP3    H141483   8.262   6.703   5.154
13846TIP3    H241484   8.207   6.589   5.236
13847TIP3   OH241485   3.315   1.864   3.795
13847TIP3    H141486   3.291   1.812   3.718
13847TIP3    H241487   3.292   1.954   3.771
13848TIP3   OH241488   0.189   1.959   3.972
13848TIP3    H141489   0.127   1.903   4.018
13848TIP3    H241490   0.235   1.901   3.912
13849TIP3   OH241491   7.688   4.566   0.618
13849TIP3    H141492   7.593   4.571   0.623
13849TIP3    H241493   7.712   4.492   0.673
13850TIP3   OH241494   4.462   3.260   0.369
13850TIP3    H141495   4.373   3.244   0.336
13850TIP3    H241496   4.451   3.328   0.435
13851TIP3   OH241497   1.956   7.307   6.688
13851TIP3    H141498   1.861   7.300   6.693
13851TIP3    H241499   1.987   7.275   6.772
13852TIP3   OH241500   5.626   7.035   1.417
13852TIP3    H141501   5.562   7.011   1.349
13852TIP3    H241502   5.673   7.110   1.380
13853TIP3   OH241503   6.541   1.713   1.349
13853TIP3    H141504   6.624   1.737   1.308
13853TIP3    H241505   6.566   1.677   1.434
13854TIP3   OH241506   7.425   0.318   5.451
13854TIP3    H141507   7.377   0.264   5.388
13854TIP3    H241508   7.375   0.400   5.456
13855TIP3   OH241509   5.035   3.109   5.083
13855TIP3    H141510   4.952   3.085   5.041
13855TIP3    H241511   5.059   3.032   5.134
13856TIP3   OH241512   2.360   5.895   4.141
13856TIP3    H141513   2.333   5.920   4.230
13856TIP3    H241514   2.386   5.977   4.100
13857TIP3   OH241515   3.773   6.824   2.794
13857TIP3    H141516   3.699   6.838   2.853
13857TIP3    H241517   3.849   6.823   2.852
13858TIP3   OH241518   2.095   2.425   5.908
13858TIP3    H141519   2.102   2.435   6.003
13858TIP3    H241520   2.159   2.357   5.886
13859TIP3   OH241521   2.969   5.320   6.246
13859TIP3    H141522   2.916   5.314   6.166
13859TIP3    H241523   3.057   5.296   6.217
13860TIP3   OH241524   6.861   4.242   1.777
13860TIP3    H141525   6.878   4.280   1.863
13860TIP3    H241526   6.765   4.246   1.768
13861TIP3   OH241527   6.944   5.721   4.023
13861TIP3    H141528   7.039   5.712   4.032
13861TIP3    H241529   6.933   5.799   3.968
13862TIP3   OH241530   2.974   0.284   4.133
13862TIP3    H141531   2.922   0.346   4.184
13862TIP3    H241532   2.970   0.202   4.183
13863TIP3   OH241533   5.171   4.377   4.017
13863TIP3    H141534   5.085   4.400   3.983
13863TIP3    H241535   5.182   4.433   4.095
13864TIP3   OH241536   8.250   7.775   4.665
13864TIP3    H141537   8.218   7.859   4.698
13864TIP3    H241538   8.279   7.794   4.576
13865TIP3   OH241539   0.108   7.628   1.530
13865TIP3    H141540   0.042   7.695   1.515
13865TIP3    H241541   0.063   7.545   1.514
13866TIP3   OH241542   6.429   6.482   3.878
13866TIP3    H141543   6.336   6.496   3.894
13866TIP3    H241544   6.472   6.509   3.959
13867TIP3   OH241545   8.078   6.777   0.315
13867TIP3    H141546   8.092   6.728   0.234
13867TIP3    H241547   8.034   6.714   0.373
13868TIP3   OH241548   1.922   7.059   2.147
13868TIP3    H141549   1.883   7.035   2.063
13868TIP3    H241550   1.850   7.047   2.210
13869TIP3   OH241551   3.007   1.932   5.925
13869TIP3    H141552   2.987   1.910   5.834
13869TIP3    H241553   3.053   2.016   5.919
13870TIP3   OH241554   3.568   5.296   4.148
13870TIP3    H141555   3.510   5.269   4.219
13870TIP3    H241556   3.520   5.367   4.104
13871TIP3   OH241557   4.412   4.502   1.207
13871TIP3    H141558   4.443   4.564   1.273
13871TIP3    H241559   4.341   4.547   1.162
13872TIP3   OH241560   4.872   0.758   3.817
13872TIP3    H141561   4.909   0.674   3.791
13872TIP3    H241562   4.941   0.821   3.798
13873TIP3   OH241563   6.134   2.361   0.989
13873TIP3    H141564   6.078   2.346   1.065
13873TIP3    H241565   6.125   2.282   0.937
13874TIP3   OH241566   4.235   2.010   0.671
13874TIP3    H141567   4.290   1.936   0.696
13874TIP3    H241568   4.290   2.063   0.613
13875TIP3   OH241569   3.998   1.506   1.705
13875TIP3    H141570   3.953   1.516   1.789
13875TIP3    H241571   3.962   1.426   1.668
13876TIP3   OH241572   4.478   2.934   5.958
13876TIP3    H141573   4.450   2.936   6.050
13876TIP3    H241574   4.496   2.842   5.941
13877TIP3   OH241575   5.511   7.805   3.319
13877TIP3    H141576   5.589   7.818   3.264
13877TIP3    H241577   5.544   7.815   3.409
13878TIP3   OH241578   7.638   7.235   1.526
13878TIP3    H141579   7.567   7.296   1.544
13878TIP3    H241580   7.594   7.152   1.505
13879TIP3   OH241581   5.307   5.171   3.765
13879TIP3    H141582   5.315   5.223   3.845
13879TIP3    H241583   5.247   5.100   3.789
13880TIP3   OH241584   1.691   7.501   0.882
13880TIP3    H141585   1.759   7.434   0.886
13880TIP3    H241586   1.611   7.453   0.858
13881TIP3   OH241587   7.369   4.615   0.661
13881TIP3    H141588   7.309   4.622   0.587
13881TIP3    H241589   7.330   4.670   0.729
13882TIP3   OH241590   6.574   3.572   1.401
13882TIP3    H141591   6.486   3.607   1.390
13882TIP3    H241592   6.589   3.574   1.495
13883TIP3   OH241593   8.235   2.558   3.839
13883TIP3    H141594   8.225   2.465   3.817
13883TIP3    H241595   8.174   2.603   3.780
13884TIP3   OH241596   8.126   4.710   6.676
13884TIP3    H141597   8.086   4.750   6.753
13884TIP3    H241598   8.218   4.699   6.699
13885TIP3   OH241599   8.149   2.992   2.502
13885TIP3    H141600   8.242   2.975   2.489
13885TIP3    H241601   8.142   3.087   2.497
13886TIP3   OH241602   5.536   0.657   5.263
13886TIP3    H141603   5.446   0.624   5.261
13886TIP3    H241604   5.578   0.615   5.188
13887TIP3   OH241605   4.859   5.296   1.250
13887TIP3    H141606   4.787   5.336   1.299
13887TIP3    H241607   4.899   5.235   1.312
13888TIP3   OH241608   5.921   5.513   5.217
13888TIP3    H141609   5.876   5.537   5.298
13888TIP3    H241610   5.893   5.579   5.153
13889TIP3   OH241611   4.752   5.034   4.244
13889TIP3    H141612   4.669   4.987   4.236
13889TIP3    H241613   4.807   4.997   4.176
13890TIP3   OH241614   3.119   3.460   6.139
13890TIP3    H141615   3.141   3.520   6.068
13890TIP3    H241616   3.047   3.502   6.185
13891TIP3   OH241617   6.993   4.488   3.586
13891TIP3    H141618   6.993   4.394   3.599
13891TIP3    H241619   7.081   4.516   3.612
13892TIP3   OH241620   2.562   2.066   1.431
13892TIP3    H141621   2.526   2.031   1.512
13892TIP3    H241622   2.553   1.995   1.368
13893TIP3   OH241623   1.367   2.759   4.965
13893TIP3    H141624   1.394   2.752   5.057
13893TIP3    H241625   1.412   2.687   4.921
13894TIP3   OH241626   0.551   5.948   4.990
13894TIP3    H141627   0.526   6.031   5.030
13894TIP3    H241628   0.642   5.936   5.017
13895TIP3   OH241629   2.057   3.199   3.115
13895TIP3    H141630   2.074   3.268   3.179
13895TIP3    H241631   2.117   3.218   3.043
13896TIP3   OH241632   2.844   6.308   5.456
13896TIP3    H141633   2.872   6.255   5.530
13896TIP3    H241634   2.782   6.252   5.409
13897TIP3   OH241635   2.749   3.357   6.055
13897TIP3    H141636   2.661   3.370   6.020
13897TIP3    H241637   2.805   3.357   5.978
13898TIP3   OH241638   5.100   2.078   5.628
13898TIP3    H141639   5.020   2.040   5.664
13898TIP3    H241640   5.171   2.024   5.664
13899TIP3   OH241641   3.069   4.452   3.208
13899TIP3    H141642   2.982   4.493   3.207
13899TIP3    H241643   3.112   4.488   3.286
13900TIP3   OH241644   5.559   0.708   0.291
13900TIP3    H141645   5.616   0.719   0.214
13900TIP3    H241646   5.541   0.614   0.293
13901TIP3   OH241647   3.482   4.825   5.421
13901TIP3    H141648   3.395   4.829   5.462
13901TIP3    H241649   3.538   4.877   5.479
13902TIP3   OH241650   1.277   4.570   1.897
13902TIP3    H141651   1.347   4.506   1.905
13902TIP3    H241652   1.246   4.560   1.807
13903TIP3   OH241653   3.387   0.546   5.376
13903TIP3    H141654   3.359   0.597   5.452
13903TIP3    H241655   3.385   0.455   5.406
13904TIP3   OH241656   5.814   5.731   5.082
13904TIP3    H141657   5.808   5.790   5.007
13904TIP3    H241658   5.761   5.773   5.150
13905TIP3   OH241659   0.732   7.431   4.138
13905TIP3    H141660   0.809   7.411   4.192
13905TIP3    H241661   0.658   7.421   4.198
13906TIP3   OH241662   1.668   7.795   1.282
13906TIP3    H141663   1.745   7.842   1.250
13906TIP3    H241664   1.695   7.757   1.365
13907TIP3   OH241665   1.859   7.074   3.426
13907TIP3    H141666   1.870   7.078   3.331
13907TIP3    H241667   1.782   7.129   3.444
13908TIP3   OH241668   1.297   0.074   2.800
13908TIP3    H141669   1.293   0.112   2.712
13908TIP3    H241670   1.209   0.038   2.814
13909TIP3   OH241671   2.948   5.017   2.468
13909TIP3    H141672   3.020   4.978   2.518
13909TIP3    H241673   2.947   5.109   2.496
13910TIP3   OH241674   7.293   5.384   4.020
13910TIP3    H141675   7.206   5.415   3.998
13910TIP3    H241676   7.353   5.443   3.974
13911TIP3   OH241677   3.742   0.978   3.371
13911TIP3    H141678   3.665   1.029   3.396
13911TIP3    H241679   3.814   1.016   3.421
13912TIP3   OH241680   2.231   1.986   2.246
13912TIP3    H141681   2.304   2.038   2.213
13912TIP3    H241682   2.247   1.898   2.211
13913TIP3   OH241683   0.225   1.861   6.391
13913TIP3    H141684   0.174   1.939   6.411
13913TIP3    H241685   0.286   1.854   6.465
13914TIP3   OH241686   4.716   1.022   5.792
13914TIP3    H141687   4.723   1.021   5.697
13914TIP3    H241688   4.785   1.083   5.821
13915TIP3   OH241689   6.641   7.392   3.465
13915TIP3    H141690   6.653   7.372   3.558
13915TIP3    H241691   6.623   7.486   3.463
13916TIP3   OH241692   3.318   2.541   6.332
13916TIP3    H141693   3.227   2.550   6.359
13916TIP3    H241694   3.345   2.629   6.306
13917TIP3   OH241695   1.605   0.930   6.397
13917TIP3    H141696   1.535   0.923   6.332
13917TIP3    H241697   1.638   1.020   6.387
13918TIP3   OH241698   0.186   5.462   0.736
13918TIP3    H141699   0.128   5.453   0.660
13918TIP3    H241700   0.138   5.518   0.796
13919TIP3   OH241701   2.936   2.563   3.761
13919TIP3    H141702   3.006   2.627   3.751
13919TIP3    H241703   2.967   2.486   3.715
13920TIP3   OH241704   0.921   1.985   1.337
13920TIP3    H141705   0.892   1.894   1.347
13920TIP3    H241706   0.852   2.027   1.285
13921TIP3   OH241707   2.567   4.303   2.132
13921TIP3    H141708   2.562   4.279   2.224
13921TIP3    H241709   2.643   4.362   2.127
13922TIP3   OH241710   4.118   6.297   2.495
13922TIP3    H141711   4.029   6.285   2.461
13922TIP3    H241712   4.117   6.252   2.580
13923TIP3   OH241713   6.102   7.808   4.793
13923TIP3    H141714   6.065   7.877   4.737
13923TIP3    H241715   6.031   7.785   4.852
13924TIP3   OH241716   1.076   1.744   3.181
13924TIP3    H141717   1.091   1.741   3.275
13924TIP3    H241718   0.995   1.696   3.167
13925TIP3   OH241719   1.387   7.688   6.134
13925TIP3    H141720   1.400   7.619   6.199
13925TIP3    H241721   1.321   7.653   6.075
13926TIP3   OH241722   1.101   6.280   0.983
13926TIP3    H141723   1.157   6.357   0.991
13926TIP3    H241724   1.027   6.298   1.040
13927TIP3   OH241725   1.087   6.749   3.601
13927TIP3    H141726   1.032   6.806   3.653
13927TIP3    H241727   1.176   6.763   3.636
13928TIP3   OH241728   1.674   0.526   6.671
13928TIP3    H141729   1.711   0.467   6.737
13928TIP3    H241730   1.602   0.477   6.633
13929TIP3   OH241731   7.031   6.844   2.934
13929TIP3    H141732   7.039   6.934   2.964
13929TIP3    H241733   7.005   6.795   3.013
13930TIP3   OH241734   0.297   6.890   3.369
13930TIP3    H141735   0.268   6.914   3.281
13930TIP3    H241736   0.220   6.906   3.424
13931TIP3   OH241737   3.720   1.858   4.614
13931TIP3    H141738   3.782   1.930   4.606
13931TIP3    H241739   3.705   1.829   4.524
13932TIP3   OH241740   3.586   6.109   5.710
13932TIP3    H141741   3.557   6.201   5.706
13932TIP3    H241742   3.681   6.113   5.701
13933TIP3   OH241743   0.782   4.074   1.234
13933TIP3    H141744   0.843   4.047   1.302
13933TIP3    H241745   0.804   4.166   1.217
13934TIP3   OH241746   2.518   7.412   5.891
13934TIP3    H141747   2.604   7.420   5.932
13934TIP3    H241748   2.469   7.354   5.949
13935TIP3   OH241749   0.543   0.115   2.043
13935TIP3    H141750   0.449   0.099   2.051
13935TIP3    H241751   0.566   0.167   2.120
13936TIP3   OH241752   5.946   1.924   5.525
13936TIP3    H141753   5.856   1.955   5.517
13936TIP3    H241754   5.983   1.934   5.438
13937TIP3   OH241755   6.218   5.952   0.252
13937TIP3    H141756   6.291   5.892   0.240
13937TIP3    H241757   6.142   5.905   0.217
13938TIP3   OH241758   6.145   4.410   2.800
13938TIP3    H141759   6.162   4.468   2.725
13938TIP3    H241760   6.206   4.338   2.788
13939TIP3   OH241761   2.239   3.117   4.048
13939TIP3    H141762   2.223   3.184   4.114
13939TIP3    H241763   2.197   3.150   3.969
13940TIP3   OH241764   6.326   3.131   2.563
13940TIP3    H141765   6.308   3.224   2.575
13940TIP3    H241766   6.249   3.087   2.601
13941TIP3   OH241767   3.867   4.525   2.778
13941TIP3    H141768   3.782   4.531   2.733
13941TIP3    H241769   3.852   4.564   2.864
13942TIP3   OH241770   2.958   3.470   1.758
13942TIP3    H141771   2.877   3.431   1.791
13942TIP3    H241772   2.957   3.560   1.792
13943TIP3   OH241773   2.350   7.157   5.036
13943TIP3    H141774   2.299   7.213   4.977
13943TIP3    H241775   2.440   7.164   5.003
13944TIP3   OH241776   2.966   5.597   3.617
13944TIP3    H141777   3.001   5.508   3.620
13944TIP3    H241778   2.924   5.603   3.531
13945TIP3   OH241779   5.558   5.207   4.025
13945TIP3    H141780   5.556   5.271   4.096
13945TIP3    H241781   5.517   5.129   4.062
13946TIP3   OH241782   3.255   5.714   5.140
13946TIP3    H141783   3.245   5.639   5.082
13946TIP3    H241784   3.205   5.784   5.097
13947TIP3   OH241785  -0.007   0.472   6.258
13947TIP3    H141786  -0.055   0.420   6.323
13947TIP3    H241787   0.035   0.407   6.202
13948TIP3   OH241788   4.652   2.160   4.713
13948TIP3    H141789   4.670   2.074   4.752
13948TIP3    H241790   4.694   2.157   4.628
13949TIP3   OH241791   8.113   5.610   0.164
13949TIP3    H141792   8.117   5.517   0.142
13949TIP3    H241793   8.044   5.646   0.108
13950TIP3   OH241794   6.399   4.880   1.661
13950TIP3    H141795   6.483   4.925   1.671
13950TIP3    H241796   6.391   4.864   1.567
13951TIP3   OH241797   0.288   3.225   0.748
13951TIP3    H141798   0.233   3.215   0.826
13951TIP3    H241799   0.346   3.298   0.769
13952TIP3   OH241800   2.918   7.245   6.261
13952TIP3    H141801   2.936   7.156   6.229
13952TIP3    H241802   2.994   7.296   6.232
13953TIP3   OH241803   6.133   2.709   4.401
13953TIP3    H141804   6.078   2.636   4.431
13953TIP3    H241805   6.164   2.749   4.482
13954TIP3   OH241806   3.064   5.406   5.553
13954TIP3    H141807   3.116   5.476   5.592
13954TIP3    H241808   2.981   5.409   5.602
13955TIP3   OH241809   5.059   3.064   4.461
13955TIP3    H141810   5.091   3.105   4.542
13955TIP3    H241811   4.965   3.051   4.476
13956TIP3   OH241812   2.858   7.490   1.221
13956TIP3    H141813   2.786   7.543   1.255
13956TIP3    H241814   2.934   7.547   1.226
13957TIP3   OH241815   5.532   1.713  -0.014
13957TIP3    H141816   5.568   1.630   0.018
13957TIP3    H241817   5.448   1.721   0.032
13958TIP3   OH241818   3.056   4.929   0.373
13958TIP3    H141819   3.013   5.013   0.359
13958TIP3    H241820   3.039   4.879   0.293
13959TIP3   OH241821   7.407   2.964   6.188
13959TIP3    H141822   7.452   2.957   6.272
13959TIP3    H241823   7.472   2.939   6.123
13960TIP3   OH241824   6.176   4.392   5.062
13960TIP3    H141825   6.167   4.358   4.973
13960TIP3    H241826   6.263   4.364   5.090
13961TIP3   OH241827   2.398   1.398   3.774
13961TIP3    H141828   2.475   1.415   3.829
13961TIP3    H241829   2.329   1.374   3.836
13962TIP3   OH241830   3.982   7.578   5.443
13962TIP3    H141831   4.068   7.571   5.485
13962TIP3    H241832   3.927   7.621   5.509
13963TIP3   OH241833   6.343   4.603   2.346
13963TIP3    H141834   6.277   4.662   2.310
13963TIP3    H241835   6.300   4.561   2.420
13964TIP3   OH241836   7.545   0.398   0.685
13964TIP3    H141837   7.557   0.493   0.677
13964TIP3    H241838   7.458   0.389   0.724
13965TIP3   OH241839   8.101   2.553   4.515
13965TIP3    H141840   8.073   2.608   4.442
13965TIP3    H241841   8.141   2.614   4.577
13966TIP3   OH241842   1.101   2.702   2.312
13966TIP3    H141843   1.068   2.675   2.226
13966TIP3    H241844   1.041   2.772   2.339
13967TIP3   OH241845   7.874   2.747   3.241
13967TIP3    H141846   7.870   2.840   3.221
13967TIP3    H241847   7.955   2.717   3.201
13968TIP3   OH241848   1.145   6.273   2.375
13968TIP3    H141849   1.228   6.311   2.346
13968TIP3    H241850   1.169   6.187   2.408
13969TIP3   OH241851   2.131   1.384   1.300
13969TIP3    H141852   2.174   1.318   1.245
13969TIP3    H241853   2.168   1.467   1.271
13970TIP3   OH241854   7.361   2.674   1.735
13970TIP3    H141855   7.340   2.640   1.648
13970TIP3    H241856   7.320   2.760   1.738
13971TIP3   OH241857   4.794   4.969   4.505
13971TIP3    H141858   4.731   4.998   4.572
13971TIP3    H241859   4.787   5.034   4.436
13972TIP3   OH241860   0.851   6.637   2.588
13972TIP3    H141861   0.835   6.550   2.624
13972TIP3    H241862   0.877   6.620   2.497
13973TIP3   OH241863   2.812   0.251   0.195
13973TIP3    H141864   2.804   0.267   0.288
13973TIP3    H241865   2.888   0.193   0.187
13974TIP3   OH241866   3.969   1.609   6.617
13974TIP3    H141867   4.000   1.525   6.651
13974TIP3    H241868   3.876   1.595   6.598
13975TIP3   OH241869   6.239   4.923   3.001
13975TIP3    H141870   6.195   5.007   3.008
13975TIP3    H241871   6.168   4.859   2.994
13976TIP3   OH241872   5.531   4.581   6.009
13976TIP3    H141873   5.602   4.628   6.051
13976TIP3    H241874   5.451   4.616   6.049
13977TIP3   OH241875   5.440   0.260   5.268
13977TIP3    H141876   5.421   0.275   5.361
13977TIP3    H241877   5.381   0.189   5.243
13978TIP3   OH241878   2.446   2.083   3.131
13978TIP3    H141879   2.430   2.047   3.043
13978TIP3    H241880   2.413   2.017   3.191
13979TIP3   OH241881   2.014   3.231   0.243
13979TIP3    H141882   1.971   3.236   0.328
13979TIP3    H241883   2.106   3.216   0.263
13980TIP3   OH241884   7.338   7.285   5.986
13980TIP3    H141885   7.345   7.215   6.051
13980TIP3    H241886   7.373   7.246   5.905
13981TIP3   OH241887   4.213   1.132   2.051
13981TIP3    H141888   4.144   1.170   1.997
13981TIP3    H241889   4.264   1.077   1.991
13982TIP3   OH241890   7.066   2.025   5.218
13982TIP3    H141891   6.992   2.084   5.222
13982TIP3    H241892   7.028   1.937   5.224
13983TIP3   OH241893   7.587   5.731   1.440
13983TIP3    H141894   7.672   5.707   1.403
13983TIP3    H241895   7.584   5.686   1.524
13984TIP3   OH241896   6.300   3.378   2.235
13984TIP3    H141897   6.263   3.381   2.323
13984TIP3    H241898   6.393   3.358   2.249
13985TIP3   OH241899   2.276   7.317   2.580
13985TIP3    H141900   2.205   7.327   2.643
13985TIP3    H241901   2.243   7.255   2.516
13986TIP3   OH241902   7.857   2.976   2.496
13986TIP3    H141903   7.930   3.037   2.483
13986TIP3    H241904   7.881   2.926   2.574
13987TIP3   OH241905   7.579   1.354   5.639
13987TIP3    H141906   7.586   1.278   5.582
13987TIP3    H241907   7.669   1.373   5.666
13988TIP3   OH241908   8.029   4.870   0.323
13988TIP3    H141909   8.059   4.887   0.413
13988TIP3    H241910   7.975   4.791   0.330
13989TIP3   OH241911   3.306   0.599   5.677
13989TIP3    H141912   3.313   0.614   5.771
13989TIP3    H241913   3.330   0.682   5.637
13990TIP3   OH241914   0.314   1.854   1.839
13990TIP3    H141915   0.329   1.929   1.897
13990TIP3    H241916   0.326   1.778   1.895
13991TIP3   OH241917   0.682   1.095   6.338
13991TIP3    H141918   0.684   1.162   6.406
13991TIP3    H241919   0.711   1.140   6.259
13992TIP3   OH241920   7.776   2.271   3.808
13992TIP3    H141921   7.842   2.207   3.835
13992TIP3    H241922   7.692   2.231   3.834
13993TIP3   OH241923   4.012   5.135   2.921
13993TIP3    H141924   3.934   5.170   2.963
13993TIP3    H241925   4.047   5.071   2.983
13994TIP3   OH241926   1.299   5.417   1.270
13994TIP3    H141927   1.235   5.458   1.212
13994TIP3    H241928   1.310   5.480   1.342
13995TIP3   OH241929   7.753   0.349   2.592
13995TIP3    H141930   7.730   0.267   2.550
13995TIP3    H241931   7.808   0.395   2.528
13996TIP3   OH241932   3.772   6.523   1.612
13996TIP3    H141933   3.744   6.513   1.703
13996TIP3    H241934   3.813   6.609   1.608
13997TIP3   OH241935   4.386   1.992   5.036
13997TIP3    H141936   4.331   2.038   5.099
13997TIP3    H241937   4.325   1.938   4.986
13998TIP3   OH241938   1.174   2.689   5.590
13998TIP3    H141939   1.202   2.731   5.672
13998TIP3    H241940   1.079   2.691   5.593
13999TIP3   OH241941   3.136   4.410   6.756
13999TIP3    H141942   3.221   4.426   6.797
13999TIP3    H241943   3.155   4.406   6.662
14000TIP3   OH241944   3.729   6.487   4.366
14000TIP3    H141945   3.743   6.528   4.281
14000TIP3    H241946   3.634   6.475   4.372
14001TIP3   OH241947   5.255   0.637   0.876
14001TIP3    H141948   5.167   0.617   0.908
14001TIP3    H241949   5.256   0.733   0.869
14002TIP3   OH241950   6.000   1.259   2.776
14002TIP3    H141951   5.937   1.214   2.832
14002TIP3    H241952   6.082   1.258   2.826
14003TIP3   OH241953   1.154   0.712   5.169
14003TIP3    H141954   1.157   0.806   5.184
14003TIP3    H241955   1.125   0.675   5.252
14004TIP3   OH241956   3.136   0.394   3.554
14004TIP3    H141957   3.180   0.457   3.612
14004TIP3    H241958   3.188   0.314   3.562
14005TIP3   OH241959   7.577   2.963   1.500
14005TIP3    H141960   7.546   2.891   1.446
14005TIP3    H241961   7.670   2.971   1.479
14006TIP3   OH241962   7.107   1.014   3.115
14006TIP3    H141963   7.165   1.048   3.046
14006TIP3    H241964   7.115   1.077   3.186
14007TIP3   OH241965   3.349   7.815   6.528
14007TIP3    H141966   3.421   7.796   6.469
14007TIP3    H241967   3.277   7.761   6.497
14008TIP3   OH241968   1.056   4.003   5.047
14008TIP3    H141969   1.144   3.973   5.023
14008TIP3    H241970   1.070   4.079   5.103
14009TIP3   OH241971   6.575   5.889   6.176
14009TIP3    H141972   6.542   5.817   6.229
14009TIP3    H241973   6.667   5.869   6.163
14010TIP3   OH241974   6.728   6.986   2.333
14010TIP3    H141975   6.737   6.902   2.289
14010TIP3    H241976   6.798   7.040   2.296
14011TIP3   OH241977   7.625   6.611   2.871
14011TIP3    H141978   7.673   6.528   2.861
14011TIP3    H241979   7.547   6.600   2.816
14012TIP3   OH241980   3.787   7.055   1.075
14012TIP3    H141981   3.814   7.076   1.165
14012TIP3    H241982   3.866   7.018   1.035
14013TIP3   OH241983   7.450   1.186   0.802
14013TIP3    H141984   7.421   1.154   0.717
14013TIP3    H241985   7.521   1.247   0.781
14014TIP3   OH241986   1.852   7.655   3.834
14014TIP3    H141987   1.880   7.576   3.880
14014TIP3    H241988   1.822   7.713   3.904
14015TIP3   OH241989   6.256   0.616   2.854
14015TIP3    H141990   6.318   0.678   2.894
14015TIP3    H241991   6.309   0.562   2.796
14016TIP3   OH241992   1.393   1.666   5.141
14016TIP3    H141993   1.310   1.623   5.117
14016TIP3    H241994   1.377   1.759   5.126
14017TIP3   OH241995   7.018   2.927   3.730
14017TIP3    H141996   6.971   2.852   3.695
14017TIP3    H241997   7.074   2.891   3.798
14018TIP3   OH241998   5.276   5.119   2.167
14018TIP3    H141999   5.273   5.213   2.150
14018TIP3    H242000   5.238   5.109   2.254
14019TIP3   OH242001   1.070   1.313   6.026
14019TIP3    H142002   1.019   1.393   6.038
14019TIP3    H242003   1.158   1.335   6.058
14020TIP3   OH242004   7.109   6.461   2.701
14020TIP3    H142005   7.116   6.410   2.781
14020TIP3    H242006   7.143   6.548   2.724
14021TIP3   OH242007   2.087   4.025   2.880
14021TIP3    H142008   2.148   4.094   2.853
14021TIP3    H242009   2.111   4.006   2.970
14022TIP3   OH242010   2.121   6.943   0.434
14022TIP3    H142011   2.106   6.990   0.516
14022TIP3    H242012   2.127   6.851   0.461
14023TIP3   OH242013   3.096   6.624   2.997
14023TIP3    H142014   3.101   6.676   2.917
14023TIP3    H242015   3.048   6.680   3.058
14024TIP3   OH242016   7.210   2.498   4.470
14024TIP3    H142017   7.290   2.497   4.522
14024TIP3    H242018   7.156   2.566   4.510
14025TIP3   OH242019   6.789   3.207   4.606
14025TIP3    H142020   6.873   3.225   4.563
14025TIP3    H242021   6.792   3.259   4.687
14026TIP3   OH242022   5.012   0.774   2.749
14026TIP3    H142023   5.009   0.828   2.828
14026TIP3    H242024   5.032   0.835   2.678
14027TIP3   OH242025   4.378   7.237   2.688
14027TIP3    H142026   4.302   7.193   2.727
14027TIP3    H242027   4.399   7.308   2.749
14028TIP3   OH242028   4.415   1.151   2.242
14028TIP3    H142029   4.355   1.167   2.170
14028TIP3    H242030   4.495   1.120   2.200
14029TIP3   OH242031   3.566   6.756   2.482
14029TIP3    H142032   3.657   6.766   2.508
14029TIP3    H242033   3.568   6.759   2.386
14030TIP3   OH242034   0.318   6.190   3.452
14030TIP3    H142035   0.349   6.131   3.383
14030TIP3    H242036   0.336   6.143   3.533
14031TIP3   OH242037   0.271   3.469   0.529
14031TIP3    H142038   0.222   3.432   0.602
14031TIP3    H242039   0.238   3.558   0.520
14032TIP3   OH242040   4.868   4.833   0.024
14032TIP3    H142041   4.885   4.759   0.082
14032TIP3    H242042   4.934   4.826  -0.045
14033TIP3   OH242043   2.945   5.985   0.181
14033TIP3    H142044   2.961   5.979   0.087
14033TIP3    H242045   2.999   6.059   0.210
14034TIP3   OH242046   1.461   0.962   5.887
14034TIP3    H142047   1.502   1.028   5.943
14034TIP3    H242048   1.525   0.946   5.817
14035TIP3   OH242049   2.870   5.269   1.217
14035TIP3    H142050   2.864   5.364   1.220
14035TIP3    H242051   2.963   5.250   1.230
14036TIP3   OH242052   2.754   5.433   3.741
14036TIP3    H142053   2.760   5.506   3.678
14036TIP3    H242054   2.667   5.443   3.781
14037TIP3   OH242055   6.965   2.790   4.843
14037TIP3    H142056   6.942   2.862   4.902
14037TIP3    H242057   6.881   2.753   4.816
14038TIP3   OH242058   5.567   4.643   3.080
14038TIP3    H142059   5.639   4.704   3.093
14038TIP3    H242060   5.577   4.579   3.150
14039TIP3   OH242061   1.730   3.081   4.445
14039TIP3    H142062   1.690   3.105   4.361
14039TIP3    H242063   1.795   3.014   4.422
14040TIP3   OH242064   0.706   7.597   1.201
14040TIP3    H142065   0.648   7.652   1.148
14040TIP3    H242066   0.757   7.660   1.252
14041TIP3   OH242067   0.121   2.433   0.381
14041TIP3    H142068   0.202   2.428   0.331
14041TIP3    H242069   0.067   2.361   0.348
14042TIP3   OH242070   2.896   7.240   5.018
14042TIP3    H142071   2.976   7.210   5.062
14042TIP3    H242072   2.924   7.258   4.929
14043TIP3   OH242073   0.493   0.716   1.193
14043TIP3    H142074   0.582   0.683   1.179
14043TIP3    H242075   0.474   0.697   1.285
14044TIP3   OH242076   5.591   4.522   2.159
14044TIP3    H142077   5.666   4.578   2.180
14044TIP3    H242078   5.611   4.486   2.073
14045TIP3   OH242079   2.574   7.568   3.661
14045TIP3    H142080   2.486   7.599   3.641
14045TIP3    H242081   2.629   7.605   3.592
14046TIP3   OH242082   6.573   5.118   4.716
14046TIP3    H142083   6.559   5.115   4.811
14046TIP3    H242084   6.539   5.034   4.685
14047TIP3   OH242085   3.802   2.416   4.152
14047TIP3    H142086   3.804   2.474   4.228
14047TIP3    H242087   3.717   2.372   4.159
14048TIP3   OH242088   2.943   3.197   1.294
14048TIP3    H142089   2.965   3.279   1.250
14048TIP3    H242090   2.853   3.178   1.267
14049TIP3   OH242091   8.009   2.305   0.470
14049TIP3    H142092   8.031   2.213   0.482
14049TIP3    H242093   8.088   2.352   0.499
14050TIP3   OH242094   1.756   4.681   2.463
14050TIP3    H142095   1.825   4.680   2.529
14050TIP3    H242096   1.802   4.669   2.380
14051TIP3   OH242097   3.309   0.976   2.855
14051TIP3    H142098   3.291   0.922   2.779
14051TIP3    H242099   3.224   1.013   2.879
14052TIP3   OH242100   4.971   2.915   6.195
14052TIP3    H142101   4.908   2.939   6.126
14052TIP3    H242102   4.992   2.824   6.178
14053TIP3   OH242103  -0.020   4.941   5.803
14053TIP3    H142104   0.050   4.970   5.862
14053TIP3    H242105   0.022   4.876   5.746
14054TIP3   OH242106   5.208   5.937   4.816
14054TIP3    H142107   5.117   5.923   4.843
14054TIP3    H242108   5.205   6.010   4.755
14055TIP3   OH242109   0.260   5.615   4.167
14055TIP3    H142110   0.313   5.535   4.166
14055TIP3    H242111   0.279   5.654   4.252
14056TIP3   OH242112   1.648   6.669   1.374
14056TIP3    H142113   1.721   6.626   1.419
14056TIP3    H242114   1.644   6.627   1.288
14057TIP3   OH242115   8.085   3.382   1.109
14057TIP3    H142116   8.016   3.326   1.072
14057TIP3    H242117   8.056   3.398   1.199
14058TIP3   OH242118   4.710   5.463   6.336
14058TIP3    H142119   4.672   5.551   6.328
14058TIP3    H242120   4.766   5.454   6.258
14059TIP3   OH242121   1.572   6.336   0.235
14059TIP3    H142122   1.623   6.378   0.166
14059TIP3    H242123   1.481   6.349   0.209
14060TIP3   OH242124   6.073   6.800   3.111
14060TIP3    H142125   6.018   6.753   3.175
14060TIP3    H242126   6.033   6.887   3.106
14061TIP3   OH242127   8.002   7.605   1.347
14061TIP3    H142128   7.938   7.651   1.294
14061TIP3    H242129   7.953   7.532   1.385
14062TIP3   OH242130   4.334   0.537   1.204
14062TIP3    H142131   4.265   0.481   1.170
14062TIP3    H242132   4.352   0.504   1.292
14063TIP3   OH242133   1.367   3.052   3.257
14063TIP3    H142134   1.285   3.073   3.303
14063TIP3    H242135   1.420   3.132   3.267
14064TIP3   OH242136   5.258   0.941   4.602
14064TIP3    H142137   5.344   0.928   4.642
14064TIP3    H242138   5.205   0.870   4.637
14065TIP3   OH242139   0.365   4.736   6.107
14065TIP3    H142140   0.273   4.710   6.112
14065TIP3    H242141   0.374   4.808   6.169
14066TIP3   OH242142   0.946   5.739   5.596
14066TIP3    H142143   0.979   5.679   5.529
14066TIP3    H242144   0.852   5.721   5.601
14067TIP3   OH242145   0.934   6.436   5.389
14067TIP3    H142146   0.971   6.349   5.371
14067TIP3    H242147   0.972   6.492   5.322
14068TIP3   OH242148   1.415   5.798   3.585
14068TIP3    H142149   1.448   5.745   3.658
14068TIP3    H242150   1.416   5.888   3.619
14069TIP3   OH242151   3.444   3.781   0.272
14069TIP3    H142152   3.446   3.690   0.302
14069TIP3    H242153   3.469   3.832   0.349
14070TIP3   OH242154   2.976   3.322   4.926
14070TIP3    H142155   2.936   3.339   4.841
14070TIP3    H242156   3.059   3.370   4.923
14071TIP3   OH242157   1.766   6.600   3.502
14071TIP3    H142158   1.717   6.589   3.420
14071TIP3    H242159   1.741   6.687   3.533
14072TIP3   OH242160   5.019   1.091   4.507
14072TIP3    H142161   5.085   1.043   4.556
14072TIP3    H242162   4.966   1.024   4.464
14073TIP3   OH242163   0.879   2.307   3.160
14073TIP3    H142164   0.966   2.296   3.124
14073TIP3    H242165   0.886   2.278   3.251
14074TIP3   OH242166   3.696   3.819   2.224
14074TIP3    H142167   3.655   3.882   2.283
14074TIP3    H242168   3.781   3.801   2.264
14075TIP3   OH242169   0.768   6.539   2.051
14075TIP3    H142170   0.793   6.507   1.965
14075TIP3    H242171   0.709   6.612   2.034
14076TIP3   OH242172   3.134   2.790   3.694
14076TIP3    H142173   3.092   2.870   3.727
14076TIP3    H242174   3.201   2.822   3.634
14077TIP3   OH242175   5.449   3.393   5.583
14077TIP3    H142176   5.482   3.423   5.499
14077TIP3    H242177   5.522   3.342   5.620
14078TIP3   OH242178   0.836   7.429   3.691
14078TIP3    H142179   0.864   7.337   3.688
14078TIP3    H242180   0.872   7.462   3.773
14079TIP3   OH242181   5.635   2.836   4.729
14079TIP3    H142182   5.564   2.895   4.704
14079TIP3    H242183   5.658   2.791   4.648
14080TIP3   OH242184   3.385   6.520   3.650
14080TIP3    H142185   3.455   6.544   3.711
14080TIP3    H242186   3.305   6.520   3.703
14081TIP3   OH242187   2.763   6.701   0.959
14081TIP3    H142188   2.789   6.623   0.910
14081TIP3    H242189   2.697   6.742   0.904
14082TIP3   OH242190   8.026   5.294   5.440
14082TIP3    H142191   8.007   5.311   5.348
14082TIP3    H242192   8.015   5.199   5.449
14083TIP3   OH242193   2.232   3.560   6.235
14083TIP3    H142194   2.277   3.515   6.307
14083TIP3    H242195   2.250   3.653   6.250
14084TIP3   OH242196   4.329   2.904   1.000
14084TIP3    H142197   4.294   2.815   1.007
14084TIP3    H242198   4.415   2.892   0.959
14085TIP3   OH242199   0.090   6.604   3.820
14085TIP3    H142200   0.012   6.611   3.766
14085TIP3    H242201   0.058   6.587   3.909
14086TIP3   OH242202   6.225   1.707   5.627
14086TIP3    H142203   6.236   1.796   5.596
14086TIP3    H242204   6.130   1.695   5.633
14087TIP3   OH242205   4.068   4.498   4.644
14087TIP3    H142206   3.984   4.452   4.640
14087TIP3    H242207   4.125   4.439   4.693
14088TIP3   OH242208   3.379   2.655   0.410
14088TIP3    H142209   3.468   2.651   0.443
14088TIP3    H242210   3.370   2.744   0.375
14089TIP3   OH242211   6.225   1.749   1.451
14089TIP3    H142212   6.153   1.701   1.410
14089TIP3    H242213   6.304   1.711   1.413
14090TIP3   OH242214   2.447   4.399   0.709
14090TIP3    H142215   2.526   4.452   0.714
14090TIP3    H242216   2.403   4.429   0.629
14091TIP3   OH242217   1.695   3.968   1.929
14091TIP3    H142218   1.754   4.027   1.977
14091TIP3    H242219   1.686   4.008   1.843
14092TIP3   OH242220   1.619   3.414   2.640
14092TIP3    H142221   1.625   3.324   2.672
14092TIP3    H242222   1.673   3.416   2.562
14093TIP3   OH242223   0.984   6.268   0.600
14093TIP3    H142224   0.925   6.194   0.588
14093TIP3    H242225   0.977   6.317   0.518
14094TIP3   OH242226   3.211   3.218   0.786
14094TIP3    H142227   3.194   3.215   0.692
14094TIP3    H242228   3.303   3.244   0.792
14095TIP3   OH242229   3.399   1.482   3.366
14095TIP3    H142230   3.387   1.472   3.271
14095TIP3    H242231   3.471   1.424   3.388
14096TIP3   OH242232   5.121   1.684   5.642
14096TIP3    H142233   5.051   1.694   5.706
14096TIP3    H242234   5.122   1.767   5.594
14097TIP3   OH242235   2.082   1.580   5.320
14097TIP3    H142236   2.115   1.570   5.231
14097TIP3    H242237   2.154   1.620   5.368
14098TIP3   OH242238   7.144   1.806   2.232
14098TIP3    H142239   7.130   1.756   2.151
14098TIP3    H242240   7.175   1.892   2.203
14099TIP3   OH242241   2.538   6.541   6.666
14099TIP3    H142242   2.572   6.552   6.755
14099TIP3    H242243   2.553   6.626   6.625
14100TIP3   OH242244   2.483   0.267   3.968
14100TIP3    H142245   2.432   0.187   3.980
14100TIP3    H242246   2.569   0.236   3.939
14101TIP3   OH242247   5.284   7.094   4.968
14101TIP3    H142248   5.305   7.067   5.058
14101TIP3    H242249   5.293   7.014   4.916
14102TIP3   OH242250   5.822   0.466   4.304
14102TIP3    H142251   5.740   0.508   4.328
14102TIP3    H242252   5.860   0.522   4.237
14103TIP3   OH242253   0.086   6.119   1.374
14103TIP3    H142254   0.003   6.074   1.361
14103TIP3    H242255   0.152   6.062   1.335
14104TIP3   OH242256   0.466   5.592   4.825
14104TIP3    H142257   0.504   5.505   4.816
14104TIP3    H242258   0.392   5.580   4.884
14105TIP3   OH242259   3.986   0.297   5.274
14105TIP3    H142260   3.961   0.261   5.188
14105TIP3    H242261   3.936   0.246   5.337
14106TIP3   OH242262   0.965   7.759   4.183
14106TIP3    H142263   0.984   7.795   4.270
14106TIP3    H242264   1.044   7.712   4.158
14107TIP3   OH242265   6.745   6.738   0.421
14107TIP3    H142266   6.718   6.657   0.464
14107TIP3    H242267   6.808   6.777   0.482
14108TIP3   OH242268   2.026   7.149   2.832
14108TIP3    H142269   2.109   7.138   2.880
14108TIP3    H242270   2.034   7.090   2.757
14109TIP3   OH242271   7.711   2.195   5.561
14109TIP3    H142272   7.669   2.147   5.490
14109TIP3    H242273   7.755   2.269   5.517
14110TIP3   OH242274   1.908   3.116   3.633
14110TIP3    H142275   1.857   3.194   3.654
14110TIP3    H242276   1.867   3.081   3.554
14111TIP3   OH242277   0.691   3.186   4.374
14111TIP3    H142278   0.697   3.105   4.424
14111TIP3    H242279   0.649   3.248   4.433
14112TIP3   OH242280   1.929   7.769   6.507
14112TIP3    H142281   1.857   7.830   6.522
14112TIP3    H242282   1.895   7.705   6.446
14113TIP3   OH242283   0.997   2.796   2.821
14113TIP3    H142284   1.008   2.866   2.757
14113TIP3    H242285   0.961   2.723   2.771
14114TIP3   OH242286   1.780   0.424   3.074
14114TIP3    H142287   1.849   0.359   3.086
14114TIP3    H242288   1.801   0.467   2.991
14115TIP3   OH242289   7.553   6.382   5.375
14115TIP3    H142290   7.592   6.370   5.462
14115TIP3    H242291   7.510   6.467   5.380
14116TIP3   OH242292   7.293   1.048   1.373
14116TIP3    H142293   7.387   1.049   1.394
14116TIP3    H242294   7.250   1.080   1.452
14117TIP3   OH242295   1.433   3.361   6.055
14117TIP3    H142296   1.411   3.277   6.095
14117TIP3    H242297   1.369   3.372   5.985
14118TIP3   OH242298   1.427   5.989   4.778
14118TIP3    H142299   1.494   5.923   4.759
14118TIP3    H242300   1.353   5.939   4.811
14119TIP3   OH242301   4.432   5.126   6.211
14119TIP3    H142302   4.524   5.104   6.195
14119TIP3    H242303   4.406   5.071   6.285
14120TIP3   OH242304   6.750   0.521   2.635
14120TIP3    H142305   6.797   0.575   2.571
14120TIP3    H242306   6.719   0.446   2.586
14121TIP3   OH242307   1.985   6.928   5.337
14121TIP3    H142308   2.068   6.896   5.372
14121TIP3    H242309   1.920   6.902   5.402
14122TIP3   OH242310   4.399   1.915   1.304
14122TIP3    H142311   4.382   1.959   1.388
14122TIP3    H242312   4.492   1.893   1.307
14123TIP3   OH242313   5.959   6.493   6.777
14123TIP3    H142314   5.994   6.488   6.688
14123TIP3    H242315   5.872   6.453   6.771
14124TIP3   OH242316   5.699   2.307   1.488
14124TIP3    H142317   5.791   2.314   1.461
14124TIP3    H242318   5.652   2.284   1.408
14125TIP3   OH242319   4.029   4.734   6.449
14125TIP3    H142320   4.030   4.805   6.513
14125TIP3    H242321   4.121   4.716   6.432
14126TIP3   OH242322   0.445   1.585   6.243
14126TIP3    H142323   0.354   1.572   6.267
14126TIP3    H242324   0.463   1.677   6.260
14127TIP3   OH242325   4.194   0.014   5.220
14127TIP3    H142326   4.212   0.081   5.286
14127TIP3    H242327   4.269   0.019   5.160
14128TIP3   OH242328   1.714   0.307   3.333
14128TIP3    H142329   1.663   0.349   3.264
14128TIP3    H242330   1.776   0.251   3.287
14129TIP3   OH242331   7.434   7.584   0.537
14129TIP3    H142332   7.521   7.603   0.572
14129TIP3    H242333   7.416   7.494   0.564
14130TIP3   OH242334   3.742   7.380   0.924
14130TIP3    H142335   3.793   7.307   0.888
14130TIP3    H242336   3.683   7.339   0.987
14131TIP3   OH242337   1.926   2.147   0.116
14131TIP3    H142338   1.910   2.069   0.063
14131TIP3    H242339   2.016   2.172   0.096
14132TIP3   OH242340   4.282   4.703   6.459
14132TIP3    H142341   4.364   4.730   6.500
14132TIP3    H242342   4.309   4.649   6.385
14133TIP3   OH242343   8.184   5.229   1.044
14133TIP3    H142344   8.240   5.205   0.970
14133TIP3    H242345   8.194   5.157   1.106
14134TIP3   OH242346   3.174   1.581   3.592
14134TIP3    H142347   3.218   1.505   3.631
14134TIP3    H242348   3.245   1.634   3.555
14135TIP3   OH242349   4.495   5.050   2.842
14135TIP3    H142350   4.458   5.061   2.929
14135TIP3    H242351   4.439   4.985   2.800
14136TIP3   OH242352   5.711   2.464   4.612
14136TIP3    H142353   5.640   2.466   4.676
14136TIP3    H242354   5.711   2.551   4.572
14137TIP3   OH242355   7.662   1.216   2.668
14137TIP3    H142356   7.686   1.224   2.760
14137TIP3    H242357   7.680   1.303   2.631
14138TIP3   OH242358   6.985   0.281   6.092
14138TIP3    H142359   6.895   0.309   6.077
14138TIP3    H242360   6.990   0.265   6.186
14139TIP3   OH242361   6.196   7.114   6.449
14139TIP3    H142362   6.120   7.158   6.410
14139TIP3    H242363   6.270   7.169   6.423
14140TIP3   OH242364   3.854   5.904   6.250
14140TIP3    H142365   3.865   5.998   6.234
14140TIP3    H242366   3.794   5.875   6.181
14141TIP3   OH242367   0.937   0.902   3.422
14141TIP3    H142368   0.930   0.868   3.511
14141TIP3    H242369   0.847   0.901   3.389
14142TIP3   OH242370   4.115   3.188   3.250
14142TIP3    H142371   4.171   3.258   3.217
14142TIP3    H242372   4.086   3.219   3.335
14143TIP3   OH242373   6.777   7.040   2.981
14143TIP3    H142374   6.759   6.991   3.061
14143TIP3    H242375   6.860   7.084   2.999
14144TIP3   OH242376   7.105   6.418   3.980
14144TIP3    H142377   7.143   6.486   3.924
14144TIP3    H242378   7.155   6.423   4.061
14145TIP3   OH242379   1.209   4.245   1.992
14145TIP3    H142380   1.179   4.275   2.078
14145TIP3    H242381   1.155   4.169   1.973
14146TIP3   OH242382   4.160   0.808   2.654
14146TIP3    H142383   4.204   0.878   2.606
14146TIP3    H242384   4.163   0.733   2.594
14147TIP3   OH242385   4.726   2.670   1.347
14147TIP3    H142386   4.811   2.682   1.390
14147TIP3    H242387   4.678   2.613   1.407
14148TIP3   OH242388   7.909   3.406   5.410
14148TIP3    H142389   7.997   3.369   5.405
14148TIP3    H242390   7.921   3.491   5.453
14149TIP3   OH242391   8.290   0.041   6.016
14149TIP3    H142392   8.204   0.058   5.976
14149TIP3    H242393   8.272  -0.022   6.085
14150TIP3   OH242394   6.943   2.965   3.159
14150TIP3    H142395   6.903   2.926   3.081
14150TIP3    H242396   6.901   2.918   3.232
14151TIP3   OH242397   3.040   4.245   3.732
14151TIP3    H142398   2.992   4.162   3.744
14151TIP3    H242399   3.072   4.241   3.642
14152TIP3   OH242400   3.663   5.685   3.626
14152TIP3    H142401   3.648   5.763   3.680
14152TIP3    H242402   3.756   5.689   3.604
14153TIP3   OH242403   0.508   7.702   1.044
14153TIP3    H142404   0.499   7.728   0.952
14153TIP3    H242405   0.461   7.769   1.093
14154TIP3   OH242406   3.355   4.356   1.237
14154TIP3    H142407   3.449   4.336   1.234
14154TIP3    H242408   3.312   4.278   1.203
14155TIP3   OH242409   0.729   7.441   4.587
14155TIP3    H142410   0.692   7.508   4.529
14155TIP3    H242411   0.725   7.360   4.535
14156TIP3   OH242412   3.685   2.204   4.529
14156TIP3    H142413   3.778   2.184   4.545
14156TIP3    H242414   3.677   2.203   4.433
14157TIP3   OH242415   1.169   7.278   6.098
14157TIP3    H142416   1.201   7.243   6.181
14157TIP3    H242417   1.177   7.206   6.036
14158TIP3   OH242418   6.794   5.277   0.812
14158TIP3    H142419   6.887   5.264   0.794
14158TIP3    H242420   6.786   5.264   0.907
14159TIP3   OH242421   6.735   6.760   4.782
14159TIP3    H142422   6.747   6.666   4.768
14159TIP3    H242423   6.804   6.784   4.843
14160TIP3   OH242424   0.047   3.506   2.233
14160TIP3    H142425   0.001   3.426   2.206
14160TIP3    H242426  -0.014   3.549   2.293
14161TIP3   OH242427   2.022   6.738   3.664
14161TIP3    H142428   2.037   6.703   3.576
14161TIP3    H242429   1.986   6.825   3.649
14162TIP3   OH242430   2.563   7.795   1.143
14162TIP3    H142431   2.518   7.877   1.121
14162TIP3    H242432   2.592   7.808   1.233
14163TIP3   OH242433   1.422   0.306   3.420
14163TIP3    H142434   1.438   0.394   3.455
14163TIP3    H242435   1.471   0.304   3.338
14164TIP3   OH242436   0.825   5.910   0.022
14164TIP3    H142437   0.740   5.871   0.002
14164TIP3    H242438   0.888   5.842  -0.002
14165TIP3   OH242439   4.384   4.124   3.486
14165TIP3    H142440   4.467   4.123   3.534
14165TIP3    H242441   4.369   4.216   3.466
14166TIP3   OH242442   1.305   5.175   1.133
14166TIP3    H142443   1.294   5.263   1.170
14166TIP3    H242444   1.216   5.138   1.136
14167TIP3   OH242445   0.708   6.772   1.615
14167TIP3    H142446   0.645   6.829   1.658
14167TIP3    H242447   0.677   6.765   1.525
14168TIP3   OH242448   7.287   4.488   3.692
14168TIP3    H142449   7.334   4.404   3.694
14168TIP3    H242450   7.357   4.554   3.695
14169TIP3   OH242451   6.787   5.742   3.295
14169TIP3    H142452   6.777   5.801   3.370
14169TIP3    H242453   6.701   5.704   3.283
14170TIP3   OH242454   6.810   1.640   4.453
14170TIP3    H142455   6.864   1.699   4.505
14170TIP3    H242456   6.721   1.673   4.463
14171TIP3   OH242457   5.715   5.185   3.566
14171TIP3    H142458   5.724   5.267   3.614
14171TIP3    H242459   5.805   5.150   3.561
14172TIP3   OH242460   1.999   2.065   1.161
14172TIP3    H142461   2.047   1.985   1.183
14172TIP3    H242462   2.030   2.088   1.073
14173TIP3   OH242463   2.059   6.614   3.164
14173TIP3    H142464   2.043   6.596   3.257
14173TIP3    H242465   2.147   6.652   3.162
14174TIP3   OH242466   4.514   0.910   2.602
14174TIP3    H142467   4.433   0.956   2.578
14174TIP3    H242468   4.539   0.863   2.523
14175TIP3   OH242469   1.326   1.436   1.702
14175TIP3    H142470   1.238   1.424   1.738
14175TIP3    H242471   1.384   1.424   1.777
14176TIP3   OH242472   6.946   1.918   3.963
14176TIP3    H142473   7.009   1.987   3.944
14176TIP3    H242474   6.913   1.938   4.050
14177TIP3   OH242475   4.597   6.780   6.114
14177TIP3    H142476   4.644   6.717   6.169
14177TIP3    H242477   4.505   6.763   6.131
14178TIP3   OH242478   3.098   1.932   3.053
14178TIP3    H142479   3.178   1.879   3.059
14178TIP3    H242480   3.028   1.871   3.077
14179TIP3   OH242481   1.860   6.937   0.648
14179TIP3    H142482   1.808   6.986   0.585
14179TIP3    H242483   1.811   6.855   0.661
14180TIP3   OH242484   1.488   6.765   5.318
14180TIP3    H142485   1.436   6.698   5.273
14180TIP3    H242486   1.485   6.739   5.410
14181TIP3   OH242487   0.267   2.371   1.856
14181TIP3    H142488   0.197   2.391   1.794
14181TIP3    H242489   0.259   2.277   1.871
14182TIP3   OH242490   8.213   0.634   1.407
14182TIP3    H142491   8.191   0.564   1.346
14182TIP3    H242492   8.259   0.590   1.479
14183TIP3   OH242493   4.741   1.089   0.603
14183TIP3    H142494   4.831   1.119   0.587
14183TIP3    H242495   4.708   1.064   0.517
14184TIP3   OH242496   5.212   1.390   2.751
14184TIP3    H142497   5.159   1.390   2.831
14184TIP3    H242498   5.274   1.461   2.763
14185TIP3   OH242499   0.459   2.302   2.090
14185TIP3    H142500   0.514   2.314   2.013
14185TIP3    H242501   0.462   2.387   2.135
14186TIP3   OH242502   3.687   3.507   3.108
14186TIP3    H142503   3.769   3.521   3.157
14186TIP3    H242504   3.621   3.554   3.159
14187TIP3   OH242505   5.246   6.471   3.852
14187TIP3    H142506   5.174   6.409   3.848
14187TIP3    H242507   5.223   6.540   3.790
14188TIP3   OH242508   7.377   2.055   6.621
14188TIP3    H142509   7.341   2.131   6.575
14188TIP3    H242510   7.467   2.049   6.591
14189TIP3   OH242511   8.064   4.794   3.536
14189TIP3    H142512   8.076   4.768   3.445
14189TIP3    H242513   8.012   4.875   3.531
14190TIP3   OH242514   5.911   1.576   4.407
14190TIP3    H142515   5.954   1.658   4.431
14190TIP3    H242516   5.821   1.601   4.386
14191TIP3   OH242517   7.564   6.505   3.561
14191TIP3    H142518   7.594   6.524   3.650
14191TIP3    H242519   7.504   6.576   3.540
14192TIP3   OH242520   2.444   1.536   1.787
14192TIP3    H142521   2.494   1.572   1.860
14192TIP3    H242522   2.431   1.444   1.811
14193TIP3   OH242523   5.073   1.472   4.022
14193TIP3    H142524   5.078   1.478   3.926
14193TIP3    H242525   5.163   1.456   4.049
14194TIP3   OH242526   4.632   0.076   0.531
14194TIP3    H142527   4.569   0.013   0.495
14194TIP3    H242528   4.589   0.161   0.522
14195TIP3   OH242529   6.483   4.865   4.692
14195TIP3    H142530   6.490   4.772   4.712
14195TIP3    H242531   6.390   4.878   4.672
14196TIP3   OH242532   6.603   7.110   3.403
14196TIP3    H142533   6.581   7.197   3.436
14196TIP3    H242534   6.519   7.065   3.394
14197TIP3   OH242535   5.786   1.082   2.039
14197TIP3    H142536   5.812   0.998   2.078
14197TIP3    H242537   5.787   1.144   2.112
14198TIP3   OH242538   0.699   0.885   5.820
14198TIP3    H142539   0.614   0.851   5.846
14198TIP3    H242540   0.692   0.979   5.830
14199TIP3   OH242541   7.285   0.778   4.606
14199TIP3    H142542   7.340   0.849   4.573
14199TIP3    H242543   7.346   0.713   4.640
14200TIP3   OH242544   2.652   6.645   3.959
14200TIP3    H142545   2.605   6.571   3.997
14200TIP3    H242546   2.630   6.719   4.015
14201TIP3   OH242547   3.382   4.919   6.536
14201TIP3    H142548   3.443   4.888   6.468
14201TIP3    H242549   3.296   4.891   6.505
14202TIP3   OH242550   0.121   0.014   0.664
14202TIP3    H142551   0.177   0.063   0.603
14202TIP3    H242552   0.182  -0.039   0.715
14203TIP3   OH242553   4.893   3.036   3.527
14203TIP3    H142554   4.937   3.059   3.446
14203TIP3    H242555   4.957   2.986   3.577
14204TIP3   OH242556   6.112   2.426   6.103
14204TIP3    H142557   6.149   2.340   6.120
14204TIP3    H242558   6.051   2.440   6.176
14205TIP3   OH242559   7.439   0.788   3.262
14205TIP3    H142560   7.352   0.821   3.238
14205TIP3    H242561   7.498   0.861   3.243
14206TIP3   OH242562   6.152   0.445   6.512
14206TIP3    H142563   6.111   0.530   6.494
14206TIP3    H242564   6.197   0.423   6.430
14207TIP3   OH242565   7.787   0.568   6.607
14207TIP3    H142566   7.702   0.612   6.597
14207TIP3    H242567   7.810   0.540   6.519
14208TIP3   OH242568   7.789   3.671   1.244
14208TIP3    H142569   7.702   3.707   1.227
14208TIP3    H242570   7.798   3.600   1.182
14209TIP3   OH242571   0.954   7.647   6.679
14209TIP3    H142572   0.990   7.694   6.754
14209TIP3    H242573   1.027   7.596   6.645
14210TIP3   OH242574   1.516   0.752   0.812
14210TIP3    H142575   1.474   0.832   0.780
14210TIP3    H242576   1.456   0.720   0.879
14211TIP3   OH242577   2.420   4.448   4.241
14211TIP3    H142578   2.455   4.431   4.328
14211TIP3    H242579   2.373   4.531   4.250
14212TIP3   OH242580   3.907   2.837   3.885
14212TIP3    H142581   3.875   2.825   3.795
14212TIP3    H242582   3.919   2.748   3.917
14213TIP3   OH242583   3.687   6.716   3.598
14213TIP3    H142584   3.656   6.629   3.624
14213TIP3    H242585   3.623   6.777   3.636
14214TIP3   OH242586   0.094   6.893   1.884
14214TIP3    H142587   0.050   6.970   1.848
14214TIP3    H242588   0.035   6.821   1.865
14215TIP3   OH242589   5.237   4.524   2.229
14215TIP3    H142590   5.154   4.569   2.245
14215TIP3    H242591   5.218   4.461   2.159
14216TIP3   OH242592   1.712   1.776   0.254
14216TIP3    H142593   1.661   1.695   0.255
14216TIP3    H242594   1.800   1.749   0.227
14217TIP3   OH242595   0.095   6.643   1.081
14217TIP3    H142596   0.140   6.558   1.080
14217TIP3    H242597   0.051   6.645   1.166
14218TIP3   OH242598   1.135   3.234   6.249
14218TIP3    H142599   1.081   3.309   6.221
14218TIP3    H242600   1.071   3.166   6.269
14219TIP3   OH242601   6.921   7.110   1.332
14219TIP3    H142602   6.845   7.150   1.375
14219TIP3    H242603   6.994   7.131   1.390
14220TIP3   OH242604   0.466   7.790   4.625
14220TIP3    H142605   0.399   7.817   4.688
14220TIP3    H242606   0.457   7.853   4.553
14221TIP3   OH242607   1.944   6.614   0.770
14221TIP3    H142608   2.010   6.640   0.835
14221TIP3    H242609   1.973   6.528   0.740
14222TIP3   OH242610   6.243   4.146   3.102
14222TIP3    H142611   6.329   4.185   3.086
14222TIP3    H242612   6.183   4.220   3.106
14223TIP3   OH242613   3.628   4.971   2.515
14223TIP3    H142614   3.701   4.926   2.558
14223TIP3    H242615   3.671   5.033   2.455
14224TIP3   OH242616   6.909   3.051   4.977
14224TIP3    H142617   6.822   3.069   4.939
14224TIP3    H242618   6.933   3.133   5.021
14225TIP3   OH242619   3.275   0.681   1.444
14225TIP3    H142620   3.206   0.637   1.394
14225TIP3    H242621   3.331   0.609   1.475
14226TIP3   OH242622   3.575   6.952   4.038
14226TIP3    H142623   3.548   6.886   4.101
14226TIP3    H242624   3.522   7.029   4.058
14227TIP3   OH242625   0.969   5.517   3.799
14227TIP3    H142626   1.038   5.581   3.780
14227TIP3    H242627   1.000   5.471   3.878
14228TIP3   OH242628   2.735   6.556   5.501
14228TIP3    H142629   2.753   6.600   5.418
14228TIP3    H242630   2.789   6.476   5.498
14229TIP3   OH242631   5.150   5.587   0.382
14229TIP3    H142632   5.202   5.512   0.412
14229TIP3    H242633   5.141   5.573   0.288
14230TIP3   OH242634   6.369   0.280   5.497
14230TIP3    H142635   6.319   0.360   5.508
14230TIP3    H242636   6.435   0.301   5.430
14231TIP3   OH242637   0.766   4.738   5.127
14231TIP3    H142638   0.828   4.703   5.190
14231TIP3    H242639   0.760   4.671   5.059
14232TIP3   OH242640   5.536   4.029   3.292
14232TIP3    H142641   5.479   4.105   3.279
14232TIP3    H242642   5.624   4.066   3.300
14233TIP3   OH242643   4.538   6.328   3.300
14233TIP3    H142644   4.446   6.311   3.322
14233TIP3    H242645   4.569   6.246   3.263
14234TIP3   OH242646   5.054   2.557   5.082
14234TIP3    H142647   4.968   2.537   5.046
14234TIP3    H242648   5.111   2.490   5.046
14235TIP3   OH242649   3.508   2.799   2.825
14235TIP3    H142650   3.525   2.882   2.870
14235TIP3    H242651   3.415   2.803   2.803
14236TIP3   OH242652   7.581   5.711   4.299
14236TIP3    H142653   7.490   5.732   4.280
14236TIP3    H242654   7.602   5.637   4.243
14237TIP3   OH242655   1.473   7.350   5.528
14237TIP3    H142656   1.567   7.361   5.514
14237TIP3    H242657   1.432   7.407   5.464
14238TIP3   OH242658   6.894   1.421   5.332
14238TIP3    H142659   6.845   1.450   5.254
14238TIP3    H242660   6.934   1.501   5.366
14239TIP3   OH242661   4.656   5.575   4.044
14239TIP3    H142662   4.596   5.511   4.004
14239TIP3    H242663   4.629   5.579   4.136
14240TIP3   OH242664   8.216   2.559   6.395
14240TIP3    H142665   8.196   2.560   6.301
14240TIP3    H242666   8.149   2.615   6.435
14241TIP3   OH242667   8.258   5.280   1.442
14241TIP3    H142668   8.285   5.244   1.357
14241TIP3    H242669   8.165   5.257   1.450
14242TIP3   OH242670   8.220   5.724   3.520
14242TIP3    H142671   8.233   5.760   3.433
14242TIP3    H242672   8.231   5.799   3.579
14243TIP3   OH242673   2.679   1.969   0.343
14243TIP3    H142674   2.675   1.991   0.436
14243TIP3    H242675   2.587   1.964   0.316
14244TIP3   OH242676   3.841   7.812   2.213
14244TIP3    H142677   3.898   7.884   2.239
14244TIP3    H242678   3.900   7.746   2.177
14245TIP3   OH242679   6.043   1.124   4.736
14245TIP3    H142680   6.061   1.184   4.664
14245TIP3    H242681   6.126   1.081   4.754
14246TIP3   OH242682   0.076   7.493   0.918
14246TIP3    H142683   0.109   7.549   0.987
14246TIP3    H242684   0.081   7.546   0.838
14247TIP3   OH242685   2.853   2.465   6.542
14247TIP3    H142686   2.764   2.464   6.506
14247TIP3    H242687   2.846   2.518   6.622
14248TIP3   OH242688   6.284   4.107   4.657
14248TIP3    H142689   6.291   4.123   4.563
14248TIP3    H242690   6.301   4.013   4.666
14249TIP3   OH242691   3.981   2.802   2.887
14249TIP3    H142692   4.033   2.868   2.933
14249TIP3    H242693   3.921   2.852   2.832
14250TIP3   OH242694   0.549   3.162   4.872
14250TIP3    H142695   0.607   3.106   4.821
14250TIP3    H242696   0.533   3.238   4.817
14251TIP3   OH242697   3.536   5.497   5.075
14251TIP3    H142698   3.599   5.453   5.019
14251TIP3    H242699   3.451   5.464   5.046
14252TIP3   OH242700   5.811   3.002   3.941
14252TIP3    H142701   5.838   2.920   3.898
14252TIP3    H242702   5.768   2.973   4.021
14253TIP3   OH242703   8.091  -0.005   4.979
14253TIP3    H142704   8.024   0.045   4.933
14253TIP3    H242705   8.042  -0.066   5.034
14254TIP3   OH242706   7.280   7.622   4.653
14254TIP3    H142707   7.193   7.595   4.683
14254TIP3    H242708   7.263   7.667   4.570
14255TIP3   OH242709   0.365   6.798   2.763
14255TIP3    H142710   0.322   6.880   2.785
14255TIP3    H242711   0.335   6.736   2.829
14256TIP3   OH242712   3.406   0.471   6.338
14256TIP3    H142713   3.321   0.512   6.321
14256TIP3    H242714   3.386   0.378   6.343
14257TIP3   OH242715   2.564   0.686   1.245
14257TIP3    H142716   2.518   0.757   1.199
14257TIP3    H242717   2.606   0.729   1.319
14258TIP3   OH242718   3.021   4.946   1.055
14258TIP3    H142719   3.050   4.967   1.143
14258TIP3    H242720   3.068   5.007   0.998
14259TIP3   OH242721   7.749   4.282   4.447
14259TIP3    H142722   7.839   4.261   4.424
14259TIP3    H242723   7.717   4.203   4.492
14260TIP3   OH242724   7.214   2.717   2.045
14260TIP3    H142725   7.181   2.776   1.977
14260TIP3    H242726   7.135   2.676   2.082
14261TIP3   OH242727   7.262   1.250   0.213
14261TIP3    H142728   7.184   1.257   0.158
14261TIP3    H242729   7.328   1.211   0.155
14262TIP3   OH242730   3.222   1.511   0.884
14262TIP3    H142731   3.253   1.454   0.813
14262TIP3    H242732   3.301   1.553   0.918
14263TIP3   OH242733   2.877   3.644   3.813
14263TIP3    H142734   2.846   3.569   3.762
14263TIP3    H242735   2.826   3.641   3.894
14264TIP3   OH242736   4.349   7.670   4.142
14264TIP3    H142737   4.283   7.615   4.101
14264TIP3    H242738   4.353   7.748   4.087
14265TIP3   OH242739   2.167   6.448   2.882
14265TIP3    H142740   2.220   6.527   2.896
14265TIP3    H242741   2.227   6.388   2.837
14266TIP3   OH242742   7.889   2.843   1.092
14266TIP3    H142743   7.883   2.762   1.042
14266TIP3    H242744   7.849   2.909   1.037
14267TIP3   OH242745   8.281   6.477   2.912
14267TIP3    H142746   8.267   6.553   2.969
14267TIP3    H242747   8.193   6.443   2.895
14268TIP3   OH242748   6.511   4.605   4.167
14268TIP3    H142749   6.536   4.536   4.106
14268TIP3    H242750   6.570   4.678   4.145
14269TIP3   OH242751   1.414   4.169   0.441
14269TIP3    H142752   1.352   4.109   0.481
14269TIP3    H242753   1.406   4.249   0.493
14270TIP3   OH242754   7.864   5.106   1.514
14270TIP3    H142755   7.890   5.040   1.579
14270TIP3    H242756   7.899   5.188   1.549
14271TIP3   OH242757   5.053   7.370   0.140
14271TIP3    H142758   4.973   7.323   0.114
14271TIP3    H242759   5.099   7.386   0.057
14272TIP3   OH242760   3.645   3.753   6.434
14272TIP3    H142761   3.647   3.658   6.425
14272TIP3    H242762   3.716   3.784   6.377
14273TIP3   OH242763   6.062   5.149   3.081
14273TIP3    H142764   5.976   5.109   3.097
14273TIP3    H242765   6.097   5.165   3.169
14274TIP3   OH242766   4.873   0.778   3.150
14274TIP3    H142767   4.869   0.862   3.197
14274TIP3    H242768   4.944   0.789   3.086
14275TIP3   OH242769   5.065   6.696   2.098
14275TIP3    H142770   5.125   6.658   2.162
14275TIP3    H242771   4.984   6.646   2.108
14276TIP3   OH242772   6.308   0.207   4.987
14276TIP3    H142773   6.293   0.294   4.951
14276TIP3    H242774   6.401   0.190   4.968
14277TIP3   OH242775   8.282   6.770   6.193
14277TIP3    H142776   8.299   6.718   6.114
14277TIP3    H242777   8.369   6.792   6.226
14278TIP3   OH242778   5.627   7.740   2.008
14278TIP3    H142779   5.534   7.748   2.028
14278TIP3    H242780   5.633   7.757   1.914
14279TIP3   OH242781   4.180   1.050   6.399
14279TIP3    H142782   4.177   1.010   6.486
14279TIP3    H242783   4.206   0.979   6.341
14280TIP3   OH242784   4.497   3.484   0.514
14280TIP3    H142785   4.492   3.475   0.609
14280TIP3    H242786   4.492   3.579   0.499
14281TIP3   OH242787   6.435   3.520   0.555
14281TIP3    H142788   6.432   3.614   0.535
14281TIP3    H242789   6.344   3.491   0.546
14282TIP3   OH242790   1.311   2.396   1.080
14282TIP3    H142791   1.288   2.336   1.151
14282TIP3    H242792   1.406   2.404   1.086
14283TIP3   OH242793   1.184   0.985   1.450
14283TIP3    H142794   1.245   1.045   1.493
14283TIP3    H242795   1.187   1.009   1.358
14284TIP3   OH242796   3.453   0.614   0.572
14284TIP3    H142797   3.408   0.674   0.631
14284TIP3    H242798   3.546   0.624   0.592
14285TIP3   OH242799   1.680   7.739   0.356
14285TIP3    H142800   1.731   7.719   0.278
14285TIP3    H242801   1.594   7.766   0.322
14286TIP3   OH242802   3.780   6.646   0.170
14286TIP3    H142803   3.798   6.740   0.162
14286TIP3    H242804   3.782   6.628   0.264
14287TIP3   OH242805   1.078   7.128   5.474
14287TIP3    H142806   1.061   7.085   5.390
14287TIP3    H242807   1.172   7.115   5.488
14288TIP3   OH242808   6.230   3.608   4.550
14288TIP3    H142809   6.140   3.587   4.575
14288TIP3    H242810   6.271   3.522   4.537
14289TIP3   OH242811   2.901   6.526   3.575
14289TIP3    H142812   2.826   6.498   3.523
14289TIP3    H242813   2.974   6.530   3.512
14290TIP3   OH242814   3.591   2.910   5.675
14290TIP3    H142815   3.524   2.963   5.718
14290TIP3    H242816   3.667   2.918   5.731
14291TIP3   OH242817   5.103   0.870   3.010
14291TIP3    H142818   5.098   0.965   3.005
14291TIP3    H242819   5.192   0.849   2.982
14292TIP3   OH242820   7.827   3.897   6.197
14292TIP3    H142821   7.905   3.952   6.202
14292TIP3    H242822   7.755   3.956   6.219
14293TIP3   OH242823   7.023   5.673   3.443
14293TIP3    H142824   6.957   5.692   3.377
14293TIP3    H242825   7.103   5.655   3.393
14294TIP3   OH242826   1.912   4.696   0.628
14294TIP3    H142827   1.945   4.649   0.704
14294TIP3    H242828   1.853   4.762   0.665
14295TIP3   OH242829   8.052   7.296   6.218
14295TIP3    H142830   8.089   7.210   6.199
14295TIP3    H242831   8.128   7.353   6.232
14296TIP3   OH242832   0.620   4.404   1.631
14296TIP3    H142833   0.611   4.486   1.583
14296TIP3    H242834   0.680   4.351   1.578
14297TIP3   OH242835   2.070   5.047   4.206
14297TIP3    H142836   2.027   4.961   4.203
14297TIP3    H242837   2.026   5.093   4.278
14298TIP3   OH242838   2.255   2.517   0.648
14298TIP3    H142839   2.203   2.548   0.574
14298TIP3    H242840   2.335   2.569   0.644
14299TIP3   OH242841   6.846   6.621   3.234
14299TIP3    H142842   6.910   6.689   3.214
14299TIP3    H242843   6.765   6.651   3.192
14300TIP3   OH242844   1.796   3.417   5.066
14300TIP3    H142845   1.748   3.402   5.148
14300TIP3    H242846   1.862   3.347   5.064
14301TIP3   OH242847   1.337   4.247   3.353
14301TIP3    H142848   1.364   4.339   3.349
14301TIP3    H242849   1.407   4.204   3.402
14302TIP3   OH242850   1.029   5.623   2.898
14302TIP3    H142851   0.938   5.605   2.875
14302TIP3    H242852   1.023   5.677   2.977
14303TIP3   OH242853   6.414   0.456   2.717
14303TIP3    H142854   6.427   0.381   2.775
14303TIP3    H242855   6.471   0.438   2.642
14304TIP3   OH242856   0.700   6.142   5.307
14304TIP3    H142857   0.650   6.197   5.367
14304TIP3    H242858   0.767   6.101   5.363
14305TIP3   OH242859   6.530   3.050   6.564
14305TIP3    H142860   6.613   3.062   6.518
14305TIP3    H242861   6.533   3.114   6.636
14306TIP3   OH242862   2.067   3.972   5.115
14306TIP3    H142863   2.102   3.955   5.202
14306TIP3    H242864   2.113   3.911   5.058
14307TIP3   OH242865   1.601   7.758   4.222
14307TIP3    H142866   1.524   7.733   4.273
14307TIP3    H242867   1.662   7.686   4.234
14308TIP3   OH242868   6.057   3.130   4.461
14308TIP3    H142869   6.080   3.203   4.403
14308TIP3    H242870   6.107   3.145   4.541
14309TIP3   OH242871   7.191   5.301   3.195
14309TIP3    H142872   7.210   5.344   3.279
14309TIP3    H242873   7.276   5.295   3.153
14310TIP3   OH242874   0.870   2.188   0.206
14310TIP3    H142875   0.909   2.193   0.119
14310TIP3    H242876   0.897   2.268   0.250
14311TIP3   OH242877   1.189   1.724   0.406
14311TIP3    H142878   1.179   1.818   0.392
14311TIP3    H242879   1.149   1.707   0.492
14312TIP3   OH242880   1.631   7.674   5.993
14312TIP3    H142881   1.638   7.584   5.964
14312TIP3    H242882   1.546   7.679   6.037
14313TIP3   OH242883   1.334   7.680   0.723
14313TIP3    H142884   1.429   7.675   0.708
14313TIP3    H242885   1.323   7.756   0.780
14314TIP3   OH242886   6.439   2.431   6.760
14314TIP3    H142887   6.420   2.411   6.668
14314TIP3    H242888   6.492   2.357   6.790
14315TIP3   OH242889   7.811   7.235   4.927
14315TIP3    H142890   7.906   7.239   4.917
14315TIP3    H242891   7.798   7.175   5.001
14316TIP3   OH242892  -0.030   0.021   4.011
14316TIP3    H142893   0.001  -0.031   4.085
14316TIP3    H242894   0.004   0.109   4.027
14317TIP3   OH242895   4.361   5.095   3.071
14317TIP3    H142896   4.290   5.147   3.110
14317TIP3    H242897   4.433   5.102   3.134
14318TIP3   OH242898   7.045   4.241   6.618
14318TIP3    H142899   7.019   4.323   6.576
14318TIP3    H242900   7.123   4.263   6.668
14319TIP3   OH242901   5.495   1.213   1.450
14319TIP3    H142902   5.495   1.127   1.407
14319TIP3    H242903   5.561   1.264   1.402
14320TIP3   OH242904   8.170   6.038   0.962
14320TIP3    H142905   8.230   6.060   0.891
14320TIP3    H242906   8.174   5.943   0.968
14321TIP3   OH242907   0.399   3.355   3.718
14321TIP3    H142908   0.437   3.375   3.804
14321TIP3    H242909   0.363   3.439   3.689
14322TIP3   OH242910   6.581   7.760   2.829
14322TIP3    H142911   6.489   7.776   2.810
14322TIP3    H242912   6.600   7.675   2.790
14323TIP3   OH242913   4.385   4.524   5.050
14323TIP3    H142914   4.420   4.437   5.071
14323TIP3    H242915   4.452   4.564   4.995
14324TIP3   OH242916   5.353   1.786   2.427
14324TIP3    H142917   5.412   1.846   2.472
14324TIP3    H242918   5.276   1.780   2.485
14325TIP3   OH242919   6.279   4.595   0.504
14325TIP3    H142920   6.268   4.687   0.528
14325TIP3    H242921   6.240   4.588   0.417
14326TIP3   OH242922   0.038   2.992   5.972
14326TIP3    H142923  -0.009   2.984   5.888
14326TIP3    H242924  -0.029   3.023   6.033
14327TIP3   OH242925   5.734   6.706   3.712
14327TIP3    H142926   5.773   6.631   3.757
14327TIP3    H242927   5.645   6.712   3.748
14328TIP3   OH242928   7.335   0.636   2.496
14328TIP3    H142929   7.384   0.569   2.449
14328TIP3    H242930   7.281   0.677   2.428
14329TIP3   OH242931   7.518   0.640   6.644
14329TIP3    H142932   7.477   0.554   6.639
14329TIP3    H242933   7.455   0.700   6.604
14330TIP3   OH242934   3.638   1.027   2.314
14330TIP3    H142935   3.616   1.042   2.222
14330TIP3    H242936   3.728   0.996   2.312
14331TIP3   OH242937   8.252   4.912   0.575
14331TIP3    H142938   8.228   4.872   0.659
14331TIP3    H242939   8.329   4.965   0.595
14332TIP3   OH242940   0.646   7.764   1.797
14332TIP3    H142941   0.681   7.807   1.875
14332TIP3    H242942   0.676   7.819   1.724
14333TIP3   OH242943   1.976   0.744   6.331
14333TIP3    H142944   1.989   0.839   6.337
14333TIP3    H242945   1.882   0.733   6.321
14334TIP3   OH242946   0.457   4.461   5.896
14334TIP3    H142947   0.527   4.401   5.871
14334TIP3    H242948   0.450   4.522   5.823
14335TIP3   OH242949   1.537   5.555   6.496
14335TIP3    H142950   1.624   5.529   6.527
14335TIP3    H242951   1.494   5.592   6.573
14336TIP3   OH242952   3.662   3.119   3.613
14336TIP3    H142953   3.681   3.164   3.695
14336TIP3    H242954   3.577   3.077   3.628
14337TIP3   OH242955   0.678   1.668   1.703
14337TIP3    H142956   0.617   1.595   1.705
14337TIP3    H242957   0.722   1.661   1.618
14338TIP3   OH242958   3.363   2.307   5.776
14338TIP3    H142959   3.296   2.352   5.827
14338TIP3    H242960   3.397   2.375   5.717
14339TIP3   OH242961   7.600   1.925   4.850
14339TIP3    H142962   7.572   1.948   4.938
14339TIP3    H242963   7.543   1.976   4.792
14340TIP3   OH242964   0.720   0.451   5.387
14340TIP3    H142965   0.668   0.372   5.401
14340TIP3    H242966   0.770   0.433   5.308
14341TIP3   OH242967   3.751   0.596   4.508
14341TIP3    H142968   3.767   0.584   4.415
14341TIP3    H242969   3.712   0.514   4.537
14342TIP3   OH242970   6.441   1.036   1.886
14342TIP3    H142971   6.421   0.942   1.881
14342TIP3    H242972   6.401   1.064   1.968
14343TIP3   OH242973   4.295   6.528   5.251
14343TIP3    H142974   4.352   6.517   5.327
14343TIP3    H242975   4.318   6.456   5.193
14344TIP3   OH242976   1.707   7.332   6.225
14344TIP3    H142977   1.772   7.261   6.221
14344TIP3    H242978   1.656   7.322   6.145
14345TIP3   OH242979   3.365   5.892   2.329
14345TIP3    H142980   3.293   5.953   2.317
14345TIP3    H242981   3.354   5.860   2.419
14346TIP3   OH242982   3.252   0.520   0.982
14346TIP3    H142983   3.334   0.569   0.979
14346TIP3    H242984   3.278   0.428   0.980
14347TIP3   OH242985   0.801   4.102   3.072
14347TIP3    H142986   0.861   4.052   3.128
14347TIP3    H242987   0.859   4.144   3.008
14348TIP3   OH242988   4.198   3.126   4.517
14348TIP3    H142989   4.255   3.201   4.495
14348TIP3    H242990   4.159   3.150   4.600
14349TIP3   OH242991   4.661   5.103   2.233
14349TIP3    H142992   4.735   5.133   2.285
14349TIP3    H242993   4.584   5.119   2.288
14350TIP3   OH242994   6.480   2.194   0.862
14350TIP3    H142995   6.553   2.253   0.883
14350TIP3    H242996   6.464   2.147   0.944
14351TIP3   OH242997   7.988   3.293   2.663
14351TIP3    H142998   7.930   3.317   2.734
14351TIP3    H242999   7.974   3.359   2.596
14352TIP3   OH243000   4.757   3.279   1.074
14352TIP3    H143001   4.841   3.318   1.098
14352TIP3    H243002   4.720   3.339   1.009
14353TIP3   OH243003   7.190   6.122   3.591
14353TIP3    H143004   7.166   6.078   3.509
14353TIP3    H243005   7.191   6.215   3.569
14354TIP3   OH243006   2.293   2.314   6.390
14354TIP3    H143007   2.277   2.270   6.474
14354TIP3    H243008   2.359   2.380   6.409
14355TIP3   OH243009   5.341   5.910   3.632
14355TIP3    H143010   5.394   5.979   3.671
14355TIP3    H243011   5.397   5.869   3.566
14356TIP3   OH243012   2.538   4.971   3.724
14356TIP3    H143013   2.548   4.960   3.629
14356TIP3    H243014   2.538   5.066   3.736
14357TIP3   OH243015   0.599   1.980   6.584
14357TIP3    H143016   0.543   1.926   6.641
14357TIP3    H243017   0.558   2.066   6.585
14358TIP3   OH243018   0.755   7.151   3.333
14358TIP3    H143019   0.696   7.076   3.326
14358TIP3    H243020   0.793   7.144   3.421
14359TIP3   OH243021   3.835   1.754   2.280
14359TIP3    H143022   3.757   1.713   2.242
14359TIP3    H243023   3.903   1.740   2.215
14360TIP3   OH243024   2.431   3.955   2.894
14360TIP3    H143025   2.439   3.942   2.988
14360TIP3    H243026   2.364   3.893   2.867
14361TIP3   OH243027   1.749   7.564   4.312
14361TIP3    H143028   1.688   7.514   4.366
14361TIP3    H243029   1.818   7.592   4.372
14362TIP3   OH243030   1.794   0.410   3.990
14362TIP3    H143031   1.704   0.380   4.006
14362TIP3    H243032   1.837   0.403   4.075
14363TIP3   OH243033   2.172   6.931   2.186
14363TIP3    H143034   2.089   6.975   2.166
14363TIP3    H243035   2.176   6.859   2.124
14364TIP3   OH243036   8.238   1.483   1.398
14364TIP3    H143037   8.295   1.486   1.321
14364TIP3    H243038   8.196   1.569   1.400
14365TIP3   OH243039   1.831   4.096   5.022
14365TIP3    H143040   1.862   4.007   5.007
14365TIP3    H243041   1.908   4.143   5.055
14366TIP3   OH243042   8.078   1.222   6.642
14366TIP3    H143043   8.012   1.189   6.703
14366TIP3    H243044   8.140   1.149   6.632
14367TIP3   OH243045   4.699   7.308   3.103
14367TIP3    H143046   4.775   7.277   3.152
14367TIP3    H243047   4.631   7.243   3.120
14368TIP3   OH243048   7.846   3.141   6.510
14368TIP3    H143049   7.808   3.181   6.432
14368TIP3    H243050   7.793   3.175   6.582
14369TIP3   OH243051   2.414   5.020   3.421
14369TIP3    H143052   2.344   4.956   3.417
14369TIP3    H243053   2.378   5.092   3.473
14370TIP3   OH243054   7.702   0.476   2.090
14370TIP3    H143055   7.663   0.548   2.139
14370TIP3    H243056   7.628   0.439   2.041
14371TIP3   OH243057   0.684   7.266   0.991
14371TIP3    H143058   0.758   7.325   0.979
14371TIP3    H243059   0.714   7.204   1.057
14372TIP3   OH243060   2.066   0.210   5.311
14372TIP3    H143061   1.999   0.204   5.243
14372TIP3    H243062   2.053   0.297   5.350
14373TIP3   OH243063   0.001   0.726   5.726
14373TIP3    H143064   0.030   0.813   5.755
14373TIP3    H243065  -0.053   0.743   5.649
14374TIP3   OH243066   2.190   1.284   6.683
14374TIP3    H143067   2.257   1.342   6.718
14374TIP3    H243068   2.231   1.197   6.681
14375TIP3   OH243069   4.031   0.716   4.248
14375TIP3    H143070   3.960   0.758   4.295
14375TIP3    H243071   4.025   0.750   4.159
14376TIP3   OH243072   3.965   4.485   0.601
14376TIP3    H143073   4.057   4.507   0.618
14376TIP3    H243074   3.927   4.567   0.569
14377TIP3   OH243075   6.664   2.822   2.727
14377TIP3    H143076   6.639   2.797   2.638
14377TIP3    H243077   6.684   2.916   2.721
14378TIP3   OH243078   2.851   2.181   6.177
14378TIP3    H143079   2.845   2.122   6.252
14378TIP3    H243080   2.770   2.168   6.129
14379TIP3   OH243081   1.316   1.228   3.630
14379TIP3    H143082   1.237   1.229   3.683
14379TIP3    H243083   1.337   1.320   3.616
14380TIP3   OH243084   4.628   0.408   1.282
14380TIP3    H143085   4.675   0.402   1.365
14380TIP3    H243086   4.542   0.443   1.306
14381TIP3   OH243087   7.818   2.564   4.650
14381TIP3    H143088   7.775   2.601   4.727
14381TIP3    H243089   7.811   2.632   4.583
14382TIP3   OH243090   3.729   5.852   2.881
14382TIP3    H143091   3.735   5.757   2.869
14382TIP3    H243092   3.654   5.864   2.938
14383TIP3   OH243093   1.359   3.629   6.579
14383TIP3    H143094   1.394   3.539   6.579
14383TIP3    H243095   1.288   3.626   6.515
14384TIP3   OH243096   3.724   3.979   3.652
14384TIP3    H143097   3.717   4.068   3.618
14384TIP3    H243098   3.808   3.978   3.698
14385TIP3   OH243099   0.924   7.184   3.928
14385TIP3    H143100   0.848   7.195   3.986
14385TIP3    H243101   0.969   7.106   3.962
14386TIP3   OH243102   0.899   5.061   0.472
14386TIP3    H143103   0.843   5.048   0.548
14386TIP3    H243104   0.847   5.115   0.412
14387TIP3   OH243105   4.892   1.223   4.710
14387TIP3    H143106   4.903   1.161   4.782
14387TIP3    H243107   4.924   1.176   4.633
14388TIP3   OH243108   6.252   5.343   2.714
14388TIP3    H143109   6.190   5.383   2.775
14388TIP3    H243110   6.303   5.282   2.767
14389TIP3   OH243111   6.258   4.983   0.159
14389TIP3    H143112   6.209   4.930   0.222
14389TIP3    H243113   6.191   5.030   0.109
14390TIP3   OH243114   0.500   5.240   1.382
14390TIP3    H143115   0.456   5.168   1.427
14390TIP3    H243116   0.593   5.220   1.391
14391TIP3   OH243117   5.542   7.406   5.997
14391TIP3    H143118   5.540   7.342   6.068
14391TIP3    H243119   5.500   7.361   5.923
14392TIP3   OH243120   6.530   4.108   2.027
14392TIP3    H143121   6.583   4.189   2.028
14392TIP3    H243122   6.594   4.038   2.042
14393TIP3   OH243123   7.228   0.795   0.995
14393TIP3    H143124   7.173   0.866   1.027
14393TIP3    H243125   7.298   0.788   1.060
14394TIP3   OH243126   2.989   1.416   2.904
14394TIP3    H143127   2.900   1.443   2.928
14394TIP3    H243128   2.980   1.383   2.814
14395TIP3   OH243129   2.407   4.148   3.384
14395TIP3    H143130   2.470   4.086   3.420
14395TIP3    H243131   2.449   4.233   3.395
14396TIP3   OH243132   1.427   7.428   2.746
14396TIP3    H143133   1.482   7.362   2.702
14396TIP3    H243134   1.479   7.457   2.821
14397TIP3   OH243135   4.702   3.965   4.417
14397TIP3    H143136   4.757   4.044   4.426
14397TIP3    H243137   4.649   3.981   4.340
14398TIP3   OH243138   4.951   1.069   3.786
14398TIP3    H143139   4.987   0.995   3.738
14398TIP3    H243140   4.951   1.141   3.723
14399TIP3   OH243141   0.522   0.197   3.806
14399TIP3    H143142   0.485   0.144   3.876
14399TIP3    H243143   0.616   0.194   3.820
14400TIP3   OH243144   3.363   1.220   5.110
14400TIP3    H143145   3.450   1.219   5.150
14400TIP3    H243146   3.306   1.258   5.177
14401TIP3   OH243147   4.336   0.775   5.813
14401TIP3    H143148   4.245   0.744   5.813
14401TIP3    H243149   4.331   0.861   5.770
14402TIP3   OH243150   2.937   5.377   0.224
14402TIP3    H143151   2.958   5.378   0.130
14402TIP3    H243152   2.917   5.468   0.244
14403TIP3   OH243153   3.358   0.231   5.334
14403TIP3    H143154   3.360   0.264   5.423
14403TIP3    H243155   3.423   0.161   5.333
14404TIP3   OH243156   4.563   0.278   1.738
14404TIP3    H143157   4.581   0.258   1.646
14404TIP3    H243158   4.547   0.193   1.778
14405TIP3   OH243159   2.643   2.002   3.384
14405TIP3    H143160   2.643   1.989   3.478
14405TIP3    H243161   2.571   2.063   3.368
14406TIP3   OH243162   6.887   7.326   3.060
14406TIP3    H143163   6.967   7.274   3.066
14406TIP3    H243164   6.875   7.341   2.966
14407TIP3   OH243165   5.993   0.387   1.992
14407TIP3    H143166   6.060   0.417   1.931
14407TIP3    H243167   5.916   0.372   1.937
14408TIP3   OH243168   4.384   3.692   2.498
14408TIP3    H143169   4.454   3.752   2.473
14408TIP3    H243170   4.399   3.615   2.443
14409TIP3   OH243171   7.654   2.329   5.138
14409TIP3    H143172   7.722   2.339   5.071
14409TIP3    H243173   7.627   2.418   5.158
14410TIP3   OH243174   8.023   1.560   0.878
14410TIP3    H143175   8.119   1.563   0.872
14410TIP3    H243176   7.997   1.496   0.812
14411TIP3   OH243177   5.408   3.910   3.557
14411TIP3    H143178   5.421   3.976   3.488
14411TIP3    H243179   5.485   3.854   3.552
14412TIP3   OH243180   7.450   6.796   4.386
14412TIP3    H143181   7.392   6.853   4.335
14412TIP3    H243182   7.392   6.741   4.437
14413TIP3   OH243183   7.453   4.295   5.257
14413TIP3    H143184   7.432   4.382   5.224
14413TIP3    H243185   7.493   4.250   5.182
14414TIP3   OH243186   8.068   5.455   2.135
14414TIP3    H143187   8.095   5.542   2.105
14414TIP3    H243188   8.026   5.472   2.219
14415TIP3   OH243189   8.066   0.936   4.196
14415TIP3    H143190   7.974   0.942   4.220
14415TIP3    H243191   8.113   0.929   4.279
14416TIP3   OH243192   4.997   4.598   2.348
14416TIP3    H143193   4.956   4.684   2.345
14416TIP3    H243194   4.958   4.555   2.424
14417TIP3   OH243195   5.711   5.855   0.792
14417TIP3    H143196   5.715   5.874   0.885
14417TIP3    H243197   5.792   5.892   0.756
14418TIP3   OH243198   0.767   6.762   3.276
14418TIP3    H143199   0.685   6.809   3.291
14418TIP3    H243200   0.747   6.701   3.205
14419TIP3   OH243201   6.505   1.875   1.048
14419TIP3    H143202   6.487   1.828   0.966
14419TIP3    H243203   6.597   1.857   1.065
14420TIP3   OH243204   3.160   1.735   0.057
14420TIP3    H143205   3.186   1.677   0.129
14420TIP3    H243206   3.191   1.689  -0.021
14421TIP3   OH243207   5.968   0.795   3.383
14421TIP3    H143208   5.956   0.882   3.347
14421TIP3    H243209   6.050   0.764   3.345
14422TIP3   OH243210   0.840   3.546   4.840
14422TIP3    H143211   0.772   3.601   4.880
14422TIP3    H243212   0.883   3.603   4.776
14423TIP3   OH243213   5.374   1.167   4.933
14423TIP3    H143214   5.347   1.124   4.852
14423TIP3    H243215   5.295   1.209   4.966
14424TIP3   OH243216   4.966   4.581   3.609
14424TIP3    H143217   4.933   4.670   3.597
14424TIP3    H243218   4.969   4.570   3.705
14425TIP3   OH243219   7.213   2.648   4.825
14425TIP3    H143220   7.288   2.684   4.872
14425TIP3    H243221   7.138   2.699   4.857
14426TIP3   OH243222   1.991   3.518   0.648
14426TIP3    H143223   1.985   3.438   0.701
14426TIP3    H243224   2.085   3.533   0.638
14427TIP3   OH243225   3.495   0.518   1.542
14427TIP3    H143226   3.521   0.469   1.620
14427TIP3    H243227   3.567   0.503   1.480
14428TIP3   OH243228   0.121   2.393   2.564
14428TIP3    H143229   0.039   2.347   2.580
14428TIP3    H243230   0.161   2.346   2.490
14429TIP3   OH243231   6.468   1.690   5.750
14429TIP3    H143232   6.510   1.776   5.750
14429TIP3    H243233   6.384   1.705   5.705
14430TIP3   OH243234   4.889   1.727   0.202
14430TIP3    H143235   4.902   1.806   0.254
14430TIP3    H243236   4.964   1.672   0.222
14431TIP3   OH243237   0.526   7.335   1.222
14431TIP3    H143238   0.551   7.354   1.131
14431TIP3    H243239   0.586   7.389   1.274
14432TIP3   OH243240   6.812   6.980   3.519
14432TIP3    H143241   6.731   7.024   3.495
14432TIP3    H243242   6.872   6.999   3.447
14433TIP3   OH243243   3.352   4.347   5.346
14433TIP3    H143244   3.313   4.387   5.424
14433TIP3    H243245   3.374   4.421   5.290
14434TIP3   OH243246   2.932   2.619   2.195
14434TIP3    H143247   3.026   2.627   2.181
14434TIP3    H243248   2.922   2.600   2.288
14435TIP3   OH243249   2.974   6.232   5.984
14435TIP3    H143250   3.033   6.166   6.020
14435TIP3    H243251   2.987   6.309   6.040
14436TIP3   OH243252   0.776   7.151   0.181
14436TIP3    H143253   0.732   7.078   0.138
14436TIP3    H243254   0.735   7.156   0.268
14437TIP3   OH243255   7.064   6.195   6.541
14437TIP3    H143256   7.050   6.150   6.624
14437TIP3    H243257   7.086   6.125   6.479
14438TIP3   OH243258   0.450   3.864   0.568
14438TIP3    H143259   0.417   3.824   0.487
14438TIP3    H243260   0.411   3.812   0.638
14439TIP3   OH243261   3.787   3.464   2.379
14439TIP3    H143262   3.871   3.446   2.338
14439TIP3    H243263   3.779   3.400   2.449
14440TIP3   OH243264   8.248   3.324   3.589
14440TIP3    H143265   8.276   3.415   3.588
14440TIP3    H243266   8.326   3.275   3.612
14441TIP3   OH243267   1.276   7.256   4.154
14441TIP3    H143268   1.364   7.293   4.165
14441TIP3    H243269   1.239   7.305   4.081
14442TIP3   OH243270   5.787   6.831   2.899
14442TIP3    H143271   5.722   6.793   2.958
14442TIP3    H243272   5.846   6.879   2.956
14443TIP3   OH243273   7.180   5.534   6.179
14443TIP3    H143274   7.210   5.456   6.226
14443TIP3    H243275   7.091   5.513   6.152
14444TIP3   OH243276   4.750   1.932   0.008
14444TIP3    H143277   4.766   1.838   0.017
14444TIP3    H243278   4.695   1.939  -0.070
14445TIP3   OH243279   1.129   5.063   1.566
14445TIP3    H143280   1.051   5.118   1.567
14445TIP3    H243281   1.197   5.118   1.528
14446TIP3   OH243282   8.054   4.848   3.076
14446TIP3    H143283   8.014   4.766   3.048
14446TIP3    H243284   8.125   4.821   3.135
14447TIP3   OH243285   3.049   6.770   5.422
14447TIP3    H143286   3.065   6.696   5.481
14447TIP3    H243287   3.002   6.834   5.476
14448TIP3   OH243288   3.096   1.373   3.438
14448TIP3    H143289   3.116   1.450   3.492
14448TIP3    H243290   3.164   1.371   3.372
14449TIP3   OH243291   1.819   5.895   6.580
14449TIP3    H143292   1.881   5.832   6.615
14449TIP3    H243293   1.873   5.967   6.547
14450TIP3   OH243294   3.011   2.839   0.755
14450TIP3    H143295   3.047   2.867   0.671
14450TIP3    H243296   3.085   2.795   0.799
14451TIP3   OH243297   6.216   5.309   6.316
14451TIP3    H143298   6.243   5.385   6.368
14451TIP3    H243299   6.263   5.319   6.233
14452TIP3   OH243300   4.626   4.456   2.443
14452TIP3    H143301   4.616   4.493   2.531
14452TIP3    H243302   4.551   4.398   2.432
14453TIP3   OH243303   2.343   5.122   5.069
14453TIP3    H143304   2.299   5.170   4.999
14453TIP3    H243305   2.290   5.043   5.080
14454TIP3   OH243306   0.546   6.506   5.701
14454TIP3    H143307   0.630   6.491   5.659
14454TIP3    H243308   0.558   6.477   5.791
14455TIP3   OH243309   5.299   1.933   5.751
14455TIP3    H143310   5.353   1.854   5.761
14455TIP3    H243311   5.219   1.913   5.799
14456TIP3   OH243312   4.370   0.480   5.819
14456TIP3    H143313   4.275   0.465   5.824
14456TIP3    H243314   4.378   0.576   5.814
14457TIP3   OH243315   1.858   0.264   1.693
14457TIP3    H143316   1.908   0.248   1.613
14457TIP3    H243317   1.802   0.339   1.671
14458TIP3   OH243318   0.517   1.190   6.673
14458TIP3    H143319   0.500   1.192   6.767
14458TIP3    H243320   0.566   1.271   6.656
14459TIP3   OH243321   1.069   7.341   5.685
14459TIP3    H143322   1.091   7.268   5.743
14459TIP3    H243323   1.068   7.302   5.598
14460TIP3   OH243324   0.539   3.316   3.482
14460TIP3    H143325   0.478   3.383   3.511
14460TIP3    H243326   0.577   3.281   3.563
14461TIP3   OH243327   6.196   2.322   3.121
14461TIP3    H143328   6.175   2.249   3.181
14461TIP3    H243329   6.236   2.280   3.046
14462TIP3   OH243330   7.410   4.368   0.058
14462TIP3    H143331   7.368   4.447   0.091
14462TIP3    H243332   7.480   4.350   0.120
14463TIP3   OH243333   4.903   0.775   0.489
14463TIP3    H143334   4.847   0.791   0.413
14463TIP3    H243335   4.844   0.736   0.554
14464TIP3   OH243336   4.813   4.270   3.755
14464TIP3    H143337   4.874   4.219   3.809
14464TIP3    H243338   4.810   4.356   3.796
14465TIP3   OH243339   4.305   0.860   3.946
14465TIP3    H143340   4.218   0.845   3.983
14465TIP3    H243341   4.288   0.908   3.865
14466TIP3   OH243342   6.379   6.799   3.650
14466TIP3    H143343   6.386   6.768   3.741
14466TIP3    H243344   6.318   6.738   3.609
14467TIP3   OH243345   7.844   4.233   3.964
14467TIP3    H143346   7.792   4.270   4.036
14467TIP3    H243347   7.895   4.307   3.931
14468TIP3   OH243348   7.929   4.569   5.910
14468TIP3    H143349   7.960   4.632   5.976
14468TIP3    H243350   7.834   4.570   5.919
14469TIP3   OH243351   2.966   3.141   6.279
14469TIP3    H143352   2.985   3.161   6.187
14469TIP3    H243353   2.988   3.048   6.288
14470TIP3   OH243354   8.157   4.759   1.279
14470TIP3    H143355   8.099   4.834   1.295
14470TIP3    H243356   8.242   4.799   1.260
14471TIP3   OH243357   7.748   1.639   2.700
14471TIP3    H143358   7.754   1.593   2.617
14471TIP3    H243359   7.818   1.601   2.754
14472TIP3   OH243360   5.641   6.274   6.265
14472TIP3    H143361   5.631   6.307   6.354
14472TIP3    H243362   5.713   6.324   6.228
14473TIP3   OH243363   1.092   1.824   6.523
14473TIP3    H143364   1.135   1.760   6.581
14473TIP3    H243365   1.012   1.848   6.570
14474TIP3   OH243366   4.785   0.343   5.983
14474TIP3    H143367   4.842   0.382   5.917
14474TIP3    H243368   4.751   0.263   5.942
14475TIP3   OH243369   6.485   0.306   5.917
14475TIP3    H143370   6.456   0.255   5.993
14475TIP3    H243371   6.415   0.369   5.902
14476TIP3   OH243372   2.687   7.509   6.743
14476TIP3    H143373   2.665   7.566   6.669
14476TIP3    H243374   2.625   7.535   6.812
14477TIP3   OH243375   5.448   1.366   0.963
14477TIP3    H143376   5.416   1.309   0.894
14477TIP3    H243377   5.442   1.454   0.927
14478TIP3   OH243378   7.747   2.997   6.094
14478TIP3    H143379   7.785   2.936   6.157
14478TIP3    H243380   7.802   2.988   6.016
14479TIP3   OH243381   6.368   5.278   2.426
14479TIP3    H143382   6.331   5.279   2.514
14479TIP3    H243383   6.392   5.187   2.411
14480TIP3   OH243384   1.767   0.246   4.502
14480TIP3    H143385   1.835   0.255   4.569
14480TIP3    H243386   1.693   0.205   4.548
14481TIP3   OH243387   5.190   6.827   0.172
14481TIP3    H143388   5.146   6.876   0.102
14481TIP3    H243389   5.138   6.748   0.183
14482TIP3   OH243390   4.944   6.077   0.540
14482TIP3    H143391   4.917   5.994   0.501
14482TIP3    H243392   5.006   6.052   0.609
14483TIP3   OH243393   5.346   6.177   4.938
14483TIP3    H143394   5.428   6.188   4.888
14483TIP3    H243395   5.363   6.104   4.997
14484TIP3   OH243396   0.350   1.387   4.906
14484TIP3    H143397   0.279   1.400   4.843
14484TIP3    H243398   0.430   1.408   4.857
14485TIP3   OH243399   2.924   1.764   2.445
14485TIP3    H143400   2.828   1.755   2.446
14485TIP3    H243401   2.956   1.675   2.431
14486TIP3   OH243402   6.822   2.386   3.960
14486TIP3    H143403   6.748   2.445   3.951
14486TIP3    H243404   6.826   2.339   3.876
14487TIP3   OH243405   6.731   3.828   6.421
14487TIP3    H143406   6.807   3.769   6.420
14487TIP3    H243407   6.767   3.912   6.395
14488TIP3   OH243408   7.287   3.221   1.981
14488TIP3    H143409   7.322   3.161   1.916
14488TIP3    H243410   7.315   3.308   1.952
14489TIP3   OH243411   6.333   3.812   4.081
14489TIP3    H143412   6.351   3.800   3.988
14489TIP3    H243413   6.399   3.875   4.110
14490TIP3   OH243414   6.261   7.458   5.410
14490TIP3    H143415   6.308   7.526   5.458
14490TIP3    H243416   6.264   7.381   5.468
14491TIP3   OH243417   1.093   1.871   6.025
14491TIP3    H143418   1.037   1.868   5.947
14491TIP3    H243419   1.032   1.870   6.098
14492TIP3   OH243420   8.140   4.016   4.780
14492TIP3    H143421   8.073   3.998   4.714
14492TIP3    H243422   8.091   4.028   4.861
14493TIP3   OH243423   7.960   6.192   4.331
14493TIP3    H143424   8.008   6.163   4.409
14493TIP3    H243425   7.889   6.246   4.365
14494TIP3   OH243426   0.174   7.235   6.752
14494TIP3    H143427   0.151   7.198   6.667
14494TIP3    H243428   0.093   7.234   6.802
14495TIP3   OH243429   5.981   4.764   4.121
14495TIP3    H143430   5.968   4.738   4.030
14495TIP3    H243431   6.056   4.824   4.119
14496TIP3   OH243432   3.175   3.271   0.084
14496TIP3    H143433   3.146   3.323   0.009
14496TIP3    H243434   3.264   3.302   0.101
14497TIP3   OH243435   1.378   6.322   2.688
14497TIP3    H143436   1.452   6.350   2.743
14497TIP3    H243437   1.417   6.301   2.604
14498TIP3   OH243438   6.203   5.739   5.618
14498TIP3    H143439   6.138   5.770   5.556
14498TIP3    H243440   6.266   5.810   5.625
14499TIP3   OH243441   6.616   2.674   3.607
14499TIP3    H143442   6.575   2.735   3.545
14499TIP3    H243443   6.659   2.609   3.551
14500TIP3   OH243444   5.261   1.399   6.201
14500TIP3    H143445   5.300   1.486   6.206
14500TIP3    H243446   5.306   1.356   6.129
14501TIP3   OH243447   4.958   6.805   5.707
14501TIP3    H143448   5.040   6.853   5.700
14501TIP3    H243449   4.942   6.797   5.801
14502TIP3   OH243450   6.170   1.323   2.068
14502TIP3    H143451   6.179   1.311   2.163
14502TIP3    H243452   6.153   1.416   2.058
14503TIP3   OH243453   7.132   4.006   4.832
14503TIP3    H143454   7.228   3.999   4.825
14503TIP3    H243455   7.111   3.965   4.916
14504TIP3   OH243456   1.464   4.931   0.045
14504TIP3    H143457   1.503   5.016   0.028
14504TIP3    H243458   1.385   4.930  -0.009
14505TIP3   OH243459   7.490   5.828   4.554
14505TIP3    H143460   7.541   5.893   4.602
14505TIP3    H243461   7.517   5.838   4.463
14506TIP3   OH243462   7.886   5.776   0.050
14506TIP3    H143463   7.865   5.853   0.103
14506TIP3    H243464   7.803   5.728   0.044
14507TIP3   OH243465   1.066   4.255   3.394
14507TIP3    H143466   1.061   4.284   3.485
14507TIP3    H243467   1.159   4.239   3.379
14508TIP3   OH243468   0.204   0.511   1.713
14508TIP3    H143469   0.211   0.417   1.694
14508TIP3    H243470   0.243   0.520   1.800
14509TIP3   OH243471   0.155   0.744   6.763
14509TIP3    H143472   0.147   0.683   6.690
14509TIP3    H243473   0.100   0.818   6.739
14510TIP3   OH243474   2.209   6.799   1.478
14510TIP3    H143475   2.187   6.837   1.562
14510TIP3    H243476   2.296   6.835   1.457
14511TIP3   OH243477   3.101   3.444   5.749
14511TIP3    H143478   3.130   3.504   5.680
14511TIP3    H243479   3.181   3.423   5.797
14512TIP3   OH243480   6.869   0.020   5.526
14512TIP3    H143481   6.944   0.079   5.528
14512TIP3    H243482   6.850   0.001   5.618
14513TIP3   OH243483   1.967   2.678   5.930
14513TIP3    H143484   1.895   2.659   5.990
14513TIP3    H243485   2.022   2.600   5.934
14514TIP3   OH243486   4.463   2.224   6.098
14514TIP3    H143487   4.426   2.165   6.032
14514TIP3    H243488   4.525   2.171   6.146
14515TIP3   OH243489   6.545   6.859   3.932
14515TIP3    H143490   6.467   6.804   3.934
14515TIP3    H243491   6.561   6.882   4.024
14516TIP3   OH243492   7.772   1.388   5.254
14516TIP3    H143493   7.847   1.447   5.253
14516TIP3    H243494   7.810   1.302   5.274
14517TIP3   OH243495   7.981   1.631   3.423
14517TIP3    H143496   7.994   1.632   3.328
14517TIP3    H243497   8.058   1.674   3.459
14518TIP3   OH243498   7.485   3.222   0.548
14518TIP3    H143499   7.529   3.306   0.535
14518TIP3    H243500   7.413   3.223   0.485
14519TIP3   OH243501   8.126   6.719   4.510
14519TIP3    H143502   8.203   6.736   4.565
14519TIP3    H243503   8.104   6.628   4.527
14520TIP3   OH243504   1.411   5.423   2.419
14520TIP3    H143505   1.462   5.434   2.338
14520TIP3    H243506   1.359   5.504   2.426
14521TIP3   OH243507   0.447   4.534   0.791
14521TIP3    H143508   0.520   4.564   0.844
14521TIP3    H243509   0.388   4.492   0.853
14522TIP3   OH243510   3.845   4.946   3.349
14522TIP3    H143511   3.880   5.008   3.412
14522TIP3    H243512   3.755   4.975   3.335
14523TIP3   OH243513   5.897   3.937   5.752
14523TIP3    H143514   5.990   3.915   5.741
14523TIP3    H243515   5.851   3.872   5.699
14524TIP3   OH243516   6.052   5.459   5.545
14524TIP3    H143517   6.123   5.520   5.564
14524TIP3    H243518   5.974   5.514   5.534
14525TIP3   OH243519   5.229   7.734   5.220
14525TIP3    H143520   5.202   7.650   5.257
14525TIP3    H243521   5.296   7.767   5.281
14526TIP3   OH243522   4.379   0.494   3.199
14526TIP3    H143523   4.311   0.510   3.265
14526TIP3    H243524   4.411   0.580   3.175
14527TIP3   OH243525   1.081   4.356   0.036
14527TIP3    H143526   1.032   4.438   0.047
14527TIP3    H243527   1.054   4.324  -0.051
14528TIP3   OH243528   7.162   1.156   3.773
14528TIP3    H143529   7.256   1.173   3.775
14528TIP3    H243530   7.122   1.243   3.775
14529TIP3   OH243531   4.841   2.972   5.779
14529TIP3    H143532   4.857   3.036   5.710
14529TIP3    H243533   4.922   2.972   5.831
14530TIP3   OH243534   6.510   3.384   3.469
14530TIP3    H143535   6.468   3.392   3.555
14530TIP3    H243536   6.601   3.364   3.489
14531TIP3   OH243537   0.988   5.784   6.001
14531TIP3    H143538   0.967   5.724   5.929
14531TIP3    H243539   0.912   5.780   6.059
14532TIP3   OH243540   1.194   4.851   4.259
14532TIP3    H143541   1.243   4.931   4.279
14532TIP3    H243542   1.137   4.875   4.186
14533TIP3   OH243543   6.138   0.871   5.148
14533TIP3    H143544   6.073   0.920   5.097
14533TIP3    H243545   6.152   0.924   5.227
14534TIP3   OH243546   7.588   6.640   0.123
14534TIP3    H143547   7.675   6.658   0.087
14534TIP3    H243548   7.563   6.721   0.168
14535TIP3   OH243549   0.794   7.047   2.844
14535TIP3    H143550   0.718   7.008   2.801
14535TIP3    H243551   0.812   6.991   2.919
14536TIP3   OH243552   0.581   0.233   2.393
14536TIP3    H143553   0.506   0.173   2.391
14536TIP3    H243554   0.573   0.284   2.312
14537TIP3   OH243555   4.051   6.647   4.027
14537TIP3    H143556   4.137   6.642   3.986
14537TIP3    H243557   4.001   6.575   3.988
14538TIP3   OH243558   1.601   2.899   5.241
14538TIP3    H143559   1.673   2.838   5.257
14538TIP3    H243560   1.522   2.848   5.258
14539TIP3   OH243561   6.037   3.313   3.400
14539TIP3    H143562   6.118   3.263   3.391
14539TIP3    H243563   6.000   3.284   3.483
14540TIP3   OH243564   2.997   7.777   3.358
14540TIP3    H143565   3.003   7.811   3.447
14540TIP3    H243566   3.033   7.689   3.363
14541TIP3   OH243567   7.634   0.187   6.622
14541TIP3    H143568   7.701   0.152   6.681
14541TIP3    H243569   7.621   0.117   6.558
14542TIP3   OH243570   2.281   2.673   1.291
14542TIP3    H143571   2.336   2.751   1.279
14542TIP3    H243572   2.334   2.615   1.345
14543TIP3   OH243573   2.650   0.954   5.862
14543TIP3    H143574   2.615   0.943   5.951
14543TIP3    H243575   2.593   0.901   5.807
14544TIP3   OH243576   3.497   5.222   2.532
14544TIP3    H143577   3.582   5.262   2.552
14544TIP3    H243578   3.514   5.128   2.539
14545TIP3   OH243579   4.399   5.697   1.334
14545TIP3    H143580   4.361   5.784   1.325
14545TIP3    H243581   4.481   5.702   1.285
14546TIP3   OH243582   6.213   6.861   5.257
14546TIP3    H143583   6.289   6.874   5.314
14546TIP3    H243584   6.195   6.948   5.220
14547TIP3   OH243585   2.124   6.178   2.332
14547TIP3    H143586   2.183   6.201   2.260
14547TIP3    H243587   2.055   6.125   2.290
14548TIP3   OH243588   1.439   3.464   2.859
14548TIP3    H143589   1.477   3.391   2.908
14548TIP3    H243590   1.494   3.472   2.781
14549TIP3   OH243591   6.007   7.496   5.275
14549TIP3    H143592   6.084   7.466   5.322
14549TIP3    H243593   5.984   7.579   5.316
14550TIP3   OH243594   7.542   7.050   4.496
14550TIP3    H143595   7.490   6.970   4.499
14550TIP3    H243596   7.574   7.062   4.586
14551TIP3   OH243597   4.283   3.357   1.357
14551TIP3    H143598   4.345   3.429   1.366
14551TIP3    H243599   4.320   3.286   1.409
14552TIP3   OH243600   4.400   1.887   4.665
14552TIP3    H143601   4.454   1.888   4.743
14552TIP3    H243602   4.393   1.794   4.642
14553TIP3   OH243603   7.283   4.788   6.505
14553TIP3    H143604   7.340   4.852   6.463
14553TIP3    H243605   7.342   4.734   6.557
14554TIP3   OH243606   4.060   1.259   6.638
14554TIP3    H143607   3.975   1.261   6.594
14554TIP3    H243608   4.121   1.226   6.571
14555TIP3   OH243609   5.713   2.903   6.512
14555TIP3    H143610   5.781   2.944   6.458
14555TIP3    H243611   5.681   2.830   6.459
14556TIP3   OH243612   6.215   0.117   0.153
14556TIP3    H143613   6.149   0.138   0.219
14556TIP3    H243614   6.261   0.042   0.189
14557TIP3   OH243615   2.742   0.627   6.018
14557TIP3    H143616   2.823   0.660   6.059
14557TIP3    H243617   2.694   0.587   6.090
14558TIP3   OH243618   5.348   5.132   0.923
14558TIP3    H143619   5.259   5.141   0.955
14558TIP3    H243620   5.370   5.218   0.887
14559TIP3   OH243621   6.947   4.036   4.658
14559TIP3    H143622   6.973   4.103   4.596
14559TIP3    H243623   7.026   4.019   4.710
14560TIP3   OH243624   8.220   5.909   6.647
14560TIP3    H143625   8.266   5.874   6.723
14560TIP3    H243626   8.251   5.857   6.573
14561TIP3   OH243627   5.506   4.149   6.710
14561TIP3    H143628   5.527   4.143   6.803
14561TIP3    H243629   5.588   4.176   6.669
14562TIP3   OH243630   2.484   3.800   2.456
14562TIP3    H143631   2.541   3.797   2.534
14562TIP3    H243632   2.441   3.885   2.461
14563TIP3   OH243633   1.157   4.943   0.124
14563TIP3    H143634   1.153   4.848   0.123
14563TIP3    H243635   1.146   4.969   0.033
14564TIP3   OH243636   3.671   7.717   5.243
14564TIP3    H143637   3.623   7.653   5.190
14564TIP3    H243638   3.613   7.793   5.248
14565TIP3   OH243639   4.152   5.938   5.294
14565TIP3    H143640   4.190   5.968   5.376
14565TIP3    H243641   4.113   6.016   5.255
14566TIP3   OH243642   6.545   2.059   3.010
14566TIP3    H143643   6.556   1.971   2.974
14566TIP3    H243644   6.560   2.118   2.936
14567TIP3   OH243645   2.444   7.246   2.306
14567TIP3    H143646   2.431   7.251   2.400
14567TIP3    H243647   2.356   7.240   2.269
14568TIP3   OH243648   2.650   7.899   4.503
14568TIP3    H143649   2.660   7.905   4.598
14568TIP3    H243650   2.683   7.811   4.481
14569TIP3   OH243651   0.896   5.129   4.358
14569TIP3    H143652   0.871   5.076   4.434
14569TIP3    H243653   0.982   5.164   4.381
14570TIP3   OH243654   7.013   6.987   0.721
14570TIP3    H143655   7.025   7.071   0.676
14570TIP3    H243656   7.063   6.924   0.668
14571TIP3   OH243657   2.918   5.528   5.888
14571TIP3    H143658   2.897   5.454   5.945
14571TIP3    H243659   2.848   5.529   5.823
14572TIP3   OH243660   2.903   2.850   2.541
14572TIP3    H143661   2.873   2.761   2.523
14572TIP3    H243662   2.828   2.892   2.583
14573TIP3   OH243663   2.815   0.577   0.552
14573TIP3    H143664   2.823   0.657   0.604
14573TIP3    H243665   2.726   0.580   0.518
14574TIP3   OH243666   0.202   4.680   4.001
14574TIP3    H143667   0.251   4.745   3.950
14574TIP3    H243668   0.206   4.712   4.091
14575TIP3   OH243669   6.730   0.527   3.666
14575TIP3    H143670   6.780   0.604   3.692
14575TIP3    H243671   6.674   0.508   3.741
14576TIP3   OH243672   6.737   3.896   2.857
14576TIP3    H143673   6.725   3.988   2.835
14576TIP3    H243674   6.712   3.848   2.778
14577TIP3   OH243675   5.791   0.584   3.841
14577TIP3    H143676   5.785   0.522   3.768
14577TIP3    H243677   5.753   0.665   3.806
14578TIP3   OH243678   1.970   4.465   3.865
14578TIP3    H143679   2.003   4.380   3.838
14578TIP3    H243680   1.995   4.472   3.957
14579TIP3   OH243681   5.205   0.608   1.965
14579TIP3    H143682   5.198   0.540   2.032
14579TIP3    H243683   5.286   0.587   1.919
14580TIP3   OH243684   7.240   6.855   0.334
14580TIP3    H143685   7.244   6.919   0.405
14580TIP3    H243686   7.147   6.845   0.316
14581TIP3   OH243687   1.544   0.904   5.450
14581TIP3    H143688   1.562   0.948   5.366
14581TIP3    H243689   1.529   0.813   5.426
14582TIP3   OH243690   7.711   2.512   6.356
14582TIP3    H143691   7.623   2.477   6.344
14582TIP3    H243692   7.741   2.474   6.439
14583TIP3   OH243693   6.254   0.104   5.248
14583TIP3    H143694   6.256   0.197   5.270
14583TIP3    H243695   6.271   0.101   5.154
14584TIP3   OH243696   7.813   6.593   6.055
14584TIP3    H143697   7.774   6.509   6.031
14584TIP3    H243698   7.867   6.574   6.132
14585TIP3   OH243699   7.655   2.725   5.300
14585TIP3    H143700   7.723   2.768   5.351
14585TIP3    H243701   7.576   2.735   5.352
14586TIP3   OH243702   3.325   4.132   6.195
14586TIP3    H143703   3.282   4.047   6.188
14586TIP3    H243704   3.418   4.113   6.185
14587TIP3   OH243705   7.124   5.968   6.383
14587TIP3    H143706   7.073   6.015   6.318
14587TIP3    H243707   7.106   5.875   6.365
14588TIP3   OH243708   6.495   5.835   0.475
14588TIP3    H143709   6.532   5.924   0.479
14588TIP3    H243710   6.550   5.790   0.410
14589TIP3   OH243711   2.922   3.233   2.154
14589TIP3    H143712   2.881   3.265   2.235
14589TIP3    H243713   2.971   3.308   2.122
14590TIP3   OH243714   7.526   4.836   1.877
14590TIP3    H143715   7.439   4.801   1.897
14590TIP3    H243716   7.553   4.788   1.799
14591TIP3   OH243717   4.400   2.027   2.746
14591TIP3    H143718   4.475   2.082   2.770
14591TIP3    H243719   4.380   1.977   2.825
14592TIP3   OH243720   4.423   6.723   1.710
14592TIP3    H143721   4.489   6.793   1.716
14592TIP3    H243722   4.473   6.643   1.725
14593TIP3   OH243723   0.598   3.030   5.755
14593TIP3    H143724   0.609   2.936   5.738
14593TIP3    H243725   0.553   3.064   5.678
14594TIP3   OH243726   7.193   3.119   6.124
14594TIP3    H143727   7.172   3.072   6.043
14594TIP3    H243728   7.276   3.082   6.152
14595TIP3   OH243729   8.286   0.201   1.738
14595TIP3    H143730   8.307   0.108   1.745
14595TIP3    H243731   8.282   0.217   1.644
14596TIP3   OH243732   6.061   5.763   4.684
14596TIP3    H143733   6.092   5.684   4.728
14596TIP3    H243734   6.135   5.823   4.687
14597TIP3   OH243735   1.855   2.970   1.943
14597TIP3    H143736   1.823   2.900   1.999
14597TIP3    H243737   1.805   3.047   1.968
14598TIP3   OH243738   3.991   6.877   5.542
14598TIP3    H143739   3.932   6.804   5.520
14598TIP3    H243740   4.077   6.837   5.549
14599TIP3   OH243741   7.744   7.232   1.896
14599TIP3    H143742   7.751   7.327   1.908
14599TIP3    H243743   7.805   7.195   1.960
14600TIP3   OH243744   0.115   4.011   4.243
14600TIP3    H143745   0.159   3.930   4.215
14600TIP3    H243746   0.179   4.055   4.299
14601TIP3   OH243747   0.469   1.120   4.888
14601TIP3    H143748   0.386   1.167   4.900
14601TIP3    H243749   0.478   1.067   4.967
14602TIP3   OH243750   5.231   0.562   4.519
14602TIP3    H143751   5.231   0.595   4.429
14602TIP3    H243752   5.297   0.614   4.564
14603TIP3   OH243753   4.054   1.783   6.414
14603TIP3    H143754   4.044   1.721   6.487
14603TIP3    H243755   3.999   1.858   6.439
14604TIP3   OH243756   7.271   0.448   6.433
14604TIP3    H143757   7.296   0.422   6.522
14604TIP3    H243758   7.213   0.523   6.446
14605TIP3   OH243759   6.171   2.205   4.989
14605TIP3    H143760   6.123   2.232   4.911
14605TIP3    H243761   6.181   2.110   4.979
14606TIP3   OH243762   1.671   5.230   5.653
14606TIP3    H143763   1.764   5.250   5.660
14606TIP3    H243764   1.630   5.312   5.625
14607TIP3   OH243765   7.909   0.175   4.832
14607TIP3    H143766   7.848   0.243   4.804
14607TIP3    H243767   7.957   0.151   4.753
14608TIP3   OH243768   0.798   2.740   5.115
14608TIP3    H143769   0.887   2.752   5.083
14608TIP3    H243770   0.768   2.829   5.134
14609TIP3   OH243771   7.868   4.355   5.590
14609TIP3    H143772   7.855   4.294   5.662
14609TIP3    H243773   7.791   4.346   5.535
14610TIP3   OH243774   1.314   4.957   2.299
14610TIP3    H143775   1.313   4.932   2.207
14610TIP3    H243776   1.254   4.896   2.342
14611TIP3   OH243777   5.812   7.034   0.729
14611TIP3    H143778   5.864   7.094   0.784
14611TIP3    H243779   5.836   7.058   0.640
14612TIP3   OH243780   0.150   7.431   5.152
14612TIP3    H143781   0.212   7.489   5.108
14612TIP3    H243782   0.075   7.427   5.093
14613TIP3   OH243783   7.105   6.007   4.056
14613TIP3    H143784   7.035   5.984   4.117
14613TIP3    H243785   7.064   6.064   3.992
14614TIP3   OH243786   4.696   3.282   2.555
14614TIP3    H143787   4.703   3.377   2.558
14614TIP3    H243788   4.654   3.264   2.470
14615TIP3   OH243789   2.032   5.372   4.583
14615TIP3    H143790   2.013   5.315   4.508
14615TIP3    H243791   2.062   5.453   4.544
14616TIP3   OH243792   5.448   3.215   4.609
14616TIP3    H143793   5.478   3.252   4.692
14616TIP3    H243794   5.392   3.283   4.571
14617TIP3   OH243795   5.657   3.276   2.156
14617TIP3    H143796   5.707   3.314   2.228
14617TIP3    H243797   5.576   3.327   2.152
14618TIP3   OH243798   7.319   6.661   2.159
14618TIP3    H143799   7.328   6.644   2.065
14618TIP3    H243800   7.243   6.609   2.186
14619TIP3   OH243801   1.545   0.269   3.670
14619TIP3    H143802   1.504   0.246   3.587
14619TIP3    H243803   1.540   0.365   3.672
14620TIP3   OH243804   7.770   2.692   5.777
14620TIP3    H143805   7.827   2.631   5.730
14620TIP3    H243806   7.773   2.773   5.725
14621TIP3   OH243807   7.286   5.756   6.040
14621TIP3    H143808   7.198   5.767   6.076
14621TIP3    H243809   7.288   5.665   6.009
14622TIP3   OH243810   0.036   7.085   4.969
14622TIP3    H143811   0.015   7.106   4.878
14622TIP3    H243812   0.104   7.147   4.994
14623TIP3   OH243813   6.680   0.177   0.139
14623TIP3    H143814   6.734   0.213   0.210
14623TIP3    H243815   6.696   0.083   0.142
14624TIP3   OH243816   1.701   4.374   2.544
14624TIP3    H143817   1.745   4.442   2.595
14624TIP3    H243818   1.686   4.414   2.458
14625TIP3   OH243819   7.766   0.972   5.946
14625TIP3    H143820   7.754   0.969   6.041
14625TIP3    H243821   7.861   0.963   5.934
14626TIP3   OH243822   1.121   0.978   2.152
14626TIP3    H143823   1.153   0.927   2.077
14626TIP3    H243824   1.029   0.993   2.133
14627TIP3   OH243825   0.932   5.373   0.195
14627TIP3    H143826   0.866   5.442   0.202
14627TIP3    H243827   1.008   5.409   0.241
14628TIP3   OH243828   5.663   6.903   3.314
14628TIP3    H143829   5.616   6.880   3.234
14628TIP3    H243830   5.641   6.833   3.376
14629TIP3   OH243831   0.491   6.096   6.559
14629TIP3    H143832   0.586   6.085   6.552
14629TIP3    H243833   0.460   6.104   6.469
14630TIP3   OH243834   5.536   4.974   6.190
14630TIP3    H143835   5.473   4.986   6.119
14630TIP3    H243836   5.604   4.918   6.153
14631TIP3   OH243837   2.609   6.971   1.232
14631TIP3    H143838   2.651   6.886   1.219
14631TIP3    H243839   2.567   6.991   1.148
14632TIP3   OH243840   6.772   1.671   2.109
14632TIP3    H143841   6.801   1.721   2.185
14632TIP3    H243842   6.780   1.579   2.136
14633TIP3   OH243843   6.442   1.786   2.259
14633TIP3    H143844   6.450   1.719   2.191
14633TIP3    H243845   6.463   1.868   2.214
14634TIP3   OH243846   4.503   0.546   4.476
14634TIP3    H143847   4.442   0.619   4.472
14634TIP3    H243848   4.538   0.539   4.387
14635TIP3   OH243849   0.393   1.038   6.314
14635TIP3    H143850   0.489   1.045   6.308
14635TIP3    H243851   0.371   0.971   6.249
14636TIP3   OH243852   5.207   5.730   1.679
14636TIP3    H143853   5.279   5.778   1.721
14636TIP3    H243854   5.245   5.644   1.660
14637TIP3   OH243855   1.732   1.237   5.466
14637TIP3    H143856   1.706   1.328   5.471
14637TIP3    H243857   1.795   1.226   5.538
14638TIP3   OH243858   5.728   1.594   6.448
14638TIP3    H143859   5.721   1.498   6.455
14638TIP3    H243860   5.702   1.613   6.358
14639TIP3   OH243861   4.633   7.492   4.577
14639TIP3    H143862   4.673   7.577   4.559
14639TIP3    H243863   4.611   7.495   4.670
14640TIP3   OH243864   1.228   5.211   2.938
14640TIP3    H143865   1.239   5.306   2.936
14640TIP3    H243866   1.184   5.193   3.021
14641TIP3   OH243867   0.169   5.361   0.059
14641TIP3    H143868   0.204   5.358   0.149
14641TIP3    H243869   0.156   5.454   0.042
14642TIP3   OH243870   2.462   4.727   5.163
14642TIP3    H143871   2.543   4.778   5.165
14642TIP3    H243872   2.396   4.788   5.131
14643TIP3   OH243873   7.572   0.640   3.480
14643TIP3    H143874   7.601   0.558   3.438
14643TIP3    H243875   7.541   0.694   3.407
14644TIP3   OH243876   7.124   4.144   5.856
14644TIP3    H143877   7.177   4.108   5.927
14644TIP3    H243878   7.095   4.067   5.807
14645TIP3   OH243879   4.961   6.595   3.645
14645TIP3    H143880   4.913   6.605   3.727
14645TIP3    H243881   4.893   6.583   3.579
14646TIP3   OH243882   0.931   0.272   4.696
14646TIP3    H143883   0.910   0.358   4.732
14646TIP3    H243884   0.888   0.210   4.755
14647TIP3   OH243885   2.920   5.857   0.788
14647TIP3    H143886   2.844   5.799   0.780
14647TIP3    H243887   2.884   5.944   0.775
14648TIP3   OH243888   0.615   2.740   2.957
14648TIP3    H143889   0.633   2.647   2.942
14648TIP3    H243890   0.689   2.770   3.010
14649TIP3   OH243891   4.060   7.464   4.683
14649TIP3    H143892   4.153   7.441   4.673
14649TIP3    H243893   4.046   7.464   4.778
14650TIP3   OH243894   3.862   5.447   6.464
14650TIP3    H143895   3.841   5.510   6.395
14650TIP3    H243896   3.853   5.496   6.546
14651TIP3   OH243897   3.248   1.308   0.413
14651TIP3    H143898   3.218   1.262   0.334
14651TIP3    H243899   3.338   1.334   0.392
14652TIP3   OH243900   1.285   3.959   3.480
14652TIP3    H143901   1.346   3.933   3.410
14652TIP3    H243902   1.301   3.896   3.550
14653TIP3   OH243903   3.227   7.115   1.755
14653TIP3    H143904   3.305   7.162   1.724
14653TIP3    H243905   3.250   7.088   1.845
14654TIP3   OH243906   4.661   6.091   3.211
14654TIP3    H143907   4.728   6.031   3.243
14654TIP3    H243908   4.590   6.035   3.180
14655TIP3   OH243909   2.734   3.379   5.122
14655TIP3    H143910   2.685   3.314   5.072
14655TIP3    H243911   2.813   3.395   5.070
14656TIP3   OH243912   6.121   3.842   2.096
14656TIP3    H143913   6.185   3.909   2.117
14656TIP3    H243914   6.117   3.786   2.174
14657TIP3   OH243915   1.801   4.387   4.589
14657TIP3    H143916   1.712   4.421   4.596
14657TIP3    H243917   1.826   4.367   4.679
14658TIP3   OH243918   6.201   3.955   3.877
14658TIP3    H143919   6.141   3.921   3.944
14658TIP3    H243920   6.217   3.881   3.819
14659TIP3   OH243921   1.872   1.770   1.365
14659TIP3    H143922   1.813   1.767   1.289
14659TIP3    H243923   1.883   1.864   1.383
14660TIP3   OH243924   1.921   7.129   0.009
14660TIP3    H143925   1.990   7.192  -0.014
14660TIP3    H243926   1.878   7.168   0.085
14661TIP3   OH243927   4.418   1.456   6.373
14661TIP3    H143928   4.400   1.444   6.467
14661TIP3    H243929   4.509   1.486   6.370
14662TIP3   OH243930   6.220   1.601   0.869
14662TIP3    H143931   6.311   1.629   0.879
14662TIP3    H243932   6.226   1.506   0.858
14663TIP3   OH243933   3.875   7.215   6.267
14663TIP3    H143934   3.936   7.270   6.218
14663TIP3    H243935   3.896   7.125   6.241
14664TIP3   OH243936   6.183   5.067   2.312
14664TIP3    H143937   6.183   5.161   2.327
14664TIP3    H243938   6.180   5.058   2.217
14665TIP3   OH243939   7.117   0.132   3.043
14665TIP3    H143940   7.206   0.144   3.011
14665TIP3    H243941   7.122   0.058   3.103
14666TIP3   OH243942   3.041   5.948   1.644
14666TIP3    H143943   3.061   5.866   1.598
14666TIP3    H243944   3.025   5.921   1.734
14667TIP3   OH243945   5.758   7.085   4.757
14667TIP3    H143946   5.757   7.049   4.846
14667TIP3    H243947   5.827   7.151   4.759
14668TIP3   OH243948   8.325   7.747   4.950
14668TIP3    H143949   8.289   7.701   4.874
14668TIP3    H243950   8.277   7.710   5.024
14669TIP3   OH243951   3.404   3.932   6.722
14669TIP3    H143952   3.326   3.877   6.734
14669TIP3    H243953   3.389   3.977   6.639
14670TIP3   OH243954   2.718   4.254   3.140
14670TIP3    H143955   2.631   4.238   3.104
14670TIP3    H243956   2.770   4.285   3.066
14671TIP3   OH243957   8.251   7.745   4.018
14671TIP3    H143958   8.222   7.748   4.109
14671TIP3    H243959   8.244   7.836   3.988
14672TIP3   OH243960   7.726   0.938   3.861
14672TIP3    H143961   7.634   0.955   3.878
14672TIP3    H243962   7.759   0.901   3.943
14673TIP3   OH243963   3.819   5.928   0.239
14673TIP3    H143964   3.851   6.017   0.228
14673TIP3    H243965   3.896   5.877   0.266
14674TIP3   OH243966   4.177   7.065   2.837
14674TIP3    H143967   4.172   7.015   2.756
14674TIP3    H243968   4.087   7.092   2.855
14675TIP3   OH243969   6.107   3.018   3.046
14675TIP3    H143970   6.172   2.950   3.068
14675TIP3    H243971   6.023   2.976   3.062
14676TIP3   OH243972   8.143   5.861   2.326
14676TIP3    H143973   8.178   5.800   2.261
14676TIP3    H243974   8.218   5.885   2.380
14677TIP3   OH243975   5.553   6.165   1.501
14677TIP3    H143976   5.575   6.167   1.594
14677TIP3    H243977   5.501   6.085   1.491
14678TIP3   OH243978   3.173   0.505   4.702
14678TIP3    H143979   3.174   0.461   4.787
14678TIP3    H243980   3.250   0.563   4.705
14679TIP3   OH243981   1.493   2.447   6.324
14679TIP3    H143982   1.484   2.528   6.274
14679TIP3    H243983   1.427   2.388   6.287
14680TIP3   OH243984   1.111   4.046   2.643
14680TIP3    H143985   1.144   4.032   2.554
14680TIP3    H243986   1.180   4.097   2.686
14681TIP3   OH243987   4.895   4.079   0.390
14681TIP3    H143988   4.848   4.027   0.455
14681TIP3    H243989   4.985   4.082   0.423
14682TIP3   OH243990   8.296   7.381   1.471
14682TIP3    H143991   8.357   7.310   1.454
14682TIP3    H243992   8.229   7.343   1.527
14683TIP3   OH243993   6.915   0.846   5.684
14683TIP3    H143994   6.884   0.761   5.651
14683TIP3    H243995   6.872   0.910   5.627
14684TIP3   OH243996   6.824   5.204   4.748
14684TIP3    H143997   6.730   5.192   4.734
14684TIP3    H243998   6.836   5.188   4.841
14685TIP3   OH243999   4.373   1.627   0.606
14685TIP3    H144000   4.417   1.552   0.646
14685TIP3    H244001   4.430   1.701   0.625
14686TIP3   OH244002   3.288   7.189   3.535
14686TIP3    H144003   3.317   7.279   3.551
14686TIP3    H244004   3.198   7.187   3.568
14687TIP3   OH244005   2.230   7.531   6.354
14687TIP3    H144006   2.255   7.612   6.311
14687TIP3    H244007   2.313   7.484   6.368
14688TIP3   OH244008   1.359   4.308   0.834
14688TIP3    H144009   1.372   4.310   0.739
14688TIP3    H244010   1.446   4.324   0.870
14689TIP3   OH244011   0.237   1.032   3.265
14689TIP3    H144012   0.256   0.946   3.301
14689TIP3    H244013   0.236   1.018   3.170
14690TIP3   OH244014   4.118   0.446   3.064
14690TIP3    H144015   4.093   0.427   3.155
14690TIP3    H244016   4.156   0.534   3.068
14691TIP3   OH244017   4.412   2.306   3.377
14691TIP3    H144018   4.435   2.399   3.377
14691TIP3    H244019   4.331   2.301   3.327
14692TIP3   OH244020   5.229   5.320   1.846
14692TIP3    H144021   5.202   5.253   1.909
14692TIP3    H244022   5.167   5.311   1.773
14693TIP3   OH244023   2.964   0.004   5.593
14693TIP3    H144024   3.027   0.072   5.569
14693TIP3    H244025   2.907   0.046   5.657
14694TIP3   OH244026   6.943   4.861   5.672
14694TIP3    H144027   6.851   4.886   5.682
14694TIP3    H244028   6.977   4.858   5.762
14695TIP3   OH244029   7.031   6.884   5.978
14695TIP3    H144030   7.077   6.810   5.940
14695TIP3    H244031   6.974   6.846   6.045
14696TIP3   OH244032   3.858   0.806   4.631
14696TIP3    H144033   3.851   0.806   4.726
14696TIP3    H244034   3.818   0.724   4.603
14697TIP3   OH244035   6.745   7.132   4.297
14697TIP3    H144036   6.838   7.116   4.314
14697TIP3    H244037   6.745   7.185   4.218
14698TIP3   OH244038   0.944   1.280   0.913
14698TIP3    H144039   0.960   1.367   0.877
14698TIP3    H244040   0.999   1.275   0.991
14699TIP3   OH244041   1.275   5.831   5.044
14699TIP3    H144042   1.226   5.850   4.964
14699TIP3    H244043   1.208   5.812   5.110
14700TIP3   OH244044   0.219   5.153   5.383
14700TIP3    H144045   0.165   5.160   5.462
14700TIP3    H244046   0.303   5.192   5.408
14701TIP3   OH244047   4.592   1.121   6.638
14701TIP3    H144048   4.585   1.052   6.572
14701TIP3    H244049   4.525   1.099   6.703
14702TIP3   OH244050   5.350   7.324   0.973
14702TIP3    H144051   5.275   7.372   1.008
14702TIP3    H244052   5.361   7.359   0.885
14703TIP3   OH244053   5.072   6.572   0.204
14703TIP3    H144054   5.065   6.546   0.112
14703TIP3    H244055   4.983   6.564   0.238
14704TIP3   OH244056   3.092   7.419   0.878
14704TIP3    H144057   2.997   7.421   0.890
14704TIP3    H244058   3.115   7.326   0.880
14705TIP3   OH244059   2.273   5.682   5.078
14705TIP3    H144060   2.332   5.689   5.153
14705TIP3    H244061   2.243   5.591   5.079
14706TIP3   OH244062   1.350   7.506   6.349
14706TIP3    H144063   1.275   7.462   6.387
14706TIP3    H244064   1.399   7.437   6.304
14707TIP3   OH244065   5.696   1.162   0.858
14707TIP3    H144066   5.650   1.177   0.940
14707TIP3    H244067   5.712   1.067   0.856
14708TIP3   OH244068   2.281   6.272   0.069
14708TIP3    H144069   2.242   6.200   0.119
14708TIP3    H244070   2.360   6.236   0.031
14709TIP3   OH244071   1.753   3.719   4.318
14709TIP3    H144072   1.830   3.714   4.376
14709TIP3    H244073   1.716   3.631   4.321
14710TIP3   OH244074   3.618   7.349   1.322
14710TIP3    H144075   3.599   7.414   1.389
14710TIP3    H244076   3.605   7.265   1.366
14711TIP3   OH244077   1.158   1.045   3.099
14711TIP3    H144078   1.069   1.068   3.074
14711TIP3    H244079   1.204   1.031   3.016
14712TIP3   OH244080   0.174   2.272   0.706
14712TIP3    H144081   0.174   2.293   0.613
14712TIP3    H244082   0.180   2.177   0.709
14713TIP3   OH244083   0.372   0.080   2.286
14713TIP3    H144084   0.283   0.113   2.279
14713TIP3    H244085   0.372   0.000   2.234
14714TIP3   OH244086   0.217   5.595   2.324
14714TIP3    H144087   0.296   5.579   2.377
14714TIP3    H244088   0.219   5.689   2.307
14715TIP3   OH244089   1.734   6.654   2.442
14715TIP3    H144090   1.683   6.669   2.363
14715TIP3    H244091   1.825   6.659   2.413
14716TIP3   OH244092   6.976   4.734   4.291
14716TIP3    H144093   6.960   4.658   4.235
14716TIP3    H244094   7.019   4.797   4.234
14717TIP3   OH244095   4.978   5.869   1.656
14717TIP3    H144096   4.993   5.936   1.723
14717TIP3    H244097   5.059   5.819   1.654
14718TIP3   OH244098   4.182   2.777   1.463
14718TIP3    H144099   4.236   2.734   1.529
14718TIP3    H244100   4.132   2.843   1.511
14719TIP3   OH244101   7.844   1.672   3.918
14719TIP3    H144102   7.834   1.577   3.921
14719TIP3    H244103   7.825   1.695   3.827
14720TIP3   OH244104   0.803   7.743   5.850
14720TIP3    H144105   0.898   7.744   5.851
14720TIP3    H244106   0.778   7.826   5.810
14721TIP3   OH244107   5.997   3.856   0.659
14721TIP3    H144108   6.031   3.887   0.575
14721TIP3    H244109   5.975   3.764   0.643
14722TIP3   OH244110   8.226   0.547   2.593
14722TIP3    H144111   8.262   0.493   2.522
14722TIP3    H244112   8.146   0.503   2.619
14723TIP3   OH244113   7.826   1.720   0.234
14723TIP3    H144114   7.858   1.779   0.165
14723TIP3    H244115   7.731   1.724   0.227
14724TIP3   OH244116   0.656   2.977   4.720
14724TIP3    H144117   0.619   2.893   4.749
14724TIP3    H244118   0.668   2.966   4.626
14725TIP3   OH244119   4.853   2.735   0.770
14725TIP3    H144120   4.921   2.765   0.829
14725TIP3    H244121   4.885   2.651   0.737
14726TIP3   OH244122   3.431   6.494   4.406
14726TIP3    H144123   3.370   6.458   4.470
14726TIP3    H244124   3.430   6.433   4.333
14727TIP3   OH244125   7.884   4.573   2.332
14727TIP3    H144126   7.871   4.492   2.381
14727TIP3    H244127   7.978   4.586   2.330
14728TIP3   OH244128   0.858   0.887   3.118
14728TIP3    H144129   0.824   0.807   3.159
14728TIP3    H244130   0.858   0.868   3.024
14729TIP3   OH244131   2.474   6.609   1.380
14729TIP3    H144132   2.549   6.668   1.393
14729TIP3    H244133   2.429   6.645   1.304
14730TIP3   OH244134   5.889   3.913   1.744
14730TIP3    H144135   5.957   3.953   1.690
14730TIP3    H244136   5.936   3.849   1.797
14731TIP3   OH244137   6.510   4.290   3.727
14731TIP3    H144138   6.471   4.288   3.640
14731TIP3    H244139   6.478   4.211   3.771
14732TIP3   OH244140   4.398   7.547   6.442
14732TIP3    H144141   4.342   7.470   6.437
14732TIP3    H244142   4.442   7.539   6.527
14733TIP3   OH244143   1.450   6.811   5.008
14733TIP3    H144144   1.505   6.887   4.990
14733TIP3    H244145   1.507   6.750   5.053
14734TIP3   OH244146   1.920   1.509   1.167
14734TIP3    H144147   1.850   1.472   1.222
14734TIP3    H244148   2.000   1.471   1.203
14735TIP3   OH244149   3.394   6.530   2.275
14735TIP3    H144150   3.344   6.583   2.338
14735TIP3    H244151   3.457   6.592   2.238
14736TIP3   OH244152   4.286   3.266   6.275
14736TIP3    H144153   4.343   3.307   6.340
14736TIP3    H244154   4.200   3.265   6.317
14737TIP3   OH244155   0.605   5.480   2.601
14737TIP3    H144156   0.542   5.466   2.672
14737TIP3    H244157   0.675   5.533   2.641
14738TIP3   OH244158   4.103   1.815   2.162
14738TIP3    H144159   4.182   1.852   2.121
14738TIP3    H244160   4.041   1.888   2.164
14739TIP3   OH244161   3.873   2.137   0.446
14739TIP3    H144162   3.828   2.079   0.508
14739TIP3    H244163   3.810   2.207   0.429
14740TIP3   OH244164   7.525   6.079   1.958
14740TIP3    H144165   7.437   6.050   1.932
14740TIP3    H244166   7.570   5.999   1.984
14741TIP3   OH244167   6.231   5.541   5.809
14741TIP3    H144168   6.225   5.611   5.744
14741TIP3    H244169   6.276   5.470   5.764
14742TIP3   OH244170   0.598   1.528   5.157
14742TIP3    H144171   0.517   1.537   5.206
14742TIP3    H244172   0.588   1.587   5.082
14743TIP3   OH244173   6.457   5.739   2.195
14743TIP3    H144174   6.397   5.797   2.147
14743TIP3    H244175   6.404   5.663   2.218
14744TIP3   OH244176   1.667   6.973   4.970
14744TIP3    H144177   1.719   6.982   5.050
14744TIP3    H244178   1.727   6.936   4.906
14745TIP3   OH244179   3.518   4.857   2.089
14745TIP3    H144180   3.462   4.822   2.020
14745TIP3    H244181   3.473   4.833   2.171
14746TIP3   OH244182   8.134   2.339   4.976
14746TIP3    H144183   8.211   2.361   5.028
14746TIP3    H244184   8.161   2.265   4.922
14747TIP3   OH244185   0.992   2.651   0.284
14747TIP3    H144186   1.052   2.722   0.305
14747TIP3    H244187   1.047   2.573   0.279
14748TIP3   OH244188   2.740   7.683   3.469
14748TIP3    H144189   2.773   7.687   3.379
14748TIP3    H244190   2.816   7.703   3.524
14749TIP3   OH244191   2.184   2.956   4.544
14749TIP3    H144192   2.167   3.000   4.627
14749TIP3    H244193   2.109   2.898   4.532
14750TIP3   OH244194   6.910   3.001   5.980
14750TIP3    H144195   6.887   3.089   6.008
14750TIP3    H244196   6.876   2.993   5.891
14751TIP3   OH244197   3.590   6.329   5.374
14751TIP3    H144198   3.663   6.308   5.432
14751TIP3    H244199   3.521   6.360   5.433
14752TIP3   OH244200   7.960   5.842   3.641
14752TIP3    H144201   8.019   5.917   3.639
14752TIP3    H244202   7.951   5.821   3.734
14753TIP3   OH244203   0.309   3.059   6.070
14753TIP3    H144204   0.367   2.987   6.045
14753TIP3    H244205   0.224   3.034   6.035
14754TIP3   OH244206   5.363   1.364   6.587
14754TIP3    H144207   5.363   1.274   6.553
14754TIP3    H244208   5.369   1.419   6.509
14755TIP3   OH244209   1.855   6.808   0.290
14755TIP3    H144210   1.815   6.860   0.360
14755TIP3    H244211   1.925   6.863   0.256
14756TIP3   OH244212   7.709   7.159   0.358
14756TIP3    H144213   7.776   7.096   0.334
14756TIP3    H244214   7.750   7.213   0.425
14757TIP3   OH244215   1.471   6.037   0.101
14757TIP3    H144216   1.479   6.098   0.174
14757TIP3    H244217   1.561   6.024   0.070
14758TIP3   OH244218   2.698   3.316   0.623
14758TIP3    H144219   2.747   3.252   0.675
14758TIP3    H244220   2.760   3.388   0.609
14759TIP3   OH244221   3.126   3.968   4.707
14759TIP3    H144222   3.073   3.991   4.783
14759TIP3    H244223   3.070   3.991   4.632
14760TIP3   OH244224   2.177   0.609   6.197
14760TIP3    H144225   2.258   0.660   6.187
14760TIP3    H244226   2.117   0.669   6.241
14761TIP3   OH244227   1.837   3.175   2.516
14761TIP3    H144228   1.848   3.264   2.481
14761TIP3    H244229   1.775   3.133   2.457
14762TIP3   OH244230   2.416   0.743   3.405
14762TIP3    H144231   2.417   0.744   3.501
14762TIP3    H244232   2.471   0.668   3.382
14763TIP3   OH244233   7.809   5.277   0.783
14763TIP3    H144234   7.845   5.332   0.853
14763TIP3    H244235   7.768   5.339   0.723
14764TIP3   OH244236   3.706   5.833   4.842
14764TIP3    H144237   3.771   5.764   4.830
14764TIP3    H244238   3.622   5.788   4.835
14765TIP3   OH244239   0.463   3.400   0.836
14765TIP3    H144240   0.511   3.477   0.864
14765TIP3    H244241   0.492   3.330   0.895
14766TIP3   OH244242   0.459   3.882   4.524
14766TIP3    H144243   0.392   3.883   4.592
14766TIP3    H244244   0.410   3.871   4.442
14767TIP3   OH244245   0.352   0.462   1.940
14767TIP3    H144246   0.342   0.509   2.023
14767TIP3    H244247   0.446   0.457   1.926
14768TIP3   OH244248   4.244   0.988   0.736
14768TIP3    H144249   4.256   0.901   0.697
14768TIP3    H244250   4.294   1.047   0.680
14769TIP3   OH244251   3.629   4.228   4.393
14769TIP3    H144252   3.594   4.171   4.462
14769TIP3    H244253   3.696   4.175   4.350
14770TIP3   OH244254   3.806   5.900   3.480
14770TIP3    H144255   3.727   5.914   3.427
14770TIP3    H244256   3.878   5.901   3.417
14771TIP3   OH244257   3.255   6.775   3.385
14771TIP3    H144258   3.347   6.746   3.392
14771TIP3    H244259   3.251   6.854   3.439
14772TIP3   OH244260   2.919   0.216   1.510
14772TIP3    H144261   2.837   0.167   1.499
14772TIP3    H244262   2.943   0.244   1.421
14773TIP3   OH244263   5.310   2.447   0.038
14773TIP3    H144264   5.270   2.521   0.084
14773TIP3    H244265   5.261   2.370   0.067
14774TIP3   OH244266   6.958   7.656   0.033
14774TIP3    H144267   6.873   7.644  -0.010
14774TIP3    H244268   6.991   7.738  -0.005
14775TIP3   OH244269   2.767   5.761   2.638
14775TIP3    H144270   2.772   5.733   2.546
14775TIP3    H244271   2.772   5.856   2.634
14776TIP3   OH244272   7.153   0.697   6.405
14776TIP3    H144273   7.209   0.715   6.329
14776TIP3    H244274   7.090   0.769   6.405
14777TIP3   OH244275   3.320   6.444   4.900
14777TIP3    H144276   3.365   6.411   4.978
14777TIP3    H244277   3.324   6.539   4.908
14778TIP3   OH244278   5.944   1.072   6.167
14778TIP3    H144279   5.935   1.167   6.166
14778TIP3    H244280   5.972   1.052   6.256
14779TIP3   OH244281   8.243   3.026   5.437
14779TIP3    H144282   8.214   2.969   5.366
14779TIP3    H244283   8.314   3.078   5.399
14780TIP3   OH244284   0.162   6.295   0.503
14780TIP3    H144285   0.215   6.278   0.580
14780TIP3    H244286   0.225   6.313   0.433
14781TIP3   OH244287   2.245   1.892   5.748
14781TIP3    H144288   2.234   1.982   5.779
14781TIP3    H244289   2.188   1.840   5.804
14782TIP3   OH244290   0.913   7.759   2.349
14782TIP3    H144291   0.872   7.839   2.383
14782TIP3    H244292   0.839   7.702   2.327
14783TIP3   OH244293   3.593   3.314   1.955
14783TIP3    H144294   3.577   3.370   1.879
14783TIP3    H244295   3.592   3.375   2.029
14784TIP3   OH244296   6.639   0.733   4.022
14784TIP3    H144297   6.551   0.770   4.011
14784TIP3    H244298   6.661   0.749   4.114
14785TIP3   OH244299   4.272   4.477   6.655
14785TIP3    H144300   4.282   4.382   6.667
14785TIP3    H244301   4.237   4.486   6.567
14786TIP3   OH244302   1.323   4.309   3.914
14786TIP3    H144303   1.276   4.301   3.831
14786TIP3    H244304   1.261   4.349   3.974
14787TIP3   OH244305   8.275   7.469   2.153
14787TIP3    H144306   8.316   7.473   2.066
14787TIP3    H244307   8.181   7.459   2.134
14788TIP3   OH244308   2.937   0.669   1.381
14788TIP3    H144309   2.970   0.597   1.328
14788TIP3    H244310   2.926   0.741   1.319
14789TIP3   OH244311   7.868   0.449   0.218
14789TIP3    H144312   7.839   0.382   0.279
14789TIP3    H244313   7.792   0.505   0.205
14790TIP3   OH244314   0.300   1.272   3.097
14790TIP3    H144315   0.206   1.251   3.089
14790TIP3    H244316   0.304   1.367   3.089
14791TIP3   OH244317   5.104   0.979   0.047
14791TIP3    H144318   5.093   0.884   0.044
14791TIP3    H244319   5.027   1.013   0.001
14792TIP3   OH244320   0.657   7.785   5.295
14792TIP3    H144321   0.699   7.709   5.254
14792TIP3    H244322   0.581   7.803   5.240
14793TIP3   OH244323   5.234   2.886   3.244
14793TIP3    H144324   5.194   2.853   3.324
14793TIP3    H244325   5.267   2.973   3.269
14794TIP3   OH244326   2.836   6.465   0.242
14794TIP3    H144327   2.765   6.447   0.304
14794TIP3    H244328   2.823   6.557   0.217
14795TIP3   OH244329   2.181   4.017   0.108
14795TIP3    H144330   2.248   3.984   0.168
14795TIP3    H244331   2.151   4.099   0.148
14796TIP3   OH244332   6.122   1.812   1.053
14796TIP3    H144333   6.166   1.754   0.990
14796TIP3    H244334   6.137   1.900   1.019
14797TIP3   OH244335   4.772   3.214   0.294
14797TIP3    H144336   4.807   3.267   0.366
14797TIP3    H244337   4.846   3.206   0.233
14798TIP3   OH244338   7.740   5.136   4.892
14798TIP3    H144339   7.772   5.099   4.974
14798TIP3    H244340   7.742   5.231   4.907
14799TIP3   OH244341   0.511   6.934   1.718
14799TIP3    H144342   0.525   6.989   1.641
14799TIP3    H244343   0.550   6.983   1.790
14800TIP3   OH244344   4.359   5.479   1.717
14800TIP3    H144345   4.409   5.558   1.734
14800TIP3    H244346   4.414   5.408   1.751
14801TIP3   OH244347   3.880   0.474   5.043
14801TIP3    H144348   3.847   0.564   5.036
14801TIP3    H244349   3.885   0.443   4.953
14802TIP3   OH244350   2.864   4.172   2.304
14802TIP3    H144351   2.878   4.084   2.271
14802TIP3    H244352   2.944   4.194   2.351
14803TIP3   OH244353   4.364   4.652   3.442
14803TIP3    H144354   4.276   4.655   3.480
14803TIP3    H244355   4.350   4.667   3.348
14804TIP3   OH244356   6.907   4.505   5.102
14804TIP3    H144357   6.816   4.482   5.117
14804TIP3    H244358   6.955   4.423   5.117
14805TIP3   OH244359   8.285   5.594   6.024
14805TIP3    H144360   8.215   5.557   5.971
14805TIP3    H244361   8.312   5.522   6.082
14806TIP3   OH244362   0.568   4.919   5.153
14806TIP3    H144363   0.660   4.899   5.167
14806TIP3    H244364   0.535   4.942   5.240
14807TIP3   OH244365   5.651   6.101   6.544
14807TIP3    H144366   5.562   6.137   6.545
14807TIP3    H244367   5.647   6.027   6.604
14808TIP3   OH244368   3.871   4.686   5.138
14808TIP3    H144369   3.846   4.627   5.067
14808TIP3    H244370   3.947   4.734   5.103
14809TIP3   OH244371   5.289   1.495   4.230
14809TIP3    H144372   5.378   1.469   4.208
14809TIP3    H244373   5.246   1.412   4.253
14810TIP3   OH244374   1.574   0.985   1.253
14810TIP3    H144375   1.580   0.976   1.348
14810TIP3    H244376   1.487   0.952   1.231
14811TIP3   OH244377   6.411   4.027   6.131
14811TIP3    H144378   6.478   3.962   6.107
14811TIP3    H244379   6.440   4.060   6.216
14812TIP3   OH244380   1.104   0.766   3.228
14812TIP3    H144381   1.063   0.789   3.311
14812TIP3    H244382   1.047   0.805   3.161
14813TIP3   OH244383   2.593   2.069   0.572
14813TIP3    H144384   2.598   2.157   0.609
14813TIP3    H244385   2.499   2.051   0.567
14814TIP3   OH244386   6.148   3.130   2.321
14814TIP3    H144387   6.241   3.106   2.326
14814TIP3    H244388   6.128   3.166   2.407
14815TIP3   OH244389   7.097   1.359   1.317
14815TIP3    H144390   7.157   1.363   1.243
14815TIP3    H244391   7.084   1.451   1.342
14816TIP3   OH244392   2.841   2.465   5.198
14816TIP3    H144393   2.897   2.433   5.268
14816TIP3    H244394   2.822   2.387   5.145
14817TIP3   OH244395   0.502   7.612   3.142
14817TIP3    H144396   0.475   7.673   3.072
14817TIP3    H244397   0.597   7.623   3.148
14818TIP3   OH244398   1.908   2.666   0.187
14818TIP3    H144399   1.855   2.587   0.179
14818TIP3    H244400   1.960   2.667   0.106
14819TIP3   OH244401   4.665   2.900   3.437
14819TIP3    H144402   4.739   2.951   3.467
14819TIP3    H244403   4.624   2.867   3.517
14820TIP3   OH244404   6.809   2.440   2.510
14820TIP3    H144405   6.718   2.452   2.537
14820TIP3    H244406   6.846   2.381   2.576
14821TIP3   OH244407   6.985   3.741   3.305
14821TIP3    H144408   6.925   3.765   3.235
14821TIP3    H244409   7.026   3.660   3.275
14822TIP3   OH244410   7.889   3.876   3.778
14822TIP3    H144411   7.854   3.904   3.693
14822TIP3    H244412   7.887   3.780   3.773
14823TIP3   OH244413   3.779   4.031   4.237
14823TIP3    H144414   3.875   4.030   4.231
14823TIP3    H244415   3.757   3.947   4.278
14824TIP3   OH244416   6.872   5.186   1.644
14824TIP3    H144417   6.960   5.217   1.664
14824TIP3    H244418   6.831   5.259   1.598
14825TIP3   OH244419   5.188   1.541   3.275
14825TIP3    H144420   5.208   1.588   3.195
14825TIP3    H244421   5.231   1.456   3.265
14826TIP3   OH244422   6.583   5.114   6.049
14826TIP3    H144423   6.663   5.157   6.079
14826TIP3    H244424   6.606   5.077   5.964
14827TIP3   OH244425   1.103   1.083   3.786
14827TIP3    H144426   1.027   1.024   3.790
14827TIP3    H244427   1.178   1.026   3.805
14828TIP3   OH244428   2.715   2.610   3.977
14828TIP3    H144429   2.732   2.537   4.037
14828TIP3    H244430   2.716   2.569   3.890
14829TIP3   OH244431   3.810   1.398   4.769
14829TIP3    H144432   3.833   1.389   4.861
14829TIP3    H244433   3.883   1.358   4.722
14830TIP3   OH244434   6.715   6.147   1.425
14830TIP3    H144435   6.632   6.142   1.378
14830TIP3    H244436   6.691   6.150   1.517
14831TIP3   OH244437   0.871   3.940   4.177
14831TIP3    H144438   0.788   3.932   4.131
14831TIP3    H244439   0.862   3.881   4.252
14832TIP3   OH244440   1.921   6.378   2.995
14832TIP3    H144441   1.948   6.373   3.087
14832TIP3    H244442   1.996   6.417   2.950
14833TIP3   OH244443   4.130   4.012   6.016
14833TIP3    H144444   4.043   4.001   5.976
14833TIP3    H244445   4.158   3.922   6.034
14834TIP3   OH244446   2.435   3.132   1.741
14834TIP3    H144447   2.439   3.225   1.766
14834TIP3    H244448   2.353   3.124   1.692
14835TIP3   OH244449   0.634   3.646   4.609
14835TIP3    H144450   0.728   3.667   4.617
14835TIP3    H244451   0.599   3.714   4.551
14836TIP3   OH244452   0.233   7.816   4.775
14836TIP3    H144453   0.171   7.786   4.842
14836TIP3    H244454   0.197   7.782   4.693
14837TIP3   OH244455   3.497   1.603   0.610
14837TIP3    H144456   3.587   1.569   0.616
14837TIP3    H244457   3.442   1.526   0.624
14838TIP3   OH244458   0.272   4.429   0.976
14838TIP3    H144459   0.205   4.361   0.984
14838TIP3    H244460   0.308   4.437   1.064
14839TIP3   OH244461   2.212   7.548   6.056
14839TIP3    H144462   2.165   7.473   6.091
14839TIP3    H244463   2.253   7.589   6.133
   8.30370   7.82881   6.77994   0.00000   0.00000  -2.76790   0.00000  -2.76790  -3.91440
