;;
;; Generated by CHARMM-GUI FF-Converter
;;
;; Correspondance:
;; jul316@lehigh.edu or wonpil@lehigh.edu
;;
;; GROMACS topology file for PROA
;;


[ moleculetype ]
; name	nrexcl
PROA	     3

[ atoms ]
; nr	type	resnr	residu	atom	cgnr	charge	mass
     1        NH3      1      GLY      N      1    -0.300000    14.0070   ; qtot -0.300
     2         HC      1      GLY    HT1      2     0.330000     1.0080   ; qtot  0.030
     3         HC      1      GLY    HT2      3     0.330000     1.0080   ; qtot  0.360
     4         HC      1      GLY    HT3      4     0.330000     1.0080   ; qtot  0.690
     5        CT2      1      GLY     CA      5     0.130000    12.0110   ; qtot  0.820
     6        HB2      1      GLY    HA1      6     0.090000     1.0080   ; qtot  0.910
     7        HB2      1      GLY    HA2      7     0.090000     1.0080   ; qtot  1.000
     8          C      1      GLY      C      8     0.510000    12.0110   ; qtot  1.510
     9          O      1      GLY      O      9    -0.510000    15.9994   ; qtot  1.000
    10          N      2      PRO      N     10    -0.290000    14.0070   ; qtot  0.710
    11        CP3      2      PRO     CD     11     0.000000    12.0110   ; qtot  0.710
    12        HA2      2      PRO    HD1     12     0.090000     1.0080   ; qtot  0.800
    13        HA2      2      PRO    HD2     13     0.090000     1.0080   ; qtot  0.890
    14        CP1      2      PRO     CA     14     0.020000    12.0110   ; qtot  0.910
    15        HB1      2      PRO     HA     15     0.090000     1.0080   ; qtot  1.000
    16        CP2      2      PRO     CB     16    -0.180000    12.0110   ; qtot  0.820
    17        HA2      2      PRO    HB1     17     0.090000     1.0080   ; qtot  0.910
    18        HA2      2      PRO    HB2     18     0.090000     1.0080   ; qtot  1.000
    19        CP2      2      PRO     CG     19    -0.180000    12.0110   ; qtot  0.820
    20        HA2      2      PRO    HG1     20     0.090000     1.0080   ; qtot  0.910
    21        HA2      2      PRO    HG2     21     0.090000     1.0080   ; qtot  1.000
    22          C      2      PRO      C     22     0.510000    12.0110   ; qtot  1.510
    23          O      2      PRO      O     23    -0.510000    15.9994   ; qtot  1.000
    24        NH1      3      GLY      N     24    -0.470000    14.0070   ; qtot  0.530
    25          H      3      GLY     HN     25     0.310000     1.0080   ; qtot  0.840
    26        CT2      3      GLY     CA     26    -0.020000    12.0110   ; qtot  0.820
    27        HB2      3      GLY    HA1     27     0.090000     1.0080   ; qtot  0.910
    28        HB2      3      GLY    HA2     28     0.090000     1.0080   ; qtot  1.000
    29          C      3      GLY      C     29     0.510000    12.0110   ; qtot  1.510
    30          O      3      GLY      O     30    -0.510000    15.9994   ; qtot  1.000
    31        NH1      4      ASP      N     31    -0.470000    14.0070   ; qtot  0.530
    32          H      4      ASP     HN     32     0.310000     1.0080   ; qtot  0.840
    33        CT1      4      ASP     CA     33     0.070000    12.0110   ; qtot  0.910
    34        HB1      4      ASP     HA     34     0.090000     1.0080   ; qtot  1.000
    35       CT2A      4      ASP     CB     35    -0.280000    12.0110   ; qtot  0.720
    36        HA2      4      ASP    HB1     36     0.090000     1.0080   ; qtot  0.810
    37        HA2      4      ASP    HB2     37     0.090000     1.0080   ; qtot  0.900
    38         CC      4      ASP     CG     38     0.620000    12.0110   ; qtot  1.520
    39         OC      4      ASP    OD1     39    -0.760000    15.9994   ; qtot  0.760
    40         OC      4      ASP    OD2     40    -0.760000    15.9994   ; qtot -0.000
    41          C      4      ASP      C     41     0.510000    12.0110   ; qtot  0.510
    42          O      4      ASP      O     42    -0.510000    15.9994   ; qtot -0.000
    43          N      5      PRO      N     43    -0.290000    14.0070   ; qtot -0.290
    44        CP3      5      PRO     CD     44     0.000000    12.0110   ; qtot -0.290
    45        HA2      5      PRO    HD1     45     0.090000     1.0080   ; qtot -0.200
    46        HA2      5      PRO    HD2     46     0.090000     1.0080   ; qtot -0.110
    47        CP1      5      PRO     CA     47     0.020000    12.0110   ; qtot -0.090
    48        HB1      5      PRO     HA     48     0.090000     1.0080   ; qtot -0.000
    49        CP2      5      PRO     CB     49    -0.180000    12.0110   ; qtot -0.180
    50        HA2      5      PRO    HB1     50     0.090000     1.0080   ; qtot -0.090
    51        HA2      5      PRO    HB2     51     0.090000     1.0080   ; qtot -0.000
    52        CP2      5      PRO     CG     52    -0.180000    12.0110   ; qtot -0.180
    53        HA2      5      PRO    HG1     53     0.090000     1.0080   ; qtot -0.090
    54        HA2      5      PRO    HG2     54     0.090000     1.0080   ; qtot -0.000
    55          C      5      PRO      C     55     0.510000    12.0110   ; qtot  0.510
    56          O      5      PRO      O     56    -0.510000    15.9994   ; qtot -0.000
    57        NH1      6      GLY      N     57    -0.470000    14.0070   ; qtot -0.470
    58          H      6      GLY     HN     58     0.310000     1.0080   ; qtot -0.160
    59        CT2      6      GLY     CA     59    -0.020000    12.0110   ; qtot -0.180
    60        HB2      6      GLY    HA1     60     0.090000     1.0080   ; qtot -0.090
    61        HB2      6      GLY    HA2     61     0.090000     1.0080   ; qtot -0.000
    62          C      6      GLY      C     62     0.510000    12.0110   ; qtot  0.510
    63          O      6      GLY      O     63    -0.510000    15.9994   ; qtot -0.000
    64        NH1      7      SER      N     64    -0.470000    14.0070   ; qtot -0.470
    65          H      7      SER     HN     65     0.310000     1.0080   ; qtot -0.160
    66        CT1      7      SER     CA     66     0.070000    12.0110   ; qtot -0.090
    67        HB1      7      SER     HA     67     0.090000     1.0080   ; qtot -0.000
    68        CT2      7      SER     CB     68     0.050000    12.0110   ; qtot  0.050
    69        HA2      7      SER    HB1     69     0.090000     1.0080   ; qtot  0.140
    70        HA2      7      SER    HB2     70     0.090000     1.0080   ; qtot  0.230
    71        OH1      7      SER     OG     71    -0.660000    15.9994   ; qtot -0.430
    72          H      7      SER    HG1     72     0.430000     1.0080   ; qtot -0.000
    73          C      7      SER      C     73     0.510000    12.0110   ; qtot  0.510
    74          O      7      SER      O     74    -0.510000    15.9994   ; qtot -0.000
    75        NH1      8      ASP      N     75    -0.470000    14.0070   ; qtot -0.470
    76          H      8      ASP     HN     76     0.310000     1.0080   ; qtot -0.160
    77        CT1      8      ASP     CA     77     0.070000    12.0110   ; qtot -0.090
    78        HB1      8      ASP     HA     78     0.090000     1.0080   ; qtot -0.000
    79       CT2A      8      ASP     CB     79    -0.280000    12.0110   ; qtot -0.280
    80        HA2      8      ASP    HB1     80     0.090000     1.0080   ; qtot -0.190
    81        HA2      8      ASP    HB2     81     0.090000     1.0080   ; qtot -0.100
    82         CC      8      ASP     CG     82     0.620000    12.0110   ; qtot  0.520
    83         OC      8      ASP    OD1     83    -0.760000    15.9994   ; qtot -0.240
    84         OC      8      ASP    OD2     84    -0.760000    15.9994   ; qtot -1.000
    85          C      8      ASP      C     85     0.510000    12.0110   ; qtot -0.490
    86          O      8      ASP      O     86    -0.510000    15.9994   ; qtot -1.000
    87        NH1      9      GLY      N     87    -0.470000    14.0070   ; qtot -1.470
    88          H      9      GLY     HN     88     0.310000     1.0080   ; qtot -1.160
    89        CT2      9      GLY     CA     89    -0.020000    12.0110   ; qtot -1.180
    90        HB2      9      GLY    HA1     90     0.090000     1.0080   ; qtot -1.090
    91        HB2      9      GLY    HA2     91     0.090000     1.0080   ; qtot -1.000
    92          C      9      GLY      C     92     0.510000    12.0110   ; qtot -0.490
    93          O      9      GLY      O     93    -0.510000    15.9994   ; qtot -1.000
    94          N     10      PRO      N     94    -0.290000    14.0070   ; qtot -1.290
    95        CP3     10      PRO     CD     95     0.000000    12.0110   ; qtot -1.290
    96        HA2     10      PRO    HD1     96     0.090000     1.0080   ; qtot -1.200
    97        HA2     10      PRO    HD2     97     0.090000     1.0080   ; qtot -1.110
    98        CP1     10      PRO     CA     98     0.020000    12.0110   ; qtot -1.090
    99        HB1     10      PRO     HA     99     0.090000     1.0080   ; qtot -1.000
   100        CP2     10      PRO     CB    100    -0.180000    12.0110   ; qtot -1.180
   101        HA2     10      PRO    HB1    101     0.090000     1.0080   ; qtot -1.090
   102        HA2     10      PRO    HB2    102     0.090000     1.0080   ; qtot -1.000
   103        CP2     10      PRO     CG    103    -0.180000    12.0110   ; qtot -1.180
   104        HA2     10      PRO    HG1    104     0.090000     1.0080   ; qtot -1.090
   105        HA2     10      PRO    HG2    105     0.090000     1.0080   ; qtot -1.000
   106          C     10      PRO      C    106     0.510000    12.0110   ; qtot -0.490
   107          O     10      PRO      O    107    -0.510000    15.9994   ; qtot -1.000
   108        NH1     11      GLY      N    108    -0.470000    14.0070   ; qtot -1.470
   109          H     11      GLY     HN    109     0.310000     1.0080   ; qtot -1.160
   110        CT2     11      GLY     CA    110    -0.020000    12.0110   ; qtot -1.180
   111        HB2     11      GLY    HA1    111     0.090000     1.0080   ; qtot -1.090
   112        HB2     11      GLY    HA2    112     0.090000     1.0080   ; qtot -1.000
   113          C     11      GLY      C    113     0.510000    12.0110   ; qtot -0.490
   114          O     11      GLY      O    114    -0.510000    15.9994   ; qtot -1.000
   115        NH1     12      ASP      N    115    -0.470000    14.0070   ; qtot -1.470
   116          H     12      ASP     HN    116     0.310000     1.0080   ; qtot -1.160
   117        CT1     12      ASP     CA    117     0.070000    12.0110   ; qtot -1.090
   118        HB1     12      ASP     HA    118     0.090000     1.0080   ; qtot -1.000
   119       CT2A     12      ASP     CB    119    -0.280000    12.0110   ; qtot -1.280
   120        HA2     12      ASP    HB1    120     0.090000     1.0080   ; qtot -1.190
   121        HA2     12      ASP    HB2    121     0.090000     1.0080   ; qtot -1.100
   122         CC     12      ASP     CG    122     0.620000    12.0110   ; qtot -0.480
   123         OC     12      ASP    OD1    123    -0.760000    15.9994   ; qtot -1.240
   124         OC     12      ASP    OD2    124    -0.760000    15.9994   ; qtot -2.000
   125          C     12      ASP      C    125     0.510000    12.0110   ; qtot -1.490
   126          O     12      ASP      O    126    -0.510000    15.9994   ; qtot -2.000
   127          N     13      PRO      N    127    -0.290000    14.0070   ; qtot -2.290
   128        CP3     13      PRO     CD    128     0.000000    12.0110   ; qtot -2.290
   129        HA2     13      PRO    HD1    129     0.090000     1.0080   ; qtot -2.200
   130        HA2     13      PRO    HD2    130     0.090000     1.0080   ; qtot -2.110
   131        CP1     13      PRO     CA    131     0.020000    12.0110   ; qtot -2.090
   132        HB1     13      PRO     HA    132     0.090000     1.0080   ; qtot -2.000
   133        CP2     13      PRO     CB    133    -0.180000    12.0110   ; qtot -2.180
   134        HA2     13      PRO    HB1    134     0.090000     1.0080   ; qtot -2.090
   135        HA2     13      PRO    HB2    135     0.090000     1.0080   ; qtot -2.000
   136        CP2     13      PRO     CG    136    -0.180000    12.0110   ; qtot -2.180
   137        HA2     13      PRO    HG1    137     0.090000     1.0080   ; qtot -2.090
   138        HA2     13      PRO    HG2    138     0.090000     1.0080   ; qtot -2.000
   139          C     13      PRO      C    139     0.510000    12.0110   ; qtot -1.490
   140          O     13      PRO      O    140    -0.510000    15.9994   ; qtot -2.000
   141        NH1     14      GLY      N    141    -0.470000    14.0070   ; qtot -2.470
   142          H     14      GLY     HN    142     0.310000     1.0080   ; qtot -2.160
   143        CT2     14      GLY     CA    143    -0.020000    12.0110   ; qtot -2.180
   144        HB2     14      GLY    HA1    144     0.090000     1.0080   ; qtot -2.090
   145        HB2     14      GLY    HA2    145     0.090000     1.0080   ; qtot -2.000
   146          C     14      GLY      C    146     0.510000    12.0110   ; qtot -1.490
   147          O     14      GLY      O    147    -0.510000    15.9994   ; qtot -2.000
   148        NH1     15      SER      N    148    -0.470000    14.0070   ; qtot -2.470
   149          H     15      SER     HN    149     0.310000     1.0080   ; qtot -2.160
   150        CT1     15      SER     CA    150     0.070000    12.0110   ; qtot -2.090
   151        HB1     15      SER     HA    151     0.090000     1.0080   ; qtot -2.000
   152        CT2     15      SER     CB    152     0.050000    12.0110   ; qtot -1.950
   153        HA2     15      SER    HB1    153     0.090000     1.0080   ; qtot -1.860
   154        HA2     15      SER    HB2    154     0.090000     1.0080   ; qtot -1.770
   155        OH1     15      SER     OG    155    -0.660000    15.9994   ; qtot -2.430
   156          H     15      SER    HG1    156     0.430000     1.0080   ; qtot -2.000
   157          C     15      SER      C    157     0.510000    12.0110   ; qtot -1.490
   158          O     15      SER      O    158    -0.510000    15.9994   ; qtot -2.000
   159        NH1     16      ASP      N    159    -0.470000    14.0070   ; qtot -2.470
   160          H     16      ASP     HN    160     0.310000     1.0080   ; qtot -2.160
   161        CT1     16      ASP     CA    161     0.070000    12.0110   ; qtot -2.090
   162        HB1     16      ASP     HA    162     0.090000     1.0080   ; qtot -2.000
   163       CT2A     16      ASP     CB    163    -0.280000    12.0110   ; qtot -2.280
   164        HA2     16      ASP    HB1    164     0.090000     1.0080   ; qtot -2.190
   165        HA2     16      ASP    HB2    165     0.090000     1.0080   ; qtot -2.100
   166         CC     16      ASP     CG    166     0.620000    12.0110   ; qtot -1.480
   167         OC     16      ASP    OD1    167    -0.760000    15.9994   ; qtot -2.240
   168         OC     16      ASP    OD2    168    -0.760000    15.9994   ; qtot -3.000
   169         CC     16      ASP      C    169     0.340000    12.0110   ; qtot -2.660
   170         OC     16      ASP    OT1    170    -0.670000    15.9994   ; qtot -3.330
   171         OC     16      ASP    OT2    171    -0.670000    15.9994   ; qtot -4.000

[ bonds ]
; ai	aj	funct	b0	Kb
    2     1     1
    3     1     1
    4     1     1
    1     5     1
    5     6     1
    5     7     1
    8     5     1
    9     8     1
    8    10     1
   10    11     1
   10    14     1
   12    11     1
   13    11     1
   19    11     1
   15    14     1
   14    16     1
   22    14     1
   17    16     1
   18    16     1
   16    19     1
   20    19     1
   21    19     1
   23    22     1
   22    24     1
   24    25     1
   24    26     1
   26    27     1
   26    28     1
   29    26     1
   30    29     1
   29    31     1
   31    32     1
   31    33     1
   33    34     1
   35    33     1
   41    33     1
   35    36     1
   35    37     1
   38    35     1
   38    39     1
   40    38     1
   42    41     1
   41    43     1
   43    44     1
   43    47     1
   45    44     1
   46    44     1
   52    44     1
   48    47     1
   47    49     1
   55    47     1
   50    49     1
   51    49     1
   49    52     1
   53    52     1
   54    52     1
   56    55     1
   55    57     1
   57    58     1
   57    59     1
   59    60     1
   59    61     1
   62    59     1
   63    62     1
   62    64     1
   64    65     1
   64    66     1
   66    67     1
   68    66     1
   73    66     1
   68    69     1
   68    70     1
   71    68     1
   71    72     1
   74    73     1
   73    75     1
   75    76     1
   75    77     1
   77    78     1
   79    77     1
   85    77     1
   79    80     1
   79    81     1
   82    79     1
   82    83     1
   84    82     1
   86    85     1
   85    87     1
   87    88     1
   87    89     1
   89    90     1
   89    91     1
   92    89     1
   93    92     1
   92    94     1
   94    95     1
   94    98     1
   96    95     1
   97    95     1
  103    95     1
   99    98     1
   98   100     1
  106    98     1
  101   100     1
  102   100     1
  100   103     1
  104   103     1
  105   103     1
  107   106     1
  106   108     1
  108   109     1
  108   110     1
  110   111     1
  110   112     1
  113   110     1
  114   113     1
  113   115     1
  115   116     1
  115   117     1
  117   118     1
  119   117     1
  125   117     1
  119   120     1
  119   121     1
  122   119     1
  122   123     1
  124   122     1
  126   125     1
  125   127     1
  127   128     1
  127   131     1
  129   128     1
  130   128     1
  136   128     1
  132   131     1
  131   133     1
  139   131     1
  134   133     1
  135   133     1
  133   136     1
  137   136     1
  138   136     1
  140   139     1
  139   141     1
  141   142     1
  141   143     1
  143   144     1
  143   145     1
  146   143     1
  147   146     1
  146   148     1
  148   149     1
  148   150     1
  150   151     1
  152   150     1
  157   150     1
  152   153     1
  152   154     1
  155   152     1
  155   156     1
  158   157     1
  157   159     1
  159   160     1
  159   161     1
  161   162     1
  163   161     1
  169   161     1
  163   164     1
  163   165     1
  166   163     1
  166   167     1
  168   166     1
  169   170     1
  169   171     1

[ pairs ]
; ai	aj	funct	c6	c12 or
; ai	aj	funct	fudgeQQ	q1	q2	c6	c12
    1     9     1
    1    10     1
    2     6     1
    2     7     1
    2     8     1
    3     6     1
    3     7     1
    3     8     1
    4     6     1
    4     7     1
    4     8     1
    5    11     1
    5    14     1
    6     9     1
    6    10     1
    7     9     1
    7    10     1
    8    12     1
    8    13     1
    8    15     1
    8    16     1
    8    19     1
    8    22     1
    9    11     1
    9    14     1
   10    17     1
   10    18     1
   10    20     1
   10    21     1
   10    23     1
   10    24     1
   11    15     1
   11    17     1
   11    18     1
   11    22     1
   12    14     1
   12    16     1
   12    20     1
   12    21     1
   13    14     1
   13    16     1
   13    20     1
   13    21     1
   14    20     1
   14    21     1
   14    25     1
   14    26     1
   15    17     1
   15    18     1
   15    19     1
   15    23     1
   15    24     1
   16    23     1
   16    24     1
   17    20     1
   17    21     1
   17    22     1
   18    20     1
   18    21     1
   18    22     1
   19    22     1
   22    27     1
   22    28     1
   22    29     1
   23    25     1
   23    26     1
   24    30     1
   24    31     1
   25    27     1
   25    28     1
   25    29     1
   26    32     1
   26    33     1
   27    30     1
   27    31     1
   28    30     1
   28    31     1
   29    34     1
   29    35     1
   29    41     1
   30    32     1
   30    33     1
   31    36     1
   31    37     1
   31    38     1
   31    42     1
   31    43     1
   32    34     1
   32    35     1
   32    41     1
   33    39     1
   33    40     1
   33    44     1
   33    47     1
   34    36     1
   34    37     1
   34    38     1
   34    42     1
   34    43     1
   35    42     1
   35    43     1
   36    39     1
   36    40     1
   36    41     1
   37    39     1
   37    40     1
   37    41     1
   38    41     1
   41    45     1
   41    46     1
   41    48     1
   41    49     1
   41    52     1
   41    55     1
   42    44     1
   42    47     1
   43    50     1
   43    51     1
   43    53     1
   43    54     1
   43    56     1
   43    57     1
   44    48     1
   44    50     1
   44    51     1
   44    55     1
   45    47     1
   45    49     1
   45    53     1
   45    54     1
   46    47     1
   46    49     1
   46    53     1
   46    54     1
   47    53     1
   47    54     1
   47    58     1
   47    59     1
   48    50     1
   48    51     1
   48    52     1
   48    56     1
   48    57     1
   49    56     1
   49    57     1
   50    53     1
   50    54     1
   50    55     1
   51    53     1
   51    54     1
   51    55     1
   52    55     1
   55    60     1
   55    61     1
   55    62     1
   56    58     1
   56    59     1
   57    63     1
   57    64     1
   58    60     1
   58    61     1
   58    62     1
   59    65     1
   59    66     1
   60    63     1
   60    64     1
   61    63     1
   61    64     1
   62    67     1
   62    68     1
   62    73     1
   63    65     1
   63    66     1
   64    69     1
   64    70     1
   64    71     1
   64    74     1
   64    75     1
   65    67     1
   65    68     1
   65    73     1
   66    72     1
   66    76     1
   66    77     1
   67    69     1
   67    70     1
   67    71     1
   67    74     1
   67    75     1
   68    74     1
   68    75     1
   69    72     1
   69    73     1
   70    72     1
   70    73     1
   71    73     1
   73    78     1
   73    79     1
   73    85     1
   74    76     1
   74    77     1
   75    80     1
   75    81     1
   75    82     1
   75    86     1
   75    87     1
   76    78     1
   76    79     1
   76    85     1
   77    83     1
   77    84     1
   77    88     1
   77    89     1
   78    80     1
   78    81     1
   78    82     1
   78    86     1
   78    87     1
   79    86     1
   79    87     1
   80    83     1
   80    84     1
   80    85     1
   81    83     1
   81    84     1
   81    85     1
   82    85     1
   85    90     1
   85    91     1
   85    92     1
   86    88     1
   86    89     1
   87    93     1
   87    94     1
   88    90     1
   88    91     1
   88    92     1
   89    95     1
   89    98     1
   90    93     1
   90    94     1
   91    93     1
   91    94     1
   92    96     1
   92    97     1
   92    99     1
   92   100     1
   92   103     1
   92   106     1
   93    95     1
   93    98     1
   94   101     1
   94   102     1
   94   104     1
   94   105     1
   94   107     1
   94   108     1
   95    99     1
   95   101     1
   95   102     1
   95   106     1
   96    98     1
   96   100     1
   96   104     1
   96   105     1
   97    98     1
   97   100     1
   97   104     1
   97   105     1
   98   104     1
   98   105     1
   98   109     1
   98   110     1
   99   101     1
   99   102     1
   99   103     1
   99   107     1
   99   108     1
  100   107     1
  100   108     1
  101   104     1
  101   105     1
  101   106     1
  102   104     1
  102   105     1
  102   106     1
  103   106     1
  106   111     1
  106   112     1
  106   113     1
  107   109     1
  107   110     1
  108   114     1
  108   115     1
  109   111     1
  109   112     1
  109   113     1
  110   116     1
  110   117     1
  111   114     1
  111   115     1
  112   114     1
  112   115     1
  113   118     1
  113   119     1
  113   125     1
  114   116     1
  114   117     1
  115   120     1
  115   121     1
  115   122     1
  115   126     1
  115   127     1
  116   118     1
  116   119     1
  116   125     1
  117   123     1
  117   124     1
  117   128     1
  117   131     1
  118   120     1
  118   121     1
  118   122     1
  118   126     1
  118   127     1
  119   126     1
  119   127     1
  120   123     1
  120   124     1
  120   125     1
  121   123     1
  121   124     1
  121   125     1
  122   125     1
  125   129     1
  125   130     1
  125   132     1
  125   133     1
  125   136     1
  125   139     1
  126   128     1
  126   131     1
  127   134     1
  127   135     1
  127   137     1
  127   138     1
  127   140     1
  127   141     1
  128   132     1
  128   134     1
  128   135     1
  128   139     1
  129   131     1
  129   133     1
  129   137     1
  129   138     1
  130   131     1
  130   133     1
  130   137     1
  130   138     1
  131   137     1
  131   138     1
  131   142     1
  131   143     1
  132   134     1
  132   135     1
  132   136     1
  132   140     1
  132   141     1
  133   140     1
  133   141     1
  134   137     1
  134   138     1
  134   139     1
  135   137     1
  135   138     1
  135   139     1
  136   139     1
  139   144     1
  139   145     1
  139   146     1
  140   142     1
  140   143     1
  141   147     1
  141   148     1
  142   144     1
  142   145     1
  142   146     1
  143   149     1
  143   150     1
  144   147     1
  144   148     1
  145   147     1
  145   148     1
  146   151     1
  146   152     1
  146   157     1
  147   149     1
  147   150     1
  148   153     1
  148   154     1
  148   155     1
  148   158     1
  148   159     1
  149   151     1
  149   152     1
  149   157     1
  150   156     1
  150   160     1
  150   161     1
  151   153     1
  151   154     1
  151   155     1
  151   158     1
  151   159     1
  152   158     1
  152   159     1
  153   156     1
  153   157     1
  154   156     1
  154   157     1
  155   157     1
  157   162     1
  157   163     1
  157   169     1
  158   160     1
  158   161     1
  159   164     1
  159   165     1
  159   166     1
  159   170     1
  159   171     1
  160   162     1
  160   163     1
  160   169     1
  161   167     1
  161   168     1
  162   164     1
  162   165     1
  162   166     1
  162   170     1
  162   171     1
  163   170     1
  163   171     1
  164   167     1
  164   168     1
  164   169     1
  165   167     1
  165   168     1
  165   169     1
  166   169     1

[ angles ] 
; ai	aj	ak	funct	th0	cth	S0	Kub
    2     1     3     5
    2     1     4     5
    2     1     5     5
    3     1     4     5
    3     1     5     5
    4     1     5     5
    1     5     6     5
    1     5     7     5
    1     5     8     5
    6     5     7     5
    6     5     8     5
    7     5     8     5
    5     8     9     5
    5     8    10     5
    9     8    10     5
    8    10    11     5
    8    10    14     5
   11    10    14     5
   10    11    12     5
   10    11    13     5
   10    11    19     5
   12    11    13     5
   12    11    19     5
   13    11    19     5
   10    14    15     5
   10    14    16     5
   10    14    22     5
   15    14    16     5
   15    14    22     5
   16    14    22     5
   14    16    17     5
   14    16    18     5
   14    16    19     5
   17    16    18     5
   17    16    19     5
   18    16    19     5
   11    19    16     5
   11    19    20     5
   11    19    21     5
   16    19    20     5
   16    19    21     5
   20    19    21     5
   14    22    23     5
   14    22    24     5
   23    22    24     5
   22    24    25     5
   22    24    26     5
   25    24    26     5
   24    26    27     5
   24    26    28     5
   24    26    29     5
   27    26    28     5
   27    26    29     5
   28    26    29     5
   26    29    30     5
   26    29    31     5
   30    29    31     5
   29    31    32     5
   29    31    33     5
   32    31    33     5
   31    33    34     5
   31    33    35     5
   31    33    41     5
   34    33    35     5
   34    33    41     5
   35    33    41     5
   33    35    36     5
   33    35    37     5
   33    35    38     5
   36    35    37     5
   36    35    38     5
   37    35    38     5
   35    38    39     5
   35    38    40     5
   39    38    40     5
   33    41    42     5
   33    41    43     5
   42    41    43     5
   41    43    44     5
   41    43    47     5
   44    43    47     5
   43    44    45     5
   43    44    46     5
   43    44    52     5
   45    44    46     5
   45    44    52     5
   46    44    52     5
   43    47    48     5
   43    47    49     5
   43    47    55     5
   48    47    49     5
   48    47    55     5
   49    47    55     5
   47    49    50     5
   47    49    51     5
   47    49    52     5
   50    49    51     5
   50    49    52     5
   51    49    52     5
   44    52    49     5
   44    52    53     5
   44    52    54     5
   49    52    53     5
   49    52    54     5
   53    52    54     5
   47    55    56     5
   47    55    57     5
   56    55    57     5
   55    57    58     5
   55    57    59     5
   58    57    59     5
   57    59    60     5
   57    59    61     5
   57    59    62     5
   60    59    61     5
   60    59    62     5
   61    59    62     5
   59    62    63     5
   59    62    64     5
   63    62    64     5
   62    64    65     5
   62    64    66     5
   65    64    66     5
   64    66    67     5
   64    66    68     5
   64    66    73     5
   67    66    68     5
   67    66    73     5
   68    66    73     5
   66    68    69     5
   66    68    70     5
   66    68    71     5
   69    68    70     5
   69    68    71     5
   70    68    71     5
   68    71    72     5
   66    73    74     5
   66    73    75     5
   74    73    75     5
   73    75    76     5
   73    75    77     5
   76    75    77     5
   75    77    78     5
   75    77    79     5
   75    77    85     5
   78    77    79     5
   78    77    85     5
   79    77    85     5
   77    79    80     5
   77    79    81     5
   77    79    82     5
   80    79    81     5
   80    79    82     5
   81    79    82     5
   79    82    83     5
   79    82    84     5
   83    82    84     5
   77    85    86     5
   77    85    87     5
   86    85    87     5
   85    87    88     5
   85    87    89     5
   88    87    89     5
   87    89    90     5
   87    89    91     5
   87    89    92     5
   90    89    91     5
   90    89    92     5
   91    89    92     5
   89    92    93     5
   89    92    94     5
   93    92    94     5
   92    94    95     5
   92    94    98     5
   95    94    98     5
   94    95    96     5
   94    95    97     5
   94    95   103     5
   96    95    97     5
   96    95   103     5
   97    95   103     5
   94    98    99     5
   94    98   100     5
   94    98   106     5
   99    98   100     5
   99    98   106     5
  100    98   106     5
   98   100   101     5
   98   100   102     5
   98   100   103     5
  101   100   102     5
  101   100   103     5
  102   100   103     5
   95   103   100     5
   95   103   104     5
   95   103   105     5
  100   103   104     5
  100   103   105     5
  104   103   105     5
   98   106   107     5
   98   106   108     5
  107   106   108     5
  106   108   109     5
  106   108   110     5
  109   108   110     5
  108   110   111     5
  108   110   112     5
  108   110   113     5
  111   110   112     5
  111   110   113     5
  112   110   113     5
  110   113   114     5
  110   113   115     5
  114   113   115     5
  113   115   116     5
  113   115   117     5
  116   115   117     5
  115   117   118     5
  115   117   119     5
  115   117   125     5
  118   117   119     5
  118   117   125     5
  119   117   125     5
  117   119   120     5
  117   119   121     5
  117   119   122     5
  120   119   121     5
  120   119   122     5
  121   119   122     5
  119   122   123     5
  119   122   124     5
  123   122   124     5
  117   125   126     5
  117   125   127     5
  126   125   127     5
  125   127   128     5
  125   127   131     5
  128   127   131     5
  127   128   129     5
  127   128   130     5
  127   128   136     5
  129   128   130     5
  129   128   136     5
  130   128   136     5
  127   131   132     5
  127   131   133     5
  127   131   139     5
  132   131   133     5
  132   131   139     5
  133   131   139     5
  131   133   134     5
  131   133   135     5
  131   133   136     5
  134   133   135     5
  134   133   136     5
  135   133   136     5
  128   136   133     5
  128   136   137     5
  128   136   138     5
  133   136   137     5
  133   136   138     5
  137   136   138     5
  131   139   140     5
  131   139   141     5
  140   139   141     5
  139   141   142     5
  139   141   143     5
  142   141   143     5
  141   143   144     5
  141   143   145     5
  141   143   146     5
  144   143   145     5
  144   143   146     5
  145   143   146     5
  143   146   147     5
  143   146   148     5
  147   146   148     5
  146   148   149     5
  146   148   150     5
  149   148   150     5
  148   150   151     5
  148   150   152     5
  148   150   157     5
  151   150   152     5
  151   150   157     5
  152   150   157     5
  150   152   153     5
  150   152   154     5
  150   152   155     5
  153   152   154     5
  153   152   155     5
  154   152   155     5
  152   155   156     5
  150   157   158     5
  150   157   159     5
  158   157   159     5
  157   159   160     5
  157   159   161     5
  160   159   161     5
  159   161   162     5
  159   161   163     5
  159   161   169     5
  162   161   163     5
  162   161   169     5
  163   161   169     5
  161   163   164     5
  161   163   165     5
  161   163   166     5
  164   163   165     5
  164   163   166     5
  165   163   166     5
  163   166   167     5
  163   166   168     5
  167   166   168     5
  161   169   170     5
  161   169   171     5
  170   169   171     5

[ dihedrals ]
; ai	aj	ak	al	funct	phi0	cp	mult
    2     1     5     6     9
    2     1     5     7     9
    2     1     5     8     9
    3     1     5     6     9
    3     1     5     7     9
    3     1     5     8     9
    4     1     5     6     9
    4     1     5     7     9
    4     1     5     8     9
    1     5     8     9     9
    1     5     8    10     9
    6     5     8     9     9
    6     5     8    10     9
    7     5     8     9     9
    7     5     8    10     9
    5     8    10    11     9
    5     8    10    14     9
    9     8    10    11     9
    9     8    10    14     9
    8    10    11    12     9
    8    10    11    13     9
    8    10    11    19     9
   14    10    11    19     9
    8    10    14    15     9
    8    10    14    16     9
    8    10    14    22     9
   11    10    14    15     9
   11    10    14    16     9
   11    10    14    22     9
   12    11    10    14     9
   13    11    10    14     9
   10    11    19    16     9
   10    11    19    20     9
   10    11    19    21     9
   12    11    19    16     9
   12    11    19    20     9
   12    11    19    21     9
   13    11    19    16     9
   13    11    19    20     9
   13    11    19    21     9
   10    14    16    17     9
   10    14    16    18     9
   10    14    16    19     9
   15    14    16    17     9
   15    14    16    18     9
   15    14    16    19     9
   10    14    22    23     9
   10    14    22    24     9
   15    14    22    23     9
   15    14    22    24     9
   16    14    22    23     9
   16    14    22    24     9
   17    16    14    22     9
   18    16    14    22     9
   19    16    14    22     9
   14    16    19    20     9
   14    16    19    21     9
   17    16    19    20     9
   17    16    19    21     9
   18    16    19    20     9
   18    16    19    21     9
   11    19    16    14     9
   11    19    16    17     9
   11    19    16    18     9
   14    22    24    25     9
   14    22    24    26     9
   23    22    24    25     9
   23    22    24    26     9
   22    24    26    27     9
   22    24    26    28     9
   22    24    26    29     9
   25    24    26    27     9
   25    24    26    28     9
   25    24    26    29     9
   24    26    29    30     9
   24    26    29    31     9
   27    26    29    30     9
   27    26    29    31     9
   28    26    29    30     9
   28    26    29    31     9
   26    29    31    32     9
   26    29    31    33     9
   30    29    31    32     9
   30    29    31    33     9
   29    31    33    34     9
   29    31    33    35     9
   29    31    33    41     9
   32    31    33    34     9
   32    31    33    35     9
   32    31    33    41     9
   31    33    35    36     9
   31    33    35    37     9
   31    33    35    38     9
   34    33    35    36     9
   34    33    35    37     9
   34    33    35    38     9
   31    33    41    42     9
   31    33    41    43     9
   34    33    41    42     9
   34    33    41    43     9
   35    33    41    42     9
   35    33    41    43     9
   36    35    33    41     9
   37    35    33    41     9
   38    35    33    41     9
   33    35    38    39     9
   33    35    38    40     9
   36    35    38    39     9
   36    35    38    40     9
   37    35    38    39     9
   37    35    38    40     9
   33    41    43    44     9
   33    41    43    47     9
   42    41    43    44     9
   42    41    43    47     9
   41    43    44    45     9
   41    43    44    46     9
   41    43    44    52     9
   47    43    44    52     9
   41    43    47    48     9
   41    43    47    49     9
   41    43    47    55     9
   44    43    47    48     9
   44    43    47    49     9
   44    43    47    55     9
   45    44    43    47     9
   46    44    43    47     9
   43    44    52    49     9
   43    44    52    53     9
   43    44    52    54     9
   45    44    52    49     9
   45    44    52    53     9
   45    44    52    54     9
   46    44    52    49     9
   46    44    52    53     9
   46    44    52    54     9
   43    47    49    50     9
   43    47    49    51     9
   43    47    49    52     9
   48    47    49    50     9
   48    47    49    51     9
   48    47    49    52     9
   43    47    55    56     9
   43    47    55    57     9
   48    47    55    56     9
   48    47    55    57     9
   49    47    55    56     9
   49    47    55    57     9
   50    49    47    55     9
   51    49    47    55     9
   52    49    47    55     9
   47    49    52    53     9
   47    49    52    54     9
   50    49    52    53     9
   50    49    52    54     9
   51    49    52    53     9
   51    49    52    54     9
   44    52    49    47     9
   44    52    49    50     9
   44    52    49    51     9
   47    55    57    58     9
   47    55    57    59     9
   56    55    57    58     9
   56    55    57    59     9
   55    57    59    60     9
   55    57    59    61     9
   55    57    59    62     9
   58    57    59    60     9
   58    57    59    61     9
   58    57    59    62     9
   57    59    62    63     9
   57    59    62    64     9
   60    59    62    63     9
   60    59    62    64     9
   61    59    62    63     9
   61    59    62    64     9
   59    62    64    65     9
   59    62    64    66     9
   63    62    64    65     9
   63    62    64    66     9
   62    64    66    67     9
   62    64    66    68     9
   62    64    66    73     9
   65    64    66    67     9
   65    64    66    68     9
   65    64    66    73     9
   64    66    68    69     9
   64    66    68    70     9
   64    66    68    71     9
   67    66    68    69     9
   67    66    68    70     9
   67    66    68    71     9
   64    66    73    74     9
   64    66    73    75     9
   67    66    73    74     9
   67    66    73    75     9
   68    66    73    74     9
   68    66    73    75     9
   69    68    66    73     9
   70    68    66    73     9
   71    68    66    73     9
   66    68    71    72     9
   69    68    71    72     9
   70    68    71    72     9
   66    73    75    76     9
   66    73    75    77     9
   74    73    75    76     9
   74    73    75    77     9
   73    75    77    78     9
   73    75    77    79     9
   73    75    77    85     9
   76    75    77    78     9
   76    75    77    79     9
   76    75    77    85     9
   75    77    79    80     9
   75    77    79    81     9
   75    77    79    82     9
   78    77    79    80     9
   78    77    79    81     9
   78    77    79    82     9
   75    77    85    86     9
   75    77    85    87     9
   78    77    85    86     9
   78    77    85    87     9
   79    77    85    86     9
   79    77    85    87     9
   80    79    77    85     9
   81    79    77    85     9
   82    79    77    85     9
   77    79    82    83     9
   77    79    82    84     9
   80    79    82    83     9
   80    79    82    84     9
   81    79    82    83     9
   81    79    82    84     9
   77    85    87    88     9
   77    85    87    89     9
   86    85    87    88     9
   86    85    87    89     9
   85    87    89    90     9
   85    87    89    91     9
   85    87    89    92     9
   88    87    89    90     9
   88    87    89    91     9
   88    87    89    92     9
   87    89    92    93     9
   87    89    92    94     9
   90    89    92    93     9
   90    89    92    94     9
   91    89    92    93     9
   91    89    92    94     9
   89    92    94    95     9
   89    92    94    98     9
   93    92    94    95     9
   93    92    94    98     9
   92    94    95    96     9
   92    94    95    97     9
   92    94    95   103     9
   98    94    95   103     9
   92    94    98    99     9
   92    94    98   100     9
   92    94    98   106     9
   95    94    98    99     9
   95    94    98   100     9
   95    94    98   106     9
   96    95    94    98     9
   97    95    94    98     9
   94    95   103   100     9
   94    95   103   104     9
   94    95   103   105     9
   96    95   103   100     9
   96    95   103   104     9
   96    95   103   105     9
   97    95   103   100     9
   97    95   103   104     9
   97    95   103   105     9
   94    98   100   101     9
   94    98   100   102     9
   94    98   100   103     9
   99    98   100   101     9
   99    98   100   102     9
   99    98   100   103     9
   94    98   106   107     9
   94    98   106   108     9
   99    98   106   107     9
   99    98   106   108     9
  100    98   106   107     9
  100    98   106   108     9
  101   100    98   106     9
  102   100    98   106     9
  103   100    98   106     9
   98   100   103   104     9
   98   100   103   105     9
  101   100   103   104     9
  101   100   103   105     9
  102   100   103   104     9
  102   100   103   105     9
   95   103   100    98     9
   95   103   100   101     9
   95   103   100   102     9
   98   106   108   109     9
   98   106   108   110     9
  107   106   108   109     9
  107   106   108   110     9
  106   108   110   111     9
  106   108   110   112     9
  106   108   110   113     9
  109   108   110   111     9
  109   108   110   112     9
  109   108   110   113     9
  108   110   113   114     9
  108   110   113   115     9
  111   110   113   114     9
  111   110   113   115     9
  112   110   113   114     9
  112   110   113   115     9
  110   113   115   116     9
  110   113   115   117     9
  114   113   115   116     9
  114   113   115   117     9
  113   115   117   118     9
  113   115   117   119     9
  113   115   117   125     9
  116   115   117   118     9
  116   115   117   119     9
  116   115   117   125     9
  115   117   119   120     9
  115   117   119   121     9
  115   117   119   122     9
  118   117   119   120     9
  118   117   119   121     9
  118   117   119   122     9
  115   117   125   126     9
  115   117   125   127     9
  118   117   125   126     9
  118   117   125   127     9
  119   117   125   126     9
  119   117   125   127     9
  120   119   117   125     9
  121   119   117   125     9
  122   119   117   125     9
  117   119   122   123     9
  117   119   122   124     9
  120   119   122   123     9
  120   119   122   124     9
  121   119   122   123     9
  121   119   122   124     9
  117   125   127   128     9
  117   125   127   131     9
  126   125   127   128     9
  126   125   127   131     9
  125   127   128   129     9
  125   127   128   130     9
  125   127   128   136     9
  131   127   128   136     9
  125   127   131   132     9
  125   127   131   133     9
  125   127   131   139     9
  128   127   131   132     9
  128   127   131   133     9
  128   127   131   139     9
  129   128   127   131     9
  130   128   127   131     9
  127   128   136   133     9
  127   128   136   137     9
  127   128   136   138     9
  129   128   136   133     9
  129   128   136   137     9
  129   128   136   138     9
  130   128   136   133     9
  130   128   136   137     9
  130   128   136   138     9
  127   131   133   134     9
  127   131   133   135     9
  127   131   133   136     9
  132   131   133   134     9
  132   131   133   135     9
  132   131   133   136     9
  127   131   139   140     9
  127   131   139   141     9
  132   131   139   140     9
  132   131   139   141     9
  133   131   139   140     9
  133   131   139   141     9
  134   133   131   139     9
  135   133   131   139     9
  136   133   131   139     9
  131   133   136   137     9
  131   133   136   138     9
  134   133   136   137     9
  134   133   136   138     9
  135   133   136   137     9
  135   133   136   138     9
  128   136   133   131     9
  128   136   133   134     9
  128   136   133   135     9
  131   139   141   142     9
  131   139   141   143     9
  140   139   141   142     9
  140   139   141   143     9
  139   141   143   144     9
  139   141   143   145     9
  139   141   143   146     9
  142   141   143   144     9
  142   141   143   145     9
  142   141   143   146     9
  141   143   146   147     9
  141   143   146   148     9
  144   143   146   147     9
  144   143   146   148     9
  145   143   146   147     9
  145   143   146   148     9
  143   146   148   149     9
  143   146   148   150     9
  147   146   148   149     9
  147   146   148   150     9
  146   148   150   151     9
  146   148   150   152     9
  146   148   150   157     9
  149   148   150   151     9
  149   148   150   152     9
  149   148   150   157     9
  148   150   152   153     9
  148   150   152   154     9
  148   150   152   155     9
  151   150   152   153     9
  151   150   152   154     9
  151   150   152   155     9
  148   150   157   158     9
  148   150   157   159     9
  151   150   157   158     9
  151   150   157   159     9
  152   150   157   158     9
  152   150   157   159     9
  153   152   150   157     9
  154   152   150   157     9
  155   152   150   157     9
  150   152   155   156     9
  153   152   155   156     9
  154   152   155   156     9
  150   157   159   160     9
  150   157   159   161     9
  158   157   159   160     9
  158   157   159   161     9
  157   159   161   162     9
  157   159   161   163     9
  157   159   161   169     9
  160   159   161   162     9
  160   159   161   163     9
  160   159   161   169     9
  159   161   163   164     9
  159   161   163   165     9
  159   161   163   166     9
  162   161   163   164     9
  162   161   163   165     9
  162   161   163   166     9
  159   161   169   170     9
  159   161   169   171     9
  162   161   169   170     9
  162   161   169   171     9
  163   161   169   170     9
  163   161   169   171     9
  164   163   161   169     9
  165   163   161   169     9
  166   163   161   169     9
  161   163   166   167     9
  161   163   166   168     9
  164   163   166   167     9
  164   163   166   168     9
  165   163   166   167     9
  165   163   166   168     9

[ dihedrals ]
; ai	aj	ak	al	funct	q0	cq
    8     5    10     9     2
   10     8    14    11     2
   22    14    24    23     2
   24    22    26    25     2
   29    26    31    30     2
   31    29    33    32     2
   38    35    40    39     2
   41    33    43    42     2
   43    41    47    44     2
   55    47    57    56     2
   57    55    59    58     2
   62    59    64    63     2
   64    62    66    65     2
   73    66    75    74     2
   75    73    77    76     2
   82    79    84    83     2
   85    77    87    86     2
   87    85    89    88     2
   92    89    94    93     2
   94    92    98    95     2
  106    98   108   107     2
  108   106   110   109     2
  113   110   115   114     2
  115   113   117   116     2
  122   119   124   123     2
  125   117   127   126     2
  127   125   131   128     2
  139   131   141   140     2
  141   139   143   142     2
  146   143   148   147     2
  148   146   150   149     2
  157   150   159   158     2
  159   157   161   160     2
  166   163   168   167     2
  169   161   171   170     2

[ cmap ] 
; ai	aj	ak	al	am	funct
    8    10    14    22    24     1
   22    24    26    29    31     1
   29    31    33    41    43     1
   41    43    47    55    57     1
   55    57    59    62    64     1
   62    64    66    73    75     1
   73    75    77    85    87     1
   85    87    89    92    94     1
   92    94    98   106   108     1
  106   108   110   113   115     1
  113   115   117   125   127     1
  125   127   131   139   141     1
  139   141   143   146   148     1
  146   148   150   157   159     1

#ifdef POSRES
[ position_restraints ]
    1     1    POSRES_FC_BB    POSRES_FC_BB    POSRES_FC_BB   
    5     1    POSRES_FC_BB    POSRES_FC_BB    POSRES_FC_BB   
    8     1    POSRES_FC_BB    POSRES_FC_BB    POSRES_FC_BB   
    9     1    POSRES_FC_BB    POSRES_FC_BB    POSRES_FC_BB   
   10     1    POSRES_FC_BB    POSRES_FC_BB    POSRES_FC_BB   
   11     1    POSRES_FC_SC    POSRES_FC_SC    POSRES_FC_SC   
   14     1    POSRES_FC_BB    POSRES_FC_BB    POSRES_FC_BB   
   16     1    POSRES_FC_SC    POSRES_FC_SC    POSRES_FC_SC   
   19     1    POSRES_FC_SC    POSRES_FC_SC    POSRES_FC_SC   
   22     1    POSRES_FC_BB    POSRES_FC_BB    POSRES_FC_BB   
   23     1    POSRES_FC_BB    POSRES_FC_BB    POSRES_FC_BB   
   24     1    POSRES_FC_BB    POSRES_FC_BB    POSRES_FC_BB   
   26     1    POSRES_FC_BB    POSRES_FC_BB    POSRES_FC_BB   
   29     1    POSRES_FC_BB    POSRES_FC_BB    POSRES_FC_BB   
   30     1    POSRES_FC_BB    POSRES_FC_BB    POSRES_FC_BB   
   31     1    POSRES_FC_BB    POSRES_FC_BB    POSRES_FC_BB   
   33     1    POSRES_FC_BB    POSRES_FC_BB    POSRES_FC_BB   
   35     1    POSRES_FC_SC    POSRES_FC_SC    POSRES_FC_SC   
   38     1    POSRES_FC_SC    POSRES_FC_SC    POSRES_FC_SC   
   39     1    POSRES_FC_SC    POSRES_FC_SC    POSRES_FC_SC   
   40     1    POSRES_FC_SC    POSRES_FC_SC    POSRES_FC_SC   
   41     1    POSRES_FC_BB    POSRES_FC_BB    POSRES_FC_BB   
   42     1    POSRES_FC_BB    POSRES_FC_BB    POSRES_FC_BB   
   43     1    POSRES_FC_BB    POSRES_FC_BB    POSRES_FC_BB   
   44     1    POSRES_FC_SC    POSRES_FC_SC    POSRES_FC_SC   
   47     1    POSRES_FC_BB    POSRES_FC_BB    POSRES_FC_BB   
   49     1    POSRES_FC_SC    POSRES_FC_SC    POSRES_FC_SC   
   52     1    POSRES_FC_SC    POSRES_FC_SC    POSRES_FC_SC   
   55     1    POSRES_FC_BB    POSRES_FC_BB    POSRES_FC_BB   
   56     1    POSRES_FC_BB    POSRES_FC_BB    POSRES_FC_BB   
   57     1    POSRES_FC_BB    POSRES_FC_BB    POSRES_FC_BB   
   59     1    POSRES_FC_BB    POSRES_FC_BB    POSRES_FC_BB   
   62     1    POSRES_FC_BB    POSRES_FC_BB    POSRES_FC_BB   
   63     1    POSRES_FC_BB    POSRES_FC_BB    POSRES_FC_BB   
   64     1    POSRES_FC_BB    POSRES_FC_BB    POSRES_FC_BB   
   66     1    POSRES_FC_BB    POSRES_FC_BB    POSRES_FC_BB   
   68     1    POSRES_FC_SC    POSRES_FC_SC    POSRES_FC_SC   
   71     1    POSRES_FC_SC    POSRES_FC_SC    POSRES_FC_SC   
   73     1    POSRES_FC_BB    POSRES_FC_BB    POSRES_FC_BB   
   74     1    POSRES_FC_BB    POSRES_FC_BB    POSRES_FC_BB   
   75     1    POSRES_FC_BB    POSRES_FC_BB    POSRES_FC_BB   
   77     1    POSRES_FC_BB    POSRES_FC_BB    POSRES_FC_BB   
   79     1    POSRES_FC_SC    POSRES_FC_SC    POSRES_FC_SC   
   82     1    POSRES_FC_SC    POSRES_FC_SC    POSRES_FC_SC   
   83     1    POSRES_FC_SC    POSRES_FC_SC    POSRES_FC_SC   
   84     1    POSRES_FC_SC    POSRES_FC_SC    POSRES_FC_SC   
   85     1    POSRES_FC_BB    POSRES_FC_BB    POSRES_FC_BB   
   86     1    POSRES_FC_BB    POSRES_FC_BB    POSRES_FC_BB   
   87     1    POSRES_FC_BB    POSRES_FC_BB    POSRES_FC_BB   
   89     1    POSRES_FC_BB    POSRES_FC_BB    POSRES_FC_BB   
   92     1    POSRES_FC_BB    POSRES_FC_BB    POSRES_FC_BB   
   93     1    POSRES_FC_BB    POSRES_FC_BB    POSRES_FC_BB   
   94     1    POSRES_FC_BB    POSRES_FC_BB    POSRES_FC_BB   
   95     1    POSRES_FC_SC    POSRES_FC_SC    POSRES_FC_SC   
   98     1    POSRES_FC_BB    POSRES_FC_BB    POSRES_FC_BB   
  100     1    POSRES_FC_SC    POSRES_FC_SC    POSRES_FC_SC   
  103     1    POSRES_FC_SC    POSRES_FC_SC    POSRES_FC_SC   
  106     1    POSRES_FC_BB    POSRES_FC_BB    POSRES_FC_BB   
  107     1    POSRES_FC_BB    POSRES_FC_BB    POSRES_FC_BB   
  108     1    POSRES_FC_BB    POSRES_FC_BB    POSRES_FC_BB   
  110     1    POSRES_FC_BB    POSRES_FC_BB    POSRES_FC_BB   
  113     1    POSRES_FC_BB    POSRES_FC_BB    POSRES_FC_BB   
  114     1    POSRES_FC_BB    POSRES_FC_BB    POSRES_FC_BB   
  115     1    POSRES_FC_BB    POSRES_FC_BB    POSRES_FC_BB   
  117     1    POSRES_FC_BB    POSRES_FC_BB    POSRES_FC_BB   
  119     1    POSRES_FC_SC    POSRES_FC_SC    POSRES_FC_SC   
  122     1    POSRES_FC_SC    POSRES_FC_SC    POSRES_FC_SC   
  123     1    POSRES_FC_SC    POSRES_FC_SC    POSRES_FC_SC   
  124     1    POSRES_FC_SC    POSRES_FC_SC    POSRES_FC_SC   
  125     1    POSRES_FC_BB    POSRES_FC_BB    POSRES_FC_BB   
  126     1    POSRES_FC_BB    POSRES_FC_BB    POSRES_FC_BB   
  127     1    POSRES_FC_BB    POSRES_FC_BB    POSRES_FC_BB   
  128     1    POSRES_FC_SC    POSRES_FC_SC    POSRES_FC_SC   
  131     1    POSRES_FC_BB    POSRES_FC_BB    POSRES_FC_BB   
  133     1    POSRES_FC_SC    POSRES_FC_SC    POSRES_FC_SC   
  136     1    POSRES_FC_SC    POSRES_FC_SC    POSRES_FC_SC   
  139     1    POSRES_FC_BB    POSRES_FC_BB    POSRES_FC_BB   
  140     1    POSRES_FC_BB    POSRES_FC_BB    POSRES_FC_BB   
  141     1    POSRES_FC_BB    POSRES_FC_BB    POSRES_FC_BB   
  143     1    POSRES_FC_BB    POSRES_FC_BB    POSRES_FC_BB   
  146     1    POSRES_FC_BB    POSRES_FC_BB    POSRES_FC_BB   
  147     1    POSRES_FC_BB    POSRES_FC_BB    POSRES_FC_BB   
  148     1    POSRES_FC_BB    POSRES_FC_BB    POSRES_FC_BB   
  150     1    POSRES_FC_BB    POSRES_FC_BB    POSRES_FC_BB   
  152     1    POSRES_FC_SC    POSRES_FC_SC    POSRES_FC_SC   
  155     1    POSRES_FC_SC    POSRES_FC_SC    POSRES_FC_SC   
  157     1    POSRES_FC_BB    POSRES_FC_BB    POSRES_FC_BB   
  158     1    POSRES_FC_BB    POSRES_FC_BB    POSRES_FC_BB   
  159     1    POSRES_FC_BB    POSRES_FC_BB    POSRES_FC_BB   
  161     1    POSRES_FC_BB    POSRES_FC_BB    POSRES_FC_BB   
  163     1    POSRES_FC_SC    POSRES_FC_SC    POSRES_FC_SC   
  166     1    POSRES_FC_SC    POSRES_FC_SC    POSRES_FC_SC   
  167     1    POSRES_FC_SC    POSRES_FC_SC    POSRES_FC_SC   
  168     1    POSRES_FC_SC    POSRES_FC_SC    POSRES_FC_SC   
  169     1    POSRES_FC_BB    POSRES_FC_BB    POSRES_FC_BB   
  170     1    POSRES_FC_SC    POSRES_FC_SC    POSRES_FC_SC   
  171     1    POSRES_FC_SC    POSRES_FC_SC    POSRES_FC_SC   
#endif
