* GENERATED BY CHARMM-GUI (HTTP://WWW.CHARMM-GUI.ORG) V3.7 ON JUN, 13. 2026. JOB
* GENERATES IONS
*  DATE:     6/13/26     10:36:19      CREATED BY USER: charmm-gui
*
       195  EXT
         1         1  GLY       N             -28.2761534450       -0.9648303735        0.0128967326  PROA      1              97.8500000000
         2         1  GLY       HT1           -29.0228481730       -1.0141948670        0.7351225491  PROA      1               0.0000000000
         3         1  GLY       HT2           -27.8051716709       -1.8889984949       -0.0625293096  PROA      1               0.0000000000
         4         1  GLY       HT3           -28.6972812201       -0.7150031721       -0.9046202441  PROA      1               0.0000000000
         5         1  GLY       CA            -27.3015755883        0.0465987562        0.3905077980  PROA      1              98.1600000000
         6         1  GLY       HA1           -27.0160857803       -0.1427236448        1.4146935503  PROA      1               0.0000000000
         7         1  GLY       HA2           -27.7824755945        1.0098338105        0.3055532740  PROA      1               0.0000000000
         8         1  GLY       C             -26.0602267567        0.0332865915       -0.4810682828  PROA      1              98.3500000000
         9         1  GLY       O             -25.8713684239       -0.8791442266       -1.2882984435  PROA      1              98.0800000000
        10         2  PRO       N             -25.1207008310        1.0673683224       -0.5188440513  PROA      2              98.6200000000
        11         2  PRO       CD            -25.2748754382        2.0927196677        0.3718606187  PROA      2              96.1500000000
        12         2  PRO       HD1           -25.2799729197        1.6886462926        1.4063110622  PROA      2               0.0000000000
        13         2  PRO       HD2           -26.2296544742        2.6219195798        0.1675729727  PROA      2               0.0000000000
        14         2  PRO       CA            -23.8689290868        1.0905029775       -1.2800163632  PROA      2              98.6400000000
        15         2  PRO       HA            -24.0552120390        0.8590126985       -2.3164530459  PROA      2               0.0000000000
        16         2  PRO       CB            -23.3271247018        2.4991599286       -1.0271377314  PROA      2              98.5600000000
        17         2  PRO       HB1           -23.4936366982        3.1503006969       -1.9116507171  PROA      2               0.0000000000
        18         2  PRO       HB2           -22.2394324846        2.4689411256       -0.8033381972  PROA      2               0.0000000000
        19         2  PRO       CG            -24.0977387809        2.9989979495        0.1522018694  PROA      2              97.8800000000
        20         2  PRO       HG1           -23.4489461267        3.0005496115        1.0540663337  PROA      2               0.0000000000
        21         2  PRO       HG2           -24.4495577899        4.0354329998       -0.0383751472  PROA      2               0.0000000000
        22         2  PRO       C             -22.8741914642        0.0313150638       -0.8101142186  PROA      2              98.6900000000
        23         2  PRO       O             -22.9538364999       -0.4325930940        0.3303913225  PROA      2              98.6100000000
        24         3  GLY       N             -21.9998790957       -0.4855932805       -1.8745091857  PROA      3              98.5900000000
        25         3  GLY       HN            -22.0860962499       -0.2191960549       -2.8313687205  PROA      3               0.0000000000
        26         3  GLY       CA            -20.9500564465       -1.4338104115       -1.5381140643  PROA      3              98.5800000000
        27         3  GLY       HA1           -20.4282635266       -1.6854167795       -2.4495493437  PROA      3               0.0000000000
        28         3  GLY       HA2           -21.4201807204       -2.3130702797       -1.1231765563  PROA      3               0.0000000000
        29         3  GLY       C             -19.9527273888       -0.8884353309       -0.5341923681  PROA      3              98.6800000000
        30         3  GLY       O             -19.9018469716        0.3203414857       -0.2958254431  PROA      3              98.6200000000
        31         4  ALA       N             -19.1806202421       -1.6915074590        0.0567278559  PROA      4              98.4500000000
        32         4  ALA       HN            -19.2718125223       -2.6746776210       -0.0753630626  PROA      4               0.0000000000
        33         4  ALA       CA            -18.1079129685       -1.2950184019        0.9650981178  PROA      4              98.4300000000
        34         4  ALA       HA            -18.5045109942       -0.5645712125        1.6545419201  PROA      4               0.0000000000
        35         4  ALA       CB            -17.5777594921       -2.5095089475        1.7236915570  PROA      4              98.2500000000
        36         4  ALA       HB1           -17.1798633340       -3.2618839979        1.0095967236  PROA      4               0.0000000000
        37         4  ALA       HB2           -18.3975494630       -2.9762603270        2.3104978744  PROA      4               0.0000000000
        38         4  ALA       HB3           -16.7578700345       -2.2004144284        2.4066966494  PROA      4               0.0000000000
        39         4  ALA       C             -16.9755870617       -0.6076020394        0.2091703532  PROA      4              98.5600000000
        40         4  ALA       O             -16.7941849195       -0.8331420194       -0.9896340430  PROA      4              98.4800000000
        41         5  PRO       N             -16.1577815612        0.2576732299        0.8429580713  PROA      5              98.3600000000
        42         5  PRO       CD            -16.5308238695        0.8424116771        2.0500394210  PROA      5              97.1400000000
        43         5  PRO       HD1           -16.4983932502        0.0834760261        2.8600364334  PROA      5               0.0000000000
        44         5  PRO       HD2           -17.5560870025        1.2600534434        1.9631999682  PROA      5               0.0000000000
        45         5  PRO       CA            -14.9869822773        0.8603248750        0.2008887360  PROA      5              98.3500000000
        46         5  PRO       HA            -15.2769792264        1.3795939505       -0.6984420087  PROA      5               0.0000000000
        47         5  PRO       CB            -14.4059514420        1.7563593127        1.2981099786  PROA      5              98.2900000000
        48         5  PRO       HB1           -14.0930835455        2.7374111402        0.8813019037  PROA      5               0.0000000000
        49         5  PRO       HB2           -13.5277830447        1.2735049525        1.7774323261  PROA      5               0.0000000000
        50         5  PRO       CG            -15.5186308571        1.9283070767        2.2809062371  PROA      5              97.6700000000
        51         5  PRO       HG1           -15.1217316961        1.8606874264        3.3163740065  PROA      5               0.0000000000
        52         5  PRO       HG2           -15.9938407761        2.9230390763        2.1431432359  PROA      5               0.0000000000
        53         5  PRO       C             -13.9635592990       -0.1773778560       -0.2530005121  PROA      5              98.5300000000
        54         5  PRO       O             -13.9168842550       -1.2831929691        0.2921163340  PROA      5              98.4800000000
        55         6  GLY       N             -13.3169342196        0.1617197769       -1.2648477348  PROA      6              98.6200000000
        56         6  GLY       HN            -13.4937975670        1.0024922848       -1.7706217659  PROA      6               0.0000000000
        57         6  GLY       CA            -12.2469954868       -0.6954476217       -1.7502374328  PROA      6              98.5900000000
        58         6  GLY       HA1           -11.8452212483       -0.2463331255       -2.6464306915  PROA      6               0.0000000000
        59         6  GLY       HA2           -12.6746979390       -1.6608380852       -1.9769103067  PROA      6               0.0000000000
        60         6  GLY       C             -11.1254996911       -0.8772137879       -0.7448229705  PROA      6              98.7000000000
        61         6  GLY       O             -11.0850819113       -0.1919644516        0.2791236835  PROA      6              98.6400000000
        62         7  SER       N             -10.3644574815       -1.6905623180       -1.1349664360  PROA      7              98.6200000000
        63         7  SER       HN            -10.4833787598       -2.2328156645       -1.9624324303  PROA      7               0.0000000000
        64         7  SER       CA             -9.1692355502       -1.8945558362       -0.3229903405  PROA      7              98.5900000000
        65         7  SER       HA             -9.4748750195       -1.9708639611        0.7099318935  PROA      7               0.0000000000
        66         7  SER       CB             -8.4371621924       -3.1654127603       -0.7561788415  PROA      7              98.4400000000
        67         7  SER       HB1            -7.5527516024       -3.3271453772       -0.1035757642  PROA      7               0.0000000000
        68         7  SER       HB2            -8.1044902035       -3.0629090528       -1.8111919434  PROA      7               0.0000000000
        69         7  SER       OG             -9.2883376831       -4.2942675789       -0.6558390061  PROA      7              95.6300000000
        70         7  SER       HG1            -9.5453579221       -4.3506442496        0.2673956703  PROA      7               0.0000000000
        71         7  SER       C              -8.2273664351       -0.6991786003       -0.4165896659  PROA      7              98.7100000000
        72         7  SER       O              -8.2511790673        0.0411826646       -1.4027119484  PROA      7              98.6600000000
        73         8  GLY       N              -7.4685151127       -0.4670066271        0.7160222912  PROA      8              98.4300000000
        74         8  GLY       HN             -7.5534117026       -0.9851806458        1.5632879599  PROA      8               0.0000000000
        75         8  GLY       CA             -6.4855404123        0.6031979705        0.6605168164  PROA      8              98.3600000000
        76         8  GLY       HA1            -6.1208963756        0.7685217294        1.6635070372  PROA      8               0.0000000000
        77         8  GLY       HA2            -6.9827629505        1.4891206664        0.2941872842  PROA      8               0.0000000000
        78         8  GLY       C              -5.3107664462        0.2882187802       -0.2446567791  PROA      8              98.5000000000
        79         8  GLY       O              -5.1999407036       -0.8248292753       -0.7625020078  PROA      8              98.3800000000
        80         9  PRO       N              -4.5038878023        1.1366525052       -0.4230722166  PROA      9              98.7000000000
        81         9  PRO       CD             -4.4426341705        2.3686808271        0.3975161129  PROA      9              98.1600000000
        82         9  PRO       HD1            -4.3680918125        2.1035317219        1.4731349947  PROA      9               0.0000000000
        83         9  PRO       HD2            -5.3484568403        2.9861106777        0.2212144953  PROA      9               0.0000000000
        84         9  PRO       CA             -3.2884491417        0.9565499297       -1.2202935940  PROA      9              98.7000000000
        85         9  PRO       HA             -3.5248786450        0.5008218183       -2.1684157127  PROA      9               0.0000000000
        86         9  PRO       CB             -2.7169521473        2.3729232665       -1.3163860303  PROA      9              98.6800000000
        87         9  PRO       HB1            -3.0879752101        2.8867636008       -2.2287358377  PROA      9               0.0000000000
        88         9  PRO       HB2            -1.6066705754        2.3490722230       -1.3442810462  PROA      9               0.0000000000
        89         9  PRO       CG             -3.2022079579        3.0652672558       -0.0827683428  PROA      9              98.3900000000
        90         9  PRO       HG1            -2.4190592462        3.0276203815        0.7043508421  PROA      9               0.0000000000
        91         9  PRO       HG2            -3.4303859246        4.1283046738       -0.3112022855  PROA      9               0.0000000000
        92         9  PRO       C              -2.2873972438        0.0083168200       -0.5642996404  PROA      9              98.8000000000
        93         9  PRO       O              -2.3193684730       -0.1832650791        0.6540173202  PROA      9              98.7700000000
        94        10  GLY       N              -1.4845294547       -0.5662064626       -1.4351999281  PROA      10             98.6000000000
        95        10  GLY       HN             -1.5399502668       -0.4281209649       -2.4208686440  PROA      10              0.0000000000
        96        10  GLY       CA             -0.4538216829       -1.4568590925       -0.9266712839  PROA      10             98.5600000000
        97        10  GLY       HA1            -0.0036985890       -1.9568720711       -1.7714572595  PROA      10              0.0000000000
        98        10  GLY       HA2            -0.9305964931       -2.1769881405       -0.2782986617  PROA      10              0.0000000000
        99        10  GLY       C               0.6284058321       -0.7342972532       -0.1483468051  PROA      10             98.6900000000
       100        10  GLY       O               0.7262487524        0.4929477367       -0.2048755394  PROA      10             98.6500000000
       101        11  ALA       N               1.3930894765       -1.3712814828        0.5806484042  PROA      11             98.6500000000
       102        11  ALA       HN              1.2662104948       -2.3520679906        0.6941799867  PROA      11              0.0000000000
       103        11  ALA       CA              2.5198817945       -0.8314752912        1.3357704788  PROA      11             98.6300000000
       104        11  ALA       HA              2.1780676834        0.0425549778        1.8700069737  PROA      11              0.0000000000
       105        11  ALA       CB              3.0553926835       -1.8762999013        2.3126750914  PROA      11             98.5200000000
       106        11  ALA       HB1             3.3967782417       -2.7770422908        1.7591048172  PROA      11              0.0000000000
       107        11  ALA       HB2             2.2541328505       -2.1776815324        3.0207752914  PROA      11              0.0000000000
       108        11  ALA       HB3             3.9165275906       -1.4595858298        2.8775203401  PROA      11              0.0000000000
       109        11  ALA       C               3.6319344785       -0.3630190340        0.4018751083  PROA      11             98.7500000000
       110        11  ALA       O               3.7464821522       -0.8436452661       -0.7283546274  PROA      11             98.7200000000
       111        12  PRO       N               4.5246677930        0.6349756497        0.9587708260  PROA      12             98.7000000000
       112        12  PRO       CD              4.2981223866        1.3860320941        2.0765102394  PROA      12             97.9500000000
       113        12  PRO       HD1             4.4635498098        0.7676858544        2.9839147159  PROA      12              0.0000000000
       114        12  PRO       HD2             3.2565663350        1.7709133506        2.0651701267  PROA      12              0.0000000000
       115        12  PRO       CA              5.6729931274        1.0328592316        0.1413305642  PROA      12             98.6800000000
       116        12  PRO       HA              5.3498512156        1.3177744824       -0.8470515688  PROA      12              0.0000000000
       117        12  PRO       CB              6.3124690050        2.1611689195        0.9551750519  PROA      12             98.6700000000
       118        12  PRO       HB1             6.5313046442        3.0382311471        0.3094685531  PROA      12              0.0000000000
       119        12  PRO       HB2             7.2574517304        1.8193713586        1.4287214030  PROA      12              0.0000000000
       120        12  PRO       CG              5.2935442867        2.5069467807        1.9927814749  PROA      12             98.3300000000
       121        12  PRO       HG1             5.7893702952        2.6458313151        2.9772410349  PROA      12              0.0000000000
       122        12  PRO       HG2             4.7770480685        3.4505315908        1.7149823877  PROA      12              0.0000000000
       123        12  PRO       C               6.6640763648       -0.1083309481       -0.0797508467  PROA      12             98.7800000000
       124        12  PRO       O               6.7111506422       -1.0514890515        0.7139309564  PROA      12             98.7500000000
       125        13  GLY       N               7.3207926561       -0.0299434514       -1.2108976599  PROA      13             98.6000000000
       126        13  GLY       HN              7.1582448842        0.6760600013       -1.8957553977  PROA      13              0.0000000000
       127        13  GLY       CA              8.3457839840       -1.0213907233       -1.4949576621  PROA      13             98.5900000000
       128        13  GLY       HA1             8.7437967356       -0.8121664417       -2.4768409920  PROA      13              0.0000000000
       129        13  GLY       HA2             7.8762625893       -1.9938544764       -1.4828031151  PROA      13              0.0000000000
       130        13  GLY       C               9.4825966141       -1.0109417357       -0.4903971301  PROA      13             98.7200000000
       131        13  GLY       O               9.5895682426       -0.0910549128        0.3230813907  PROA      13             98.6900000000
       132        14  SER       N              10.3201474933       -1.9746007974       -0.6265284550  PROA      14             98.6600000000
       133        14  SER       HN             10.1986701265       -2.7203240618       -1.2769824452  PROA      14              0.0000000000
       134        14  SER       CA             11.5185964541       -1.9966794676        0.2056113294  PROA      14             98.6200000000
       135        14  SER       HA             11.2253916632       -1.7772627308        1.2215127942  PROA      14              0.0000000000
       136        14  SER       CB             12.1968325343       -3.3653368185        0.1315378853  PROA      14             98.5300000000
       137        14  SER       HB1            13.0614457778       -3.3911605763        0.8286785888  PROA      14              0.0000000000
       138        14  SER       HB2            12.5517885322       -3.5498978504       -0.9048845927  PROA      14              0.0000000000
       139        14  SER       OG             11.2917643268       -4.3953256698        0.4919355904  PROA      14             96.4600000000
       140        14  SER       HG1            11.0167474061       -4.2031581935        1.3914006282  PROA      14              0.0000000000
       141        14  SER       C              12.5025762923       -0.9094420393       -0.2113244600  PROA      14             98.7500000000
       142        14  SER       O              12.5038616659       -0.4762890365       -1.3656822139  PROA      14             98.7100000000
       143        15  GLY       N              13.2016528975       -0.2780843177        0.7842629683  PROA      15             98.4400000000
       144        15  GLY       HN             13.0427564287       -0.4516286001        1.7530989782  PROA      15              0.0000000000
       145        15  GLY       CA             14.2288614044        0.6948423938        0.4479828807  PROA      15             98.4100000000
       146        15  GLY       HA1            14.6168273056        1.0976693504        1.3718336455  PROA      15              0.0000000000
       147        15  GLY       HA2            13.7643761247        1.4773518039       -0.1335837802  PROA      15              0.0000000000
       148        15  GLY       C              15.3742675907        0.1018529231       -0.3501682053  PROA      15             98.5500000000
       149        15  GLY       O              15.4485110351       -1.1163566733       -0.5283683461  PROA      15             98.4800000000
       150        16  PRO       N              16.2123298046        0.7024264461       -0.9347682132  PROA      16             98.6800000000
       151        16  PRO       CD             16.2517242850        2.2199668962       -0.6857199104  PROA      16             97.9200000000
       152        16  PRO       HD1            16.1907248749        2.4362696689        0.4011278493  PROA      16              0.0000000000
       153        16  PRO       HD2            15.4192110163        2.7224561156       -1.2206704803  PROA      16              0.0000000000
       154        16  PRO       CA             17.4117940863        0.2296635346       -1.6294383987  PROA      16             98.6700000000
       155        16  PRO       HA             17.1509521164       -0.5121646206       -2.3671078928  PROA      16              0.0000000000
       156        16  PRO       CB             18.0182201767        1.5132870520       -2.2004218158  PROA      16             98.6600000000
       157        16  PRO       HB1            17.6336903333        1.7096176900       -3.2239773181  PROA      16              0.0000000000
       158        16  PRO       HB2            19.1260813646        1.4419258813       -2.2407449845  PROA      16              0.0000000000
       159        16  PRO       CG             17.5898802188        2.5912854037       -1.2567770553  PROA      16             98.3300000000
       160        16  PRO       HG1            18.3342320655        2.6948024643       -0.4385345727  PROA      16              0.0000000000
       161        16  PRO       HG2            17.5144886500        3.5587969872       -1.7976408652  PROA      16              0.0000000000
       162        16  PRO       C              18.3965130831       -0.4703255603       -0.6957951240  PROA      16             98.7700000000
       163        16  PRO       O              18.3865719464       -0.2257257565        0.5133459388  PROA      16             98.7500000000
       164        17  GLY       N              19.2633498686       -1.5574598222       -1.2467579938  PROA      17             98.6300000000
       165        17  GLY       HN             19.1467885248       -1.8820305006       -2.1815466942  PROA      17              0.0000000000
       166        17  GLY       CA             20.3186894819       -2.2172336132       -0.4950088034  PROA      17             98.6300000000
       167        17  GLY       HA1            20.7376808094       -2.9896072712       -1.1228414565  PROA      17              0.0000000000
       168        17  GLY       HA2            19.8724684903       -2.6545142100        0.3858777652  PROA      17              0.0000000000
       169        17  GLY       C              21.4268849538       -1.2736935855       -0.0690510447  PROA      17             98.7300000000
       170        17  GLY       O              21.5446144431       -0.1666755177       -0.5973244256  PROA      17             98.7200000000
       171        18  ALA       N              22.1134560679       -1.4745878723        0.7778211953  PROA      18             98.6800000000
       172        18  ALA       HN             21.9618086117       -2.2930926765        1.3199819205  PROA      18              0.0000000000
       173        18  ALA       CA             23.2581347333       -0.7027852496        1.2544567630  PROA      18             98.6400000000
       174        18  ALA       HA             22.9523907272        0.3288049025        1.3467391148  PROA      18              0.0000000000
       175        18  ALA       CB             23.7371464701       -1.2377303990        2.6016150474  PROA      18             98.5400000000
       176        18  ALA       HB1            24.0414469197       -2.3017361653        2.5035642159  PROA      18              0.0000000000
       177        18  ALA       HB2            22.9172417472       -1.1706765469        3.3482837336  PROA      18              0.0000000000
       178        18  ALA       HB3            24.6118417701       -0.6495712999        2.9526579321  PROA      18              0.0000000000
       179        18  ALA       C              24.3982018124       -0.7293378535        0.2396267210  PROA      18             98.7100000000
       180        18  ALA       O              24.5121461350       -1.6688473276       -0.5516460762  PROA      18             98.6600000000
       181        19  PRO       N              25.1318912468        0.6078231944       -0.0081496818  PROA      19             98.5200000000
       182        19  PRO       CD             24.8117128760        1.6942069535        0.6643903830  PROA      19             97.4300000000
       183        19  PRO       HD1            25.0598797070        1.5524431491        1.7375929895  PROA      19              0.0000000000
       184        19  PRO       HD2            23.7251803447        1.8939923660        0.5504586741  PROA      19              0.0000000000
       185        19  PRO       CA             26.2425507660        0.7217309330       -0.9560238610  PROA      19             98.4000000000
       186        19  PRO       HA             25.9378071762        0.3856444515       -1.9341273035  PROA      19              0.0000000000
       187        19  PRO       CB             26.6226248344        2.2026696450       -0.8782727592  PROA      19             98.3600000000
       188        19  PRO       HB1            26.5551141891        2.6802467087       -1.8789877798  PROA      19              0.0000000000
       189        19  PRO       HB2            27.6567833088        2.3246576294       -0.4913576871  PROA      19              0.0000000000
       190        19  PRO       CG             25.6292283366        2.8023590612        0.0640801483  PROA      19             97.8500000000
       191        19  PRO       HG1            26.1585250721        3.3586940317        0.8669689324  PROA      19              0.0000000000
       192        19  PRO       HG2            24.9667293974        3.5064024345       -0.4833795464  PROA      19              0.0000000000
       193        19  PRO       C              27.4283300195       -0.1660656310       -0.5854650630  PROA      19             98.4100000000
       194        19  PRO       OT1            27.3350763742       -0.8749871141        0.4520001598  PROA      19              0.0000000000
       195        19  PRO       OT2            28.4403171450       -0.1450027225       -1.3358239182  PROA      19              0.0000000000
